/*--------------------------------*- C++ -*----------------------------------*\
| =========                 |                                                 |
| \\      /  F ield         | OpenFOAM: The Open Source CFD Toolbox           |
|  \\    /   O peration     | Version:  v1806                                 |
|   \\  /    A nd           | Web:      www.OpenFOAM.com                      |
|    \\/     M anipulation  |                                                 |
\*---------------------------------------------------------------------------*/
FoamFile
{
    version     2.0;
    format      ascii;
    class       volScalarField;
    location    "8";
    object      alpha;
}
// * * * * * * * * * * * * * * * * * * * * * * * * * * * * * * * * * * * * * //

dimensions      [0 0 -1 0 0 0 0];


internalField   nonuniform List<scalar> 
12225
(
0.393267752218
0.34190762376
0.356759886573
0.358216722341
0.369399319562
0.373927964812
0.379913574062
0.384143373762
0.386501512333
0.385802464785
0.380560261956
0.372103979794
0.365194241462
0.353664160305
0.331650122685
0.304896038711
0.272179867437
0.242943770145
0.249863327512
0.290884611176
0.325431826674
0.320135884399
0.32970898983
0.332517666504
0.336832451327
0.339801403547
0.341755481739
0.34199963804
0.339201234685
0.333578808348
0.327675748212
0.318909728867
0.303567338242
0.285012252216
0.265439871518
0.263029339039
0.355728847952
0.314512722776
0.327454013238
0.327101822527
0.336289046244
0.339811355631
0.344403440438
0.347597783192
0.349836515113
0.350616336577
0.349253020975
0.345635596105
0.340351014738
0.332157367259
0.319406494988
0.30463964877
0.291882193889
0.296823247581
0.331119850942
0.299849785454
0.325255809704
0.319756683759
0.328456519905
0.330437968247
0.333861710917
0.33607194519
0.337634978334
0.338117776496
0.3371737492
0.334640005447
0.330470126287
0.324026525824
0.314897189138
0.305339002353
0.299773726844
0.308282760493
0.340225854808
0.300115446007
0.323323458283
0.316931665536
0.324697720799
0.325686925197
0.328168357907
0.32942618658
0.330053109843
0.329717437876
0.328270518716
0.325632141804
0.321669134013
0.316168763384
0.309458239645
0.303674684096
0.302635148572
0.31175536108
0.339949707585
0.297004152777
0.320841739508
0.313069609265
0.320252236113
0.320463186671
0.322316320299
0.322975404333
0.323058539165
0.322303002666
0.32065360299
0.318095882211
0.314565558613
0.310129481754
0.305478575374
0.302543613579
0.304133693195
0.312774554123
0.339995990561
0.295240696924
0.318632812662
0.309864768509
0.316449920887
0.315994111865
0.317325588994
0.317519003528
0.317224867058
0.316229835717
0.314535505221
0.312177195645
0.309203735974
0.305851016854
0.302931810741
0.302048153087
0.305069806829
0.313004831519
0.339572581071
0.29399118448
0.31676755348
0.30722228359
0.313261038837
0.312252399384
0.313164627407
0.313009652673
0.312488704755
0.311408855449
0.309799333565
0.307737883442
0.305372646823
0.303030711776
0.301516289253
0.302058350376
0.305823998145
0.313034762082
0.339100364891
0.293281846864
0.315300602615
0.30517335479
0.310708311545
0.309228619119
0.309794915625
0.309391544592
0.30876105734
0.307705888164
0.306269092004
0.304572954069
0.302832050838
0.301407282455
0.301001530868
0.302529345816
0.306642125153
0.31323507068
0.338792417995
0.29304402411
0.31434354674
0.303791374543
0.308897440904
0.307031240807
0.30734017894
0.306783478315
0.306117079787
0.305137830397
0.303923394752
0.302636895594
0.301522810061
0.300916371071
0.301384365626
0.30357170977
0.307802371174
0.313806738437
0.339331424966
0.293046282729
0.314180804447
0.303242870558
0.308102038859
0.306009223012
0.306218935271
0.305612983223
0.304972389827
0.304122580691
0.303175899664
0.302293134051
0.301706767743
0.301698197784
0.3027084668
0.305172969881
0.309211416274
0.314539940776
0.343518077417
0.293236097841
0.315734856846
0.304206664953
0.3091205355
0.306921171872
0.307098870796
0.306475978209
0.305909218146
0.305196108154
0.304390758324
0.303668654565
0.303264967396
0.303444172502
0.304543464868
0.306865384034
0.310457758719
0.315045773423
0.346890721798
0.293963983857
0.317248893527
0.30530829133
0.310041156114
0.307666554817
0.307734013327
0.307022200368
0.306352020792
0.305542955975
0.304704708544
0.304013830629
0.303733414551
0.304050679833
0.305245885828
0.307499355526
0.310776779812
0.31483732297
0.35091626349
0.294843562344
0.3189380161
0.306466705324
0.310977810983
0.308249202879
0.308003993065
0.307062845944
0.306268332551
0.305437255198
0.304684237845
0.304196923673
0.304201422841
0.304824892986
0.306210948581
0.308470267374
0.31146768588
0.315074926515
0.356111730953
0.295799990921
0.321045090551
0.307864180626
0.312142393648
0.308995293504
0.308394131575
0.307182709194
0.306244074772
0.305429768306
0.304818931226
0.304606549427
0.304958390375
0.305883939418
0.307450935808
0.309679584697
0.312424692171
0.315563777521
0.361519109823
0.296814735314
0.323434910114
0.309560155943
0.313707966487
0.310200010996
0.30932997515
0.307915685995
0.306905028171
0.306117647962
0.305673498911
0.305683808549
0.306298518303
0.307407686383
0.309046248344
0.31116396536
0.313636890219
0.316382789117
0.366366726018
0.297722875802
0.325837592481
0.311403557824
0.315569138873
0.311842762991
0.310852403024
0.309365607291
0.308363130343
0.307670382045
0.307350452761
0.307525490896
0.308271940243
0.309455421399
0.311045005469
0.313012897672
0.315202216179
0.317627949353
0.370878826103
0.298413400963
0.328097752191
0.31321708903
0.317541060665
0.313741529317
0.312776246678
0.311315582911
0.310385427087
0.309791599335
0.309578946134
0.309852378651
0.310656183506
0.311826678852
0.31332312937
0.315122885994
0.317073384942
0.319218725157
0.373292770452
0.298512676548
0.329268396154
0.314222754055
0.318817370034
0.315152028593
0.314396411082
0.313124661496
0.312392571747
0.311986513499
0.311936643728
0.312327147199
0.313189827498
0.314347604834
0.315767103875
0.317437368454
0.319215899122
0.321154110032
0.367953228832
0.297832299922
0.327696163177
0.313473523974
0.318536833952
0.315517165053
0.315380946024
0.314740155634
0.314577007584
0.314676893697
0.315041019918
0.315737322558
0.316801932825
0.318071832615
0.319518474731
0.321140421137
0.322809753891
0.324567742859
0.363867349169
0.296814237075
0.325873498844
0.312249277904
0.317672727369
0.315168705569
0.315522215608
0.315338740661
0.315611252303
0.3160698759
0.316723779285
0.317617991957
0.318822101794
0.320149669306
0.321610225859
0.323183412995
0.324782522046
0.326423306832
0.360626778388
0.295738173317
0.324137540612
0.311022645202
0.316733455317
0.31467937247
0.315432081262
0.315646012189
0.316259649138
0.317006921496
0.317897316096
0.318952687596
0.320255559023
0.321642300598
0.323110502876
0.324663094935
0.32620809971
0.327793639847
0.357061567434
0.294541782748
0.322377698362
0.309745558637
0.315740953307
0.314124229681
0.315260630585
0.315838422615
0.316768508252
0.317794327041
0.31888238136
0.320099113066
0.321509364755
0.322970016481
0.324455980282
0.326017416506
0.327537636309
0.329076057955
0.353490763006
0.293350184844
0.320553105341
0.308484208185
0.314766897749
0.313569797764
0.315068573699
0.315996782533
0.317217809774
0.318477109819
0.319765381975
0.321121892091
0.322632105755
0.324149714093
0.325692529115
0.327273579949
0.328814593734
0.330318340677
0.349256771373
0.291965856862
0.318771334615
0.30730993818
0.313835379007
0.31307297139
0.314912813364
0.316142289393
0.317629049502
0.319118816273
0.320595139972
0.322082464287
0.32369703916
0.325295991989
0.326887989521
0.328529688207
0.330139511128
0.331733541857
0.347911349983
0.291980277244
0.316070479205
0.305696530702
0.312297878256
0.311910332969
0.313985749948
0.315465123931
0.317162617966
0.318846219986
0.320473583131
0.322067213687
0.323737769155
0.325382589132
0.327008035383
0.328656138729
0.330266072511
0.331655741825
0.326522034344
0.286353070715
0.314562663815
0.304301173103
0.311321840028
0.311394827719
0.313826427412
0.31563903673
0.317654317132
0.319663845455
0.321645206082
0.32347168158
0.325320286886
0.327159876769
0.328949229394
0.330785131709
0.332655699579
0.334778637564
0.372642700614
0.299072015782
0.30458002826
0.299876321525
0.305740952241
0.306187045547
0.308437894407
0.310068856782
0.311818944271
0.313550487307
0.315128853661
0.316585483286
0.318106686969
0.319606792225
0.321077240877
0.322662423203
0.324330250251
0.325526707213
0.202313439088
0.268755486236
0.302178146237
0.293114713717
0.300099912966
0.300857833479
0.303809080714
0.306379571515
0.309332771584
0.312522320759
0.315843129779
0.318940932765
0.322071743979
0.325323212853
0.32860741874
0.331931249621
0.335322381785
0.338638956827
0.335436800874
0.309601515121
0.311234021126
0.310091429492
0.31722575044
0.318045069916
0.320412089593
0.32221639656
0.324061189558
0.325668700216
0.326941255529
0.32812437764
0.329370452539
0.330291804146
0.330888538752
0.331367363524
0.331587055502
0.332287050452
0.476035800735
0.476396078722
0.476574530694
0.476542970877
0.476337015523
0.475999303662
0.475597438004
0.475170900439
0.474747026149
0.474344157662
0.473974147234
0.473643874321
0.47335673843
0.473113665273
0.472913838211
0.472755099913
0.472634624201
0.472548700032
0.472493790889
0.472466478789
0.47246299941
0.472480730619
0.472515973725
0.472567717127
0.472633678577
0.472714118585
0.472807173954
0.472913044251
0.473030888661
0.473161491799
0.473304450962
0.473460268026
0.473628424434
0.473809701817
0.474003769354
0.474210452902
0.474428582742
0.474658812344
0.474899901255
0.475151723236
0.475412894949
0.475682620193
0.475959256348
0.476241165703
0.476526339461
0.476812344495
0.477096764624
0.477376726627
0.477649244125
0.477911684056
0.478161550729
0.478397872921
0.478617930135
0.478818014705
0.478993259649
0.479138955092
0.479250181624
0.47932194091
0.479349236753
0.479327343051
0.479252908705
0.479125631624
0.47894621149
0.478715073365
0.478432539027
0.478099733152
0.477717427149
0.477286868749
0.476810625473
0.476291182065
0.47573261702
0.475138891935
0.474515028518
0.473865657678
0.473195991998
0.472510571526
0.471814091289
0.471111629577
0.470407597089
0.469705042321
0.469006469447
0.468315354127
0.467634004504
0.466965050901
0.466307735397
0.465664629219
0.465035513428
0.464414728966
0.463805680733
0.463205923485
0.462615713239
0.462034596489
0.461460430855
0.460919711645
0.460427763532
0.459947614079
0.459447119438
0.458941160758
0.458434422831
0.457932925955
0.457326608024
0.456629636688
0.456666701493
0.456808156592
0.45679506039
0.456549970112
0.456063461973
0.455845152237
0.455543510728
0.45527360092
0.455042742636
0.454844997817
0.454670505039
0.454512797005
0.454367476397
0.45423161905
0.454102386421
0.453976749812
0.453854003516
0.453735321903
0.453624177685
0.453521925693
0.453427353208
0.453339463759
0.453255447587
0.453174109433
0.453094774525
0.453017117406
0.452940910675
0.452865991856
0.452792113896
0.452719126864
0.452646923527
0.452575635789
0.452505334878
0.452436268741
0.45236858566
0.452302041669
0.452237216094
0.452174417682
0.452115602193
0.452059499625
0.452007021105
0.451959718803
0.45191934454
0.45188774923
0.451866065328
0.451855154481
0.45185579361
0.451868695815
0.451894998034
0.451936211756
0.451993967846
0.452069836357
0.452165645025
0.452283253399
0.452424785812
0.45259253468
0.452789559855
0.453019337157
0.453287169982
0.453598631008
0.453961848
0.454387984576
0.454892356382
0.455491766311
0.456206961114
0.457054293311
0.458046884209
0.459207620884
0.46054985785
0.462070858657
0.463753875323
0.465559416083
0.467428396911
0.469414807775
0.471463278529
0.473489628218
0.475380224638
0.476805208736
0.476123911199
0.476391059998
0.476314043361
0.476023779575
0.475659317774
0.4752832713
0.474919822796
0.474581129065
0.474271741559
0.473993271616
0.473745510036
0.473528631974
0.47334144667
0.473183291775
0.473052526158
0.472947768466
0.472866905102
0.472807877556
0.472767940531
0.472745369277
0.472737395635
0.472742460108
0.47275802471
0.472783796119
0.472818242318
0.472862165901
0.472914605136
0.472976394266
0.473047635025
0.473129629621
0.473222450158
0.473327089552
0.473444035217
0.473574419496
0.473717852534
0.473875008362
0.474045515904
0.474229603677
0.474426723272
0.474636940366
0.474859273823
0.475092937682
0.475336503261
0.475588279482
0.475846141351
0.476107481619
0.476369165354
0.476627861573
0.476879300326
0.477118770046
0.477339157203
0.477535934023
0.477706707692
0.477849061202
0.477959763107
0.478035687306
0.47807381952
0.478069292768
0.478017067026
0.477915858451
0.477764971672
0.477562762256
0.477308669428
0.477004209023
0.476651259763
0.476252115141
0.475809169971
0.475324391934
0.474799739957
0.474236818281
0.473637699305
0.473004345269
0.4723396632
0.471646630791
0.470928777801
0.470190141163
0.469435343691
0.468669288395
0.467897238093
0.467123077016
0.46634996143
0.465581816095
0.464823003649
0.464075478275
0.463337628376
0.462614562891
0.461912776161
0.46122184258
0.460520530925
0.459825966753
0.459166551133
0.458507224587
0.457805076297
0.457086929606
0.456436507322
0.455858954053
0.455244293006
0.45476776518
0.454285413674
0.45376200056
0.453263608384
0.452636037931
0.452215471561
0.451758363621
0.451342332006
0.450906978061
0.450675810714
0.450553462914
0.450449582005
0.45031830411
0.45015640382
0.449984663312
0.449806615691
0.449624946645
0.44944028754
0.449252827065
0.44906154856
0.44886501608
0.448662965485
0.448458466751
0.448255642517
0.448056599613
0.447861721803
0.447669649281
0.447478787691
0.447288476213
0.447098341811
0.446908289131
0.446718211867
0.446528096656
0.446337868209
0.446147497871
0.445956958119
0.445766283419
0.445575323413
0.445383824029
0.445191142063
0.444996423091
0.444798974305
0.444599198346
0.444397402523
0.444192363102
0.443983677716
0.443771590194
0.443556946091
0.443340170097
0.443120739634
0.44289753485
0.442669247237
0.442434691621
0.442192721634
0.44194218057
0.441682078444
0.441411951695
0.441132110016
0.440843555034
0.440548240352
0.440248827836
0.439949046198
0.439652528599
0.439364430093
0.439090519744
0.438836244264
0.438605855366
0.438403252482
0.43823155681
0.43808703033
0.437977288122
0.4379011979
0.437857157483
0.437846857363
0.437877665791
0.43795962306
0.438095429127
0.438352908266
0.438637650059
0.438965576349
0.439321714886
0.43966319831
0.440017032626
0.475794349159
0.47587854942
0.47582749681
0.475671906824
0.475497680869
0.475345171542
0.475211103551
0.475088762514
0.474971957334
0.474858368782
0.47474738359
0.47464014708
0.47453823459
0.474443614172
0.474357786727
0.474282080082
0.474217059992
0.474163116897
0.474119833441
0.474086775837
0.474062943383
0.474048252154
0.474041030662
0.474041539766
0.474049205187
0.474064648082
0.474087496351
0.474118866508
0.474158992641
0.474209080434
0.474269513752
0.474341583513
0.474425481165
0.474522126865
0.474631694511
0.474754605959
0.474890341607
0.475039406755
0.475201216325
0.475375517478
0.475561482649
0.475758226818
0.475964400707
0.476178377105
0.476398156051
0.476621417114
0.476845347446
0.477066904867
0.477282628008
0.477488779131
0.477679855647
0.477850114225
0.477993250394
0.478105310883
0.478183323154
0.478224960026
0.478228345627
0.478193889854
0.478122708528
0.478013373472
0.47786326866
0.477669977649
0.477429222584
0.477136159385
0.476786534071
0.476377377123
0.47590758186
0.475377742815
0.474790384266
0.474149222897
0.473459508118
0.472727353468
0.471959648485
0.471163545972
0.470346202253
0.469514586174
0.468675223011
0.467834253979
0.466997193431
0.46616902299
0.465351922448
0.464548659853
0.463763350005
0.462998385414
0.462249680389
0.461515463425
0.4608094722
0.460134566202
0.459466615499
0.458795159431
0.458153085213
0.457566951223
0.456961089317
0.456357184804
0.455783438956
0.455233677944
0.454732438998
0.454379608627
0.453955927312
0.453348979348
0.45266825209
0.452202208924
0.452011669762
0.451813778327
0.451714350825
0.451553596112
0.451273109739
0.450862508191
0.450457101547
0.450101117245
0.449777506003
0.449481453572
0.449204547678
0.448942258807
0.44869102456
0.448448210826
0.448211125848
0.447977585709
0.447746962786
0.447521560655
0.447303785582
0.447094222232
0.446891594846
0.446693768846
0.446499741299
0.446308942378
0.446120993836
0.445935554035
0.445752284666
0.445570828867
0.445390818662
0.445211929501
0.44503393867
0.444856640527
0.444679787727
0.444502997778
0.44432576486
0.444147840284
0.443969297602
0.443791526623
0.443614813689
0.443438392798
0.44326118227
0.443083642341
0.442907415915
0.442733872113
0.442563855168
0.442397651759
0.442235515563
0.442077625601
0.441924253561
0.441775466895
0.441631483958
0.44149227483
0.441357495718
0.441226454672
0.441098246757
0.440971520009
0.440844753053
0.440716004984
0.440583343265
0.440444877251
0.440298727634
0.44014285741
0.439975639856
0.439795206212
0.439598429357
0.439384484276
0.439156500649
0.438917700179
0.438673699099
0.438435613409
0.438216848387
0.43804302636
0.437940248412
0.437923669989
0.438005497585
0.438182175799
0.438404709092
0.438530355839
0.475328910576
0.475403499702
0.475600518331
0.475674892263
0.475686168446
0.475689057462
0.475680372219
0.475656333379
0.475614103177
0.475553606699
0.47547678511
0.475387374305
0.475288882006
0.47518514741
0.475079219808
0.474973913956
0.474871166468
0.474772577065
0.474678775011
0.474590893761
0.474508612149
0.47443230327
0.474361754112
0.47429759283
0.474239374396
0.474188428135
0.474144972557
0.474110235841
0.474084898159
0.474070500222
0.474067803492
0.474078063352
0.474102020825
0.474140925724
0.474194642223
0.474264038181
0.474348961109
0.474449509454
0.474565064289
0.474695327323
0.474839121018
0.474995228359
0.475161815259
0.475336707703
0.475517291697
0.475700544497
0.475882920867
0.476060821785
0.476230066486
0.476386169002
0.476524788289
0.476642700094
0.476734593375
0.476795944333
0.476822594724
0.476811084542
0.47675826033
0.476662693161
0.476526013775
0.476351184766
0.476139149315
0.475889343041
0.475599803109
0.475268225072
0.474891307839
0.474465531046
0.473987831719
0.473456061536
0.472869415351
0.472228775336
0.471536747857
0.47079789363
0.470018536904
0.469205780497
0.468367551905
0.467512927711
0.466650266382
0.465786228129
0.464928933224
0.464085906141
0.463259932108
0.462450556775
0.461665696642
0.460914196012
0.460187266155
0.459476401854
0.45879479862
0.45817455617
0.457569315125
0.456968350399
0.456405075163
0.455894278425
0.455420304073
0.45495906253
0.454539101247
0.454119498772
0.453641689164
0.453106602201
0.452463123091
0.451850666223
0.451441032452
0.451298274448
0.451217126826
0.451074416184
0.450921022265
0.450648917471
0.450222785644
0.449686000173
0.449161104207
0.448704995934
0.448310708043
0.44796598812
0.447657030666
0.447374548074
0.447111770203
0.446863671505
0.446626216663
0.446396323815
0.446173256373
0.445958329001
0.44575285763
0.445556083315
0.445365344732
0.445178770813
0.444995654817
0.444815808809
0.444639042472
0.444465097111
0.444293627265
0.444124226692
0.443956459615
0.443789942873
0.443624375352
0.443459469547
0.443294869781
0.443130073404
0.442964730074
0.442798956462
0.442633736958
0.442470593791
0.442309966477
0.442150198007
0.441989285373
0.441827064317
0.441664512501
0.441502548347
0.441341509026
0.441181251546
0.441021520022
0.440862023933
0.440702557716
0.440542905664
0.440383081314
0.440223173491
0.440063333993
0.439903796267
0.439744976404
0.439587362973
0.439431684753
0.439278703863
0.439128908374
0.438982778363
0.438840754505
0.438702643584
0.438567791999
0.438434589175
0.438299505415
0.438160259411
0.438015053459
0.437861050762
0.437697332607
0.437526607722
0.437353443338
0.437185889919
0.437042184591
0.436926725173
0.436846859097
0.436794516252
0.436714380769
0.436487902163
0.474775894595
0.475241721251
0.475792871621
0.475999431118
0.47605907386
0.476091261627
0.476103742573
0.476096081887
0.47606481842
0.476010400402
0.475934324144
0.475839853344
0.475730347657
0.47560973789
0.475481139488
0.475347809735
0.475211868955
0.475075711353
0.474940511899
0.474807477418
0.47467710608
0.474550622614
0.474427663725
0.474309394946
0.474196207727
0.474089118215
0.473988668503
0.473896475812
0.47381339498
0.473741006459
0.473680267623
0.473632854777
0.473599367378
0.473580960776
0.473578148965
0.473591674901
0.473621247625
0.473667463851
0.473729788518
0.47380795042
0.473900979896
0.474007888731
0.474127034576
0.474256571119
0.474394128291
0.47453715305
0.474682484291
0.474826824166
0.474966605712
0.475097660759
0.475214335622
0.475312742971
0.475387977575
0.475435265127
0.475450858325
0.475431457584
0.475373407015
0.475274316828
0.475133855458
0.474950706544
0.474723801939
0.474452715364
0.47413616929
0.473772438767
0.473359212196
0.472894437433
0.472376321458
0.471803773781
0.471177346385
0.470498604577
0.469770644144
0.468998059691
0.468188038951
0.467346825166
0.466481739968
0.465602227321
0.464718081532
0.46383399699
0.462955081684
0.462095376043
0.461262246707
0.460446480086
0.45965480599
0.458905405148
0.458186355136
0.457482857202
0.456814362418
0.456199728828
0.455645780656
0.455115468041
0.454589059945
0.454116885171
0.453659046841
0.453237830445
0.452796539811
0.452249420805
0.451643080842
0.451035365943
0.450514910566
0.450203451076
0.450096982898
0.450090624304
0.450017540103
0.449846642185
0.449606044349
0.449260730336
0.448820657316
0.448330552515
0.447857687921
0.447435105952
0.447064142076
0.446737892371
0.446446178971
0.446180842218
0.445935461396
0.445705067508
0.445485748195
0.445274923605
0.445072206029
0.444878643773
0.444694795294
0.444518921955
0.444348165854
0.444180955219
0.444016931693
0.443856147966
0.443698598431
0.443544124193
0.44339242364
0.443243073111
0.443095595592
0.442949548602
0.442804531067
0.442660168501
0.442515929741
0.442371226913
0.442225840257
0.44208034934
0.441936575596
0.441796184529
0.441659638863
0.441524561241
0.441388668489
0.44125155258
0.441113998869
0.440976900634
0.440840595959
0.440705119468
0.440570338314
0.44043615683
0.440302457333
0.440169143281
0.440036151333
0.439903441552
0.439770936268
0.439638580778
0.439506341231
0.439374189712
0.439242188558
0.439110366169
0.438978460807
0.438846220707
0.438713295525
0.438578925248
0.438442264122
0.438302052519
0.4381557842
0.438002242111
0.437841018623
0.437670905127
0.437493042198
0.437311163721
0.437129156219
0.436953457408
0.436794374666
0.43665319076
0.436525867912
0.436392488163
0.436190934936
0.435816089343
0.47424319784
0.475590966384
0.476400944321
0.476486851097
0.476429572581
0.47639556566
0.476370902017
0.476342237755
0.476298389953
0.476235035476
0.476150732838
0.476047801575
0.475928270514
0.475795698498
0.475652567342
0.475502073855
0.475346197276
0.475187297819
0.475026512757
0.474865840072
0.474705593762
0.474546912656
0.474390425658
0.474237219052
0.4740874748
0.473942898303
0.473804246879
0.473673074405
0.47355048742
0.473438266462
0.473337554351
0.47324985914
0.473176175765
0.473117907168
0.473075202869
0.473049048729
0.473039462524
0.473046663638
0.473070077708
0.473109466654
0.473163622496
0.47323147601
0.473311193383
0.473400866026
0.473498040723
0.473600208601
0.473704263774
0.473807293334
0.473905827908
0.473995818614
0.474071793618
0.474129882976
0.474164697944
0.474171254835
0.474145030943
0.474081959516
0.473978290698
0.473834611183
0.473652189575
0.473431624579
0.473172476393
0.472874469563
0.472535898204
0.472153826225
0.471723654373
0.471241348187
0.470703167993
0.470106853169
0.469452781264
0.468743992882
0.46798316996
0.467176532104
0.466333435965
0.465462944376
0.464569774024
0.463664508058
0.462761757039
0.46186805744
0.460980824548
0.460110545534
0.45928274984
0.458463091311
0.457668770619
0.456913521321
0.45620876836
0.455558414617
0.454939045059
0.454355427535
0.453805713818
0.453269591573
0.452787846048
0.452318945244
0.451785358728
0.451248137083
0.450690521206
0.450136974536
0.449655440463
0.449266031805
0.449005339122
0.448889406867
0.448855625393
0.448810178141
0.448680705722
0.448469960856
0.448192865023
0.447845877488
0.447447705269
0.447028768088
0.446623455615
0.446250076131
0.44591309601
0.445610605304
0.445337238904
0.445087559184
0.444856695298
0.444640506383
0.444435592741
0.444240051378
0.444053633528
0.443877184194
0.443710543561
0.443551308137
0.443396860597
0.443245813666
0.443097904375
0.442953218034
0.44281181722
0.442673582373
0.442538230361
0.442405326315
0.442274380894
0.442144907171
0.442016462813
0.441888563125
0.44176056682
0.441631839398
0.441502329723
0.44137323379
0.441246654909
0.441124612468
0.441006977425
0.440891138361
0.440774786203
0.440657282967
0.440539246036
0.44042135824
0.440303929568
0.440186979684
0.440070436252
0.439954252011
0.439838374084
0.43972275354
0.439607331838
0.439492041059
0.439376782754
0.439261472483
0.439146045579
0.439030432715
0.438914634012
0.43879857926
0.438681961863
0.438564476323
0.438445651766
0.438324577011
0.438200224814
0.438071218207
0.43793520128
0.437790866038
0.437637600198
0.437474101501
0.43730149099
0.437122998246
0.436941318711
0.436761013339
0.43658984673
0.43642668518
0.436264169842
0.436078628817
0.435810843316
0.435376954663
0.473881359529
0.476504654618
0.477245180632
0.476931355399
0.476686033709
0.47656601866
0.476492004012
0.476428205315
0.476353851246
0.476263068374
0.476152918534
0.476025158619
0.475881070816
0.475723934883
0.475555600216
0.47537914531
0.475196065034
0.475008943311
0.474818782009
0.474627101137
0.474434665255
0.474243051282
0.474052270281
0.473863826235
0.473678431156
0.473497292923
0.473321259051
0.473152114453
0.472990896764
0.472839348592
0.472698592953
0.47257039472
0.47245551392
0.472355164558
0.472269982071
0.472200712494
0.472147169666
0.472109861916
0.47208817155
0.472081728378
0.472089378445
0.472110091231
0.472142118132
0.472183774421
0.47223288043
0.472287506917
0.472345091141
0.472403374708
0.472459947282
0.472511777156
0.472552692278
0.472579464692
0.472586009169
0.472565231034
0.472510697343
0.472416472781
0.472279283341
0.47210211823
0.471886288143
0.471633221823
0.471343578935
0.471019649636
0.470660838012
0.470262944518
0.469819799971
0.469326722137
0.468777756012
0.468168171204
0.467497987575
0.466771133047
0.465990823708
0.465160321452
0.464293105897
0.463404195597
0.462497700129
0.461580819287
0.460669856354
0.459771967083
0.458878926705
0.458009056217
0.457172091877
0.456382897445
0.455645692839
0.454934671246
0.45425953013
0.453629986266
0.453046256998
0.452505433309
0.451971091219
0.451417165848
0.450884758855
0.450343901744
0.449792364733
0.449277302018
0.448793962495
0.448384347115
0.448078714483
0.447864213463
0.447731003204
0.447652895125
0.447579785624
0.447466800125
0.447292695659
0.447065191067
0.446791262488
0.446474523643
0.446128968222
0.445773149768
0.445425940831
0.445098959856
0.444797301595
0.444521620403
0.444269764326
0.444038554005
0.44382459907
0.443624557999
0.443435762443
0.443256757055
0.443087525143
0.442928551015
0.442779030004
0.442636588478
0.442498829523
0.442364549388
0.442233439445
0.442105554714
0.44198092745
0.441859460478
0.441740875551
0.441624760808
0.441510627034
0.441397976713
0.44128633527
0.441175113675
0.441063583332
0.440951091469
0.440837840667
0.44072542864
0.440616243466
0.440512252543
0.440412814911
0.440315377125
0.440217636939
0.440118959331
0.440019779043
0.439920566312
0.439821531875
0.43972262905
0.439623836348
0.439525124784
0.439426524616
0.439328002251
0.439229529865
0.439131002858
0.439032311597
0.438933315914
0.43883390769
0.4387339409
0.438633320865
0.438531858649
0.438429151516
0.438324798912
0.438218214622
0.438108407226
0.437994248252
0.437874382162
0.437746627177
0.437609782749
0.437463198395
0.437305672727
0.437138138991
0.436963359226
0.436782958668
0.436599807788
0.43641922029
0.436238060361
0.436046661236
0.435819993867
0.435505084177
0.435038575963
0.473792958493
0.477845009441
0.478052567546
0.47718873574
0.476808044814
0.47662391588
0.47649766076
0.476384028976
0.476261575167
0.476125239849
0.475971838188
0.47580391315
0.475621729393
0.475428501909
0.475225227139
0.475014819157
0.47479831059
0.474578027011
0.474354591594
0.474130054046
0.473904664973
0.473679858793
0.47345632426
0.473235197985
0.47301673513
0.472802655604
0.472593617468
0.472391101351
0.472196087456
0.472010236401
0.471834517203
0.471670296653
0.471518437023
0.471380135592
0.471255527137
0.471145456043
0.471049886048
0.470968923292
0.470901979844
0.470848758528
0.4708080544
0.470778940286
0.470759881063
0.470749538792
0.470746352277
0.470749115248
0.470756585243
0.470767794203
0.470781615832
0.470796627624
0.470807915296
0.470809617859
0.470794007875
0.470749578867
0.470664516343
0.470528756612
0.470342020903
0.470110719467
0.469838570518
0.46953019509
0.46919247704
0.468832809318
0.468452787733
0.468043968592
0.467597245031
0.467104417375
0.466557410556
0.465947058471
0.465269895994
0.464533949505
0.463746883701
0.462908373736
0.462029478514
0.461137651089
0.460219761458
0.459291399229
0.458376843229
0.457485526477
0.456630532029
0.455817873513
0.455027471779
0.454272127128
0.453563631251
0.452901064164
0.452286514628
0.451713998688
0.451160690603
0.450603791621
0.450040229258
0.449485978459
0.448962854708
0.448452921801
0.447977985656
0.447562962735
0.447208950996
0.446935095557
0.446737510034
0.446592613216
0.446480666521
0.446377588474
0.44625809011
0.446106047617
0.445916935006
0.445694879758
0.445442599833
0.445163576406
0.444866688415
0.444563368859
0.444265080342
0.443980024746
0.44371291257
0.443465505033
0.443237389951
0.443026953792
0.442831882998
0.442649617918
0.442478139942
0.442316434745
0.442164605419
0.442022872395
0.441890142819
0.441764207013
0.441643023725
0.44152548039
0.44141119035
0.441300113546
0.441192230735
0.441087433527
0.440985455124
0.440885914127
0.440788342745
0.440692272003
0.44059718259
0.440502425333
0.440407146951
0.440310766064
0.440213763434
0.440117956656
0.44002587992
0.43993907287
0.439856671039
0.439776252929
0.439695766995
0.439614629999
0.439533075926
0.439451428783
0.439369742508
0.439287937509
0.439205961523
0.439123821641
0.439041575307
0.438959227513
0.438876758729
0.438794059927
0.438710998243