/*--------------------------------*- C++ -*----------------------------------*\
| =========                 |                                                 |
| \\      /  F ield         | OpenFOAM: The Open Source CFD Toolbox           |
|  \\    /   O peration     | Version:  v1806                                 |
|   \\  /    A nd           | Web:      www.OpenFOAM.com                      |
|    \\/     M anipulation  |                                                 |
\*---------------------------------------------------------------------------*/
FoamFile
{
    version     2.0;
    format      ascii;
    class       volScalarField;
    location    "8";
    object      p;
}
// * * * * * * * * * * * * * * * * * * * * * * * * * * * * * * * * * * * * * //

dimensions      [0 2 -2 0 0 0 0];


internalField   nonuniform List<scalar> 
12225
(
-2.44299834119
-3.16958805107
-3.45683066794
-3.54481773676
-3.59630539762
-3.65156998077
-3.70776437162
-3.75601053059
-3.79100715241
-3.81106440547
-3.81627621353
-3.80699536013
-3.78302901913
-3.74322791566
-3.68521729991
-3.60500764411
-3.49518817929
-3.34567500105
-2.61251200106
-3.18766883223
-3.46000349647
-3.55060015733
-3.6030724206
-3.65779872642
-3.7130479941
-3.76047971782
-3.79495111675
-3.814769664
-3.81998018245
-3.8108973433
-3.78732001086
-3.74813975373
-3.69111361256
-3.61265858782
-3.50756123796
-3.3867566342
-2.75399281334
-3.18167456561
-3.44159339951
-3.54437253899
-3.60363777351
-3.6603515382
-3.71571128947
-3.76292951718
-3.79744162165
-3.81769070459
-3.82371109573
-3.81581095177
-3.79384943471
-3.75690463612
-3.70316422969
-3.63004465731
-3.53462379812
-3.42495213829
-2.87718599056
-3.19626584591
-3.439893004
-3.55276061782
-3.61707933801
-3.67351913056
-3.7268959589
-3.77237122783
-3.8059931389
-3.826232482
-3.83299274654
-3.82649696176
-3.80664405033
-3.77273995108
-3.72349306901
-3.6573122628
-3.5729618536
-3.47572476037
-2.98658586959
-3.22437777907
-3.44328055423
-3.55955498668
-3.62656324724
-3.68196609431
-3.73332827572
-3.77749449343
-3.81094119989
-3.83202621278
-3.84044275926
-3.836306938
-3.81958299453
-3.78985852877
-3.74640438357
-3.68854144644
-3.61631074635
-3.53372739605
-3.08423518743
-3.26150160463
-3.45261717647
-3.56838299416
-3.63795989935
-3.69341876619
-3.74382340272
-3.78747185936
-3.82130351929
-3.84364459529
-3.85406282
-3.85264838964
-3.83950272184
-3.81454817812
-3.77761871939
-3.72883364411
-3.66920718758
-3.60258513706
-3.17202568455
-3.30470897989
-3.46817291982
-3.57999179994
-3.65107099514
-3.70659835683
-3.75605153877
-3.79901314336
-3.83300540365
-3.85645026399
-3.86887524423
-3.87038884098
-3.8612463835
-3.84168882905
-3.81204193243
-3.77305257212
-3.72638169776
-3.67578562983
-3.25161494788
-3.35172314467
-3.48952252633
-3.59477041804
-3.6660819226
-3.72163129866
-3.77037743207
-3.81289970182
-3.84733136324
-3.87225817961
-3.88720564488
-3.89230581733
-3.88794949305
-3.87464854779
-3.85312272121
-3.82456905524
-3.79102410997
-3.7560594024
-3.32439899202
-3.4008452967
-3.51596804424
-3.61298817366
-3.683289815
-3.73871019035
-3.78698705704
-3.82933277842
-3.86444876649
-3.89113165293
-3.90894257173
-3.9180498104
-3.91896401137
-3.91241980581
-3.89943157235
-3.8814852249
-3.86076894518
-3.8404914792
-3.39154149498
-3.45086564974
-3.54668869003
-3.63473263563
-3.70295801815
-3.75801477742
-3.80602467107
-3.84847595105
-3.88455337598
-3.91329278342
-3.93432725438
-3.94787115773
-3.95453308505
-3.95520963915
-3.95110519254
-3.94384492946
-3.93559903173
-3.92912842193
-3.45397055591
-3.500920331
-3.58079132979
-3.65986603953
-3.72524617321
-3.77970055871
-3.82762849421
-3.8704911631
-3.90784169339
-3.93895575782
-3.96356216252
-3.98192298962
-3.99471494058
-4.00292986495
-4.00786199683
-4.01115268329
-4.01483663023
-4.02117218022
-3.50761507942
-3.54640954357
-3.61445386981
-3.68577150911
-3.74811508237
-3.80183160638
-3.84983661746
-3.89336199052
-3.93217849516
-3.96576107951
-3.99393237678
-4.01699439628
-4.03565337968
-4.05093438837
-4.06413212767
-4.07682156137
-4.09085106827
-4.108054547
-3.55810895672
-3.59081928092
-3.6492728235
-3.71359262009
-3.77281406944
-3.82570631212
-3.87390822823
-3.91832412374
-3.95884629682
-3.99511311507
-4.02703573894
-4.05494473523
-4.07955564098
-4.10187290403
-4.12314998855
-4.14483401667
-4.16856694909
-4.19575082279
-3.61249638862
-3.64018125105
-3.69015516473
-3.74767764046
-3.80351643717
-3.85547383429
-3.90406994905
-3.94979663177
-3.99258461093
-4.03220366016
-4.06864441035
-4.10225317912
-4.13371550496
-4.16397674976
-4.19417257483
-4.22557452765
-4.25955019112
-4.29707756188
-3.67018575787
-3.69398411601
-3.7369803802
-3.78843873429
-3.84100050921
-3.89209702203
-3.94139731413
-3.98897093605
-4.03469762354
-4.07842948442
-4.12019786033
-4.16034647226
-4.19947978401
-4.23843357326
-4.27816218591
-4.3197088516
-4.36414166421
-4.41200656729
-3.73010079139
-3.75114897496
-3.78895239091
-3.83564355287
-3.88557902879
-3.93624357945
-3.98678299078
-4.03688918328
-4.08634383991
-4.13499622568
-4.18289635066
-4.23031101094
-4.27775171138
-4.32585965273
-4.37539453239
-4.42710800159
-4.48179165021
-4.53956681639
-3.79022085746
-3.80962239736
-3.8442219331
-3.88798681566
-3.93657218712
-3.9877224351
-4.04032711404
-4.09381810123
-4.14784494534
-4.20221424906
-4.25690995708
-4.31210953849
-4.36815074412
-4.42548575169
-4.48461231261
-4.54602949473
-4.61022383405
-4.67699175465
-3.84664556639
-3.86549696796
-3.89908346269
-3.94228919504
-3.99147590706
-4.04460350662
-4.10047549125
-4.15838006843
-4.21785385854
-4.27861921301
-4.34055620456
-4.4037080687
-4.46822977247
-4.53436865333
-4.60238601497
-4.67254816312
-4.74510297185
-4.81959074414
-3.89170566374
-3.91132587833
-3.94661923505
-3.9923945666
-4.04494422301
-4.10222171093
-4.16303105818
-4.22663548768
-4.29250124641
-4.36025113661
-4.42963201779
-4.50053754201
-4.57294646616
-4.64692496199
-4.72253548385
-4.79985629112
-4.8789460557
-4.95915099135
-3.9054534713
-3.92742113807
-3.96758300143
-4.01923968918
-4.07759821776
-4.14041562615
-4.20668575635
-4.27587760517
-4.34747190026
-4.42105087492
-4.4962356781
-4.5728510231
-4.65075674088
-4.72996126805
-4.81040675842
-4.8921143084
-4.97503049028
-5.05844460728
-3.89615548185
-3.92151712174
-3.96852392207
-4.02767191658
-4.09247448736
-4.16062366647
-4.23167536627
-4.30542344299
-4.38148077606
-4.45933062425
-4.53859280308
-4.61899354687
-4.70044157026
-4.78285610531
-4.86623818751
-4.95050375735
-5.03566292342
-5.12089783337
-3.86939639405
-3.90025057375
-3.95732708069
-4.02608227214
-4.09790758553
-4.17118539855
-4.24656682526
-4.32437439267
-4.40424568452
-4.48560748881
-4.56800372564
-4.65118598865
-4.73506129413
-4.81959263984
-4.90476032726
-4.9904973516
-5.07676307822
-5.16274631026
-3.82781965315
-3.86751263468
-3.93885677996
-4.01900169473
-4.09765061685
-4.1753524427
-4.25449440884
-4.3358837668
-4.41907665265
-4.50337429677
-4.58829744008
-4.67366479254
-4.75943304921
-4.8456456532
-4.93226455425
-5.01926830733
-5.10657075157
-5.19343696374
-3.77281862446
-3.82686937968
-3.91770439204
-4.01016953651
-4.0945137641
-4.1756068563
-4.25792011739
-4.34242708138
-4.42837082437
-4.51487568233
-4.6014837601
-4.68810856814
-4.77483724623
-4.86175987215
-4.9489083495
-5.03619857441
-5.12352789016
-5.21000784507
-3.7047032663
-3.78205069658
-3.89804644053
-4.002138546
-4.0901562355
-4.17360273817
-4.25880782472
-4.34640603994
-4.43513847514
-4.52395076157
-4.61243059821
-4.70060261194
-4.78865082403
-4.87671982223
-4.96484020709
-5.05290520386
-5.14077805683
-5.22757618081
-3.6228609219
-3.73746897766
-3.88338669697
-3.99617175885
-4.08508320542
-4.1694547462
-4.25644315787
-4.34581984675
-4.43584368119
-4.5254563943
-4.61443311964
-4.70299675101
-4.79146042763
-4.88001598052
-4.96867331065
-5.05724105881
-5.14537079883
-5.231799643
-3.52597004185
-3.69855238672
-3.87605872434
-3.99329829518
-4.08224953639
-4.16890845385
-4.25928353834
-4.35157539294
-4.44348706728
-4.5340591119
-4.62338976313
-4.71200302753
-4.80045512529
-4.88905580894
-4.97787474798
-5.06671964877
-5.15511836832
-5.24144783559
-3.41232593393
-3.67183513561
-3.87382437437
-3.98525716668
-4.06947064293
-4.15656148344
-4.24972360854
-4.34499812216
-4.43924135185
-4.53138778839
-4.62170151813
-4.71095154621
-4.79987435009
-4.88892447442
-4.97827510546
-5.0678287761
-5.15708860995
-5.24382336515
-3.27970772469
-3.67189351999
-3.89573979252
-3.99755549508
-4.07452621605
-4.15915206466
-4.25218866185
-4.34801185276
-4.44276214121
-4.53517889998
-4.62555866226
-4.71476486346
-4.8036244427
-4.89267676782
-4.98220044716
-5.07231879115
-5.16302417868
-5.25317054753
-3.11243832538
-3.64638778005
-3.8911797519
-3.99203542486
-4.0682125014
-4.15344631985
-4.24761604388
-4.34454670059
-4.44017332385
-4.5332126745
-4.62401625403
-4.71351300569
-4.80258338706
-4.8918185211
-4.98155639331
-5.07206443673
-5.16377666115
-5.26102107894
-2.50292193275
-2.50519873024
-2.50833590005
-2.51447673032
-2.52740825072
-2.5511203124
-2.58832127962
-2.64107884245
-2.71092436292
-2.79897250482
-2.90595141553
-3.03228600034
-3.17811295591
-3.34336903635
-3.52779644742
-3.7310310325
-3.95259681615
-4.19199036708
-4.44866146669
-4.72208983349
-5.01175395496
-5.31720034526
-5.63799662583
-5.97379471337
-6.32427273807
-6.68919365781
-7.06833740595
-7.46155948228
-7.86871166911
-8.28970328753
-8.72441708423
-9.1727756623
-9.63464604351
-10.1099118642
-10.5983749986
-11.0998303489
-11.613952937
-12.1403775564
-12.6785714876
-13.2279092675
-13.787529462
-14.3564063321
-14.9331936411
-15.5162794402
-16.1036075332
-16.6927159142
-17.2805835558
-17.8637246884
-18.4380788708
-18.9990677823
-19.5414670657
-20.0595175174
-20.5469525527
-20.9972321595
-21.4037695855
-21.7602973953
-22.0610659886
-22.3009319474
-22.475215021
-22.5794206741
-22.6089483713
-22.5590755851
-22.4250720213
-22.202283266
-21.8866058299
-21.4747520477
-20.9636417478
-20.3497828582
-19.6292649753
-18.7978844372
-17.8515989722
-16.7870713451
-15.6024938192
-14.2983677193
-12.8783945839
-11.3500279842
-9.72492662283
-8.01887923089
-6.25147640686
-4.4451900059
-2.62444525251
-0.814282237329
0.960973382489
2.67907690263
4.32034408467
5.8683287917
7.31077080511
8.64003749092
9.85183501564
10.9444654246
11.91959544
12.7823219265
13.5394454032
14.1979750264
14.7655283497
15.25051757
15.6616211984
16.0075802269
16.2962021269
16.5340620551
16.7283459352
16.8850209254
17.0102401587
17.1094083379
17.1822707229
17.2372512848
17.2788733807
17.3021175895
17.3059123314
17.2945643442
17.2718176693
17.2400731866
17.2011372839
17.1566367186
17.1080289692
17.0565979935
17.0033947902
16.9492857368
16.8949423374
16.840902847
16.7875614158
16.7352269213
16.6841235345
16.6344449012
16.5863247682
16.5399422398
16.4954573285
16.4529783646
16.412562289
16.3742667978
16.338105802
16.3040964727
16.2722282442
16.2425019187
16.2148938901
16.1893936185
16.1659734223
16.1446225275
16.1253191564
16.1080514869
16.0927808398
16.0794684393
16.0680876074
16.0586192443
16.0510426759
16.0453167632
16.0413601406
16.0391678429
16.0387416045
16.0399959455
16.0428014505
16.0470155893
16.0524820455
16.0590444163
16.0665413534
16.0748200069
16.0837289156
16.0931293318
16.1028861035
16.1128798914
16.1229965708
16.1331378969
16.1432100558
16.1531344754
16.1628410932
16.1722765786
16.1813899013
16.1901551358
16.1985638005
16.2066435963
16.2144650265
16.2222027753
16.2301176573
16.2387075505
16.2488607255
16.2617322525
16.2786630016
16.3014175183
16.3340085333
16.3585654095
-2.47588331238
-2.4867344597
-2.49900393543
-2.50763829091
-2.52021778434
-2.54398622478
-2.58207074797
-2.63640961886
-2.70837179973
-2.79892109306
-2.90865503574
-3.03787909286
-3.18663152227
-3.35475944298
-3.54193706487
-3.74773961379
-3.97165245307
-4.21313855204
-4.47163584826
-4.74661481473
-5.0375638085
-5.34403733782
-5.66562936622
-6.00201161819
-6.35289662731
-6.71807258828
-7.09735840936
-7.49063362916
-7.89778769404
-8.31875261816
-8.75344841185
-9.20181617043
-9.66376095433
-10.1391882611
-10.6279432223
-11.1298459618
-11.6446252004
-12.1719509986
-12.711356121
-13.262256717
-13.8238638266
-14.3951991539
-14.974997404
-15.5616967666
-16.1533019297
-16.7473383582
-17.3407792574
-17.930104421
-18.5112425528
-19.0795055108
-19.6295154816
-20.1552712991
-20.6502245195
-21.107528525
-21.5204266867
-21.8826635351
-22.1886644707
-22.4334664978
-22.612480052
-22.7210656724
-22.75438916
-22.7077576155
-22.576463365
-22.355581986
-22.041539911
-21.6322751363
-21.125358173
-20.5176004132
-19.8051071706
-18.9834478515
-18.0480824267
-16.9949694914
-15.8213951682
-14.5268898869
-13.1142020565
-11.5900302095
-9.96549430755
-8.25620240017
-6.48190674357
-4.66553700041
-2.83205789771
-1.00728793375
0.783545791108
2.51746977266
4.17450464442
5.73780830267
7.19453208332
8.53676297999
9.76047201172
10.8640123401
11.8485635208
12.7190610928
13.4823543411
14.1454276444
14.7160450434
15.2029959342
15.6156814805
15.9626423371
16.2523714577
16.491844245
16.6891199865
16.8494856158
16.9784078631
17.0827981196
17.1639443432
17.2232960524
17.2639609625
17.2862547496
17.2907315698
17.2806904281
17.2593669445
17.2290328918
17.1914563495
17.1482097428
17.1007323915
17.0502833992
16.9979269702
16.9445288898
16.890786312
16.8372437628
16.784318982
16.7323285148
16.6815228965
16.6321145668
16.5843087166
16.5382485733
16.494026116
16.4517320086
16.4114483649
16.3732433714
16.3371486665
16.3031793488
16.2713395318
16.2416268917
16.2140271661
16.1885229093
16.1650935334
16.143723251
16.1243970064
16.1071023786
16.0918070265
16.078464333
16.067053587
16.0575839578
16.0500460365
16.0444092651
16.0406224828
16.0386193181
16.0383284133
16.0396684893
16.0425245642
16.0467627388
16.0522342386
16.0587866578
16.0662634485
16.0745138868
16.0833900691
16.0927543993
16.1024732816
16.1124265908
16.122500786
16.1325962455
16.1426190874
16.1524906375
16.1621382253
16.1715056512
16.1805459383
16.1892344684
16.1975662984
16.2055776181
16.2133528106
16.2210560195
16.2289821472
16.2376614308
16.2478888965
16.2607121095
16.2773966576
16.299651404
16.3309792252
16.3589555607
-2.44481386466
-2.45906724191
-2.48064210497
-2.50664917865
-2.53887126097
-2.58065475232
-2.6348126418
-2.70351414602
-2.78832513561
-2.89033474443
-3.01021811658
-3.14833322681
-3.30476240595
-3.47939671032
-3.67196084758
-3.88208831532
-4.10933282473
-4.35323321888
-4.61331201635
-4.88912846298
-5.18026424518
-5.48636645254
-5.8071216422
-6.14228868421
-6.4916647237
-6.8551126455
-7.23252048221
-7.62382676664
-8.02897572803
-8.44794438556
-8.8806964501
-9.32721184229
-9.78743971449
-10.2613298734
-10.7487828835
-11.2496795025
-11.7638253373
-12.2909747083
-12.8307604853
-13.3827004663
-13.9461188103
-14.5201484998
-15.1036444137
-15.6951522063
-16.2927548487
-16.8939828534
-17.4957708813
-18.0945304992
-18.6861069758
-19.2655973385
-19.8273070373
-20.3648004241
-20.8709962241
-21.3385587186
-21.7604433202
-22.1303029542
-22.4425321304
-22.6921359201
-22.8744095685
-22.9847252206
-23.01864581
-22.9717782377
-22.839296001
-22.6168818096
-22.3024938432
-21.8951539042
-21.3929247919
-20.7929901
-20.0915157311
-19.2837252228
-18.3642849064
-17.3279618429
-16.170513846
-14.8897628026
-13.4868072762
-11.9670369695
-10.3407068845
-8.62311733027
-6.83439352721
-4.99839077004
-3.14115252675
-1.28974576109
0.529024505936
2.29068350084
3.9744941739
5.56305787093
7.0424779901
8.40398125354
9.64360374035
10.759711802
11.7534531125
12.6301349909
13.3972731005
14.0628396309
14.6354368231
15.1240947303
15.5391627005
15.889640942
16.1843666546
16.4288605498
16.632882257
16.8035368044
16.9416907804
17.049889176
17.1325318677
17.1932787156
17.2348521395
17.2583510879
17.2649805644
17.2573431945
17.2382639924
17.2099893897
17.1743304595
17.1328546244
17.086988489
17.037973736
16.9868808114
16.934582542
16.8817976193
16.8290834773
16.7768813925
16.7255209072
16.6752771366
16.6263718935
16.5790120437
16.5333461143
16.4895084703
16.4476012338
16.4076828783
16.3697779339
16.3339256551
16.3001444434
16.2684617424
16.2388818477
16.2114039782
16.1860051862
16.1626725317
16.1414027642
16.1221967181
16.1050384576
16.0899124474
16.076802182
16.0656586542
16.0564310381
16.0490975999
16.0436271431
16.0399751692
16.03808077
16.0378723846
16.0392635978
16.0421430656
16.0463796727
16.0518298587
16.0583443002
16.0657715329
16.0739627172
16.0827724217
16.0920629835
16.1017040003
16.1115746207
16.1215619507
16.1315642471
16.1414870244
16.1512474548
16.1607708728
16.1699966781
16.1788752511
16.1873754147
16.195486549
16.2032351867
16.2106921825
16.2180080012
16.2254563592
16.2335049828
16.2428386603
16.2543281183
16.2690882214
16.2884149507
16.314824165
16.3412653501
-2.46332475952
-2.48259511095
-2.51175936433
-2.54998029113
-2.59778660343
-2.65636492056
-2.72717314618
-2.81161586921
-2.91087023761
-3.02583965777
-3.15712515293
-3.30507504608
-3.46980106351
-3.65125064717
-3.84922443004
-4.06344773385
-4.29357807317
-4.5392678132
-4.80015869431
-5.07593314934
-5.36629667116
-5.67101700076
-5.98989676663
-6.32280393237
-6.66963596578
-7.03034567811
-7.40490168074
-7.7933124265
-8.19558507444
-8.6117525438
-9.04183248286
-9.48585868436
-9.94384001711
-10.4157943766
-10.901703073
-11.4015414665
-11.9152274158
-12.4426432362
-12.9835638476
-13.5376568276
-14.1044009115
-14.6830843108
-15.2727169623
-15.8719874515
-16.4790784107
-17.0915375068
-17.7062408941
-18.3194969382
-18.9270122328
-19.5235859677
-20.103048382
-20.6583445438
-21.1816784253
-21.6650925197
-22.1011785357
-22.4834117805
-22.8059282996
-23.0634578342
-23.251306823
-23.3651859039
-23.4010353407
-23.3545405969
-23.2209104876
-22.9971529643
-22.6831446756
-22.2791790166
-21.7842397386
-21.1961081686
-20.5111307194
-19.7241381931
-18.8287337941
-17.8179882671
-16.6854344406
-15.4262742709
-14.0389342685
-12.5266092736
-10.8980867481
-9.16798363078
-7.35677979922
-5.48980537963
-3.59508985481
-1.70179433683
0.160709717438
1.96529481898
3.68922505663
5.31379057402
6.82386408458
8.20991954012
9.46821833769
10.5987319251
11.6026249007
12.4862762251
13.2580714486
13.9274553953
14.5057320311
15.0019261465
15.4263942192
15.7866742108
16.0933760486
16.352542102
16.5672027368
16.7428603489
16.8849019068
16.9972199091
17.083652705
17.1475552253
17.1915880717
17.2175319944
17.227068037
17.2224971879
17.2063337353
17.1807853238
17.147686326
17.1086174667
17.0649795884
17.0180034176
16.9687467985
16.9180943599
16.8667724179
16.8153591724
16.7643105873
16.7139800831
16.6646585963
16.6165891854
16.5699812392
16.524998811
16.4817780303
16.4404221812
16.4010017734
16.3635606589
16.3281455884
16.2947797408
16.263470461
16.2342195001
16.207038015
16.1819338313
16.1589087914
16.1379466488
16.1190367268
16.1021640132
16.0873120247
16.0744553477
16.0635546275
16.0545657642
16.0474575359
16.0421910355
16.0387178038
16.0369737669
16.0368841814
16.0383572464
16.0412834535
16.0455347128
16.0509735857
16.0574546952
16.0648322654
16.0729600417
16.0816971436
16.0909071571
16.100462251
16.1102406721
16.1201300737
16.1300259534
16.1398338448
16.1494675419
16.1588514293
16.1679194809
16.1766184622
16.1849100233
16.1927778657
16.2002365474
16.2073452788
16.2142319928
16.2211280798
16.2284085983
16.2366074814
16.2463867867
16.2585234909
16.2738775548
16.2937752355
16.3131400179
-2.55907235293
-2.57977143602
-2.61267074476
-2.6579641525
-2.71560426083
-2.78593597731
-2.86951417298
-2.96695150327
-3.07881025928
-3.20555023333
-3.3474753497
-3.50475270693
-3.67740121673
-3.8653427339
-4.06840224169
-4.28636727132
-4.51898446278
-4.76601478886
-5.02722108871
-5.30241363409
-5.59142731481
-5.89415804455
-6.21053097285
-6.54052838934
-6.88415370356
-7.24145471581
-7.61248512985
-7.99732899889
-8.39606278268
-8.8087836715
-9.23557383575
-9.6765346285
-10.1317516105
-10.6013308206
-11.0853582996
-11.5839319535
-12.0971119219
-12.6249417492
-13.1673738038
-13.7242618905
-14.2952737397
-14.8798844293
-15.4772877611
-16.0863453668
-16.7053701589
-17.3319512424
-17.9629014709
-18.5943926714
-19.2219339277
-19.8399399776
-20.4416075001
-21.0190335943
-21.5634793915
-22.0662185255
-22.5193272984
-22.9158340923
-23.2493679247
-23.5145257094
-23.7069130542
-23.8227513687
-23.8583294544
-23.8092725198
-23.6709079813
-23.4425302714
-23.1267309791
-22.7250059917
-22.2376442064
-21.663426919
-20.9992904707
-20.2399556055
-19.3778831513
-18.4039371403
-17.3085463781
-16.083047352
-14.7216217366
-13.223744946
-11.5957725391
-9.85125402371
-8.01116248833
-6.10339527592
-4.15942299258
-2.21208800897
-0.294944523634
1.56132818775
3.3312089273
4.994831828
6.53758283175
7.94908775029
9.22558813826
10.3694084137
11.3836269976
12.2781406264
13.0613955538
13.7435159046
14.3353501485
14.8463354626
15.2881539786
15.6664601629
15.9862054613
16.2539343409
16.4762906742
16.6590586812
16.8073428746
16.9252989271
17.0166669384
17.0847966805
17.1324839026
17.1619473783
17.175178992
17.17439595
17.161904931
17.1398454594
17.1100406974
17.0740819966
17.0333458554
16.9890564934
16.9422548295
16.8938369757
16.8445300097
16.7949366924
16.7455220341
16.696671645
16.6486877813
16.6018414844
16.5563431979
16.5123788654
16.4700826621
16.4295742504
16.3909268304
16.3542069829
16.3194541991
16.2867069686
16.2559748909
16.2272756416
16.2006136934
16.1760037168
16.1534434179
16.1329306105
16.1144522152
16.0979966325
16.0835401523
16.0710545453
16.0604997764
16.0518366451
16.0450264339
16.0400275704
16.0367859813
16.0352376182
16.0353034495
16.0368923757
16.0398948246
16.0441890135
16.0496404673
16.0561106356
16.0634561689
16.0715364067
16.0802115061
16.0893487084
16.0988193315
16.1085037178
16.1182877058
16.1280672959
16.1377446488
16.1472322607
16.1564492222
16.1653260994
16.1738018088
16.1818309931
16.1893855419
16.1964669237
16.203113256
16.2094213418
16.2155657265
16.221823243
16.2285677938
16.2362346296
16.2452468204
16.2559259609
16.2684205873
16.2775780512
-2.71852784285
-2.73896149367
-2.77347245702
-2.82258526976
-2.88589035369
-2.96339117508
-3.05515071549
-3.16127237351
-3.28184881583
-3.41694356384
-3.56655211861
-3.73062078662
-3.90902625841
-4.10161576595
-4.30819445208
-4.52857378865
-4.76255715173
-5.00998671258
-5.27072202726
-5.54468048657
-5.83180850216
-6.13211290216
-6.44562684028
-6.77243504387
-7.11263571718
-7.46636338124
-7.83375174877
-8.21495769614
-8.61012734377
-9.01942567508
-9.44300632125
-9.88104798713
-10.3337254949
-10.8012489822
-11.2838277598
-11.7817029669
-12.2951007115
-12.8242517812
-13.3693152527
-13.9303635811
-14.5072858112
-15.0997728244
-15.7072287281
-16.3287182429
-16.9627264282
-17.6069274376
-18.2580788813
-18.9121591129
-19.5643790483
-20.2086609621
-20.8373826683
-21.4415928047
-22.0114562634
-22.537341519
-23.0105781622
-23.4233637093
-23.7685830083
-24.040895548
-24.2364721687
-24.3519314556
-24.3835987152
-24.3269755406
-24.1782806369
-23.9398941432
-23.6176989763
-23.2147669012
-22.733087201
-22.1730012133
-21.532655588
-20.8071345136
-19.9877521456
-19.0624320276
-18.0172220146
-16.8380462742
-15.5130339714
-14.0362018103
-12.4106386171
-10.648938799
-8.77369291451
-6.81763512478
-4.81730889864
-2.81024115647
-0.833733594157
1.07751246884
2.89438436263
4.59539950096
6.16831163929
7.6048056441
8.90283187668
10.0681844533
11.1019451669
12.0161442804
12.818224702
13.5203728872
14.1362024752
14.6702986887
15.1286089046
15.5195956638
15.8508056567
16.129096584
16.3609001788
16.5520384052
16.7076706967
16.8321947372
16.9294740082
17.0029174547
17.0554612564
17.0895745753
17.1074753445
17.1113658943
17.1034445832
17.0857569213
17.0601093411
17.0280731005
16.9910219964
16.9501582958
16.9065242559
16.861009072
16.8143549335
16.7671724134
16.7199528553
16.6730980771
16.6269406176
16.5817628384
16.5377964571
16.49523407
16.4542275668
16.4149010531
16.3773456911
16.3416345654
16.307819603
16.275942427
16.2460267043
16.2180936824
16.1921557608
16.1682266422
16.1463104626
16.1264073781
16.1085084186
16.0926004104
16.0786580046
16.0666504762
16.0565390188
16.0482850854
16.0418472798
16.0371807418
16.0342291501
16.0329269401
16.03319411
16.0349394737
16.0380554821
16.0424241385
16.0479154478
16.0543956568
16.061725772
16.0697692798
16.0783895194
16.0874565048
16.0968431309
16.1064310588
16.1161060519
16.1257635394
16.1353034629
16.1446355478
16.1536741368
16.1623444968
16.1705783178
16.1783209941
16.1855309062
16.1921917986
16.1983157566
16.2039601905
16.2092350838
16.2143136884
16.2194088106
16.2247234327
16.2303403505
16.2360279669
16.24094268
16.2394458982
-2.91676363133
-2.93636404982
-2.97137636964
-3.02214166842
-3.08817461444
-3.16939354699
-3.26561175539
-3.37664989634
-3.50230891518
-3.64238137157
-3.79663071677
-3.96481894195
-4.14668849
-4.3420005031
-4.55051683029
-4.77204252323
-5.00640399446
-5.25348959313
-5.51322210893
-5.78559333318
-6.07063048794
-6.36842481836
-6.67909348636
-7.00280250529
-7.33972871459
-7.69008057468
-8.05406220229
-8.43189781086
-8.82380072676
-9.23000427503
-9.65073620597
-10.0862572211
-10.536837596
-11.0027980582
-11.4844791135
-11.9822742879
-12.496584926
-13.0278394753
-13.5764173291
-14.142626349
-14.7265940242
-15.3282377913
-15.9471726924
-16.5826647441
-17.2333932944
-17.89716786
-18.5706996718
-19.2496951004
-19.9289439703
-20.6018695888
-21.2600145381
-21.8934326157
-22.4912496374
-23.0427981895
-23.5382353586
-23.9682977906
-24.3249449633
-24.6029800269
-24.7991703539
-24.9100708708
-24.9313234688
-24.8582606447
-24.6910035126
-24.4366677112
-24.1032077892
-23.6955235111
-23.2178706369
-22.6726444739
-22.0594674881
-21.3739581909
-20.6061493759
-19.7402521
-18.7567885955
-17.6350131915
-16.3559144575
-14.9073239194
-13.2890227721
-11.5128948396
-9.60401080896
-7.59965927274
-5.54326418183
-3.47944862533
-1.44950959384
0.510869238981
2.37196444842
4.11103678351
5.71958449009
7.18874526495
8.5158464247
9.70868748279
10.7699624669
11.7123334347
12.546260312
13.2777044831
13.9139898343
14.4649827008
14.9388469347
15.3438425324
15.6876455033
15.9773390176
16.2194491524
16.4198929593
16.5839364853
16.7161411545
16.8205021972
16.9005041178
16.9591982949
16.9992078603
17.0228994458
17.0324857061
17.0301076554
17.0177320677
16.9971397815
16.9698765205
16.9373157362
16.9006425624
16.860903824
16.8189814588
16.7756350853
16.7314801385
16.6870388916
16.6427272085
16.5989110761
16.5558815078
16.5138971877
16.4731554146
16.4338321651
16.3960542369
16.3599357971
16.3255522675
16.2929752607
16.2622464387
16.2334081203
16.2064808034
16.1814908118
16.158449133
16.137370025
16.1182522166
16.1010929009
16.0858751569
16.0725763327
16.0611628011
16.0515993467
16.0438455168
16.0378610026
16.0335969919
16.0309982662
16.0299964698
16.0305139284
16.032458263
16.0357267708
16.0402032407
16.045764705
16.0522802468
16.059617902
16.0676433615
16.0762257677
16.0852358632
16.0945505141
16.1040503077
16.1136229532
16.1231607534
16.1325632486
16.1417347422
16.1505866472
16.159035732
16.1670070034
16.1744334079
16.1812595822
16.1874461678
16.19297672
16.1978624203
16.2021460975
16.2058943703
16.209165628
16.2119391563
16.2139821366
16.2145907022
16.2121803604
16.20077666
-3.12741682103
-3.14598295764
-3.18081698624
-3.23187800777
-3.29880834055
-3.38153288804
-3.47973982252
-3.59310408415
-3.72125958702
-3.86383163116
-4.02042995994
-4.19068591504
-4.37423892824
-4.57077677979
-4.78001638796
-5.00174401545
-5.23578960721
-5.48206375813
-5.74052553081
-6.01121430048
-6.29421256449
-6.58967078327
-6.89776818458
-7.21873362663
-7.55280623268
-7.90025570734
-8.26134748223
-8.63636630347
-9.02558827279
-9.42931209473
-9.8478377453
-10.2815057668
-10.7306787505
-11.195784145
-11.6772883142
-12.1757301584
-12.6916782604
-13.2257483057
-13.778529612
-14.3505589447
-14.9421997378
-15.5535896237
-16.1845331278
-16.834462706
-17.5022491093
-18.1859094154
-18.8822123576
-19.5866538329
-20.2936541441
-20.9963825192
-21.6857667517
-22.3509948884
-22.979936948
-23.5601075498
-24.0792784816
-24.5257796602
-24.8909970643
-25.1700673715
-25.3597151131
-25.4558343199
-25.4537444917
-25.3508824198
-25.1565913589
-24.883268725
-24.5368868317
-24.1242462589
-23.6518368972
-23.1236309094
-22.5399210926
-21.8963793756
-21.1816613984
-20.3766531619
-19.4575790715
-18.3977670984
-17.1713197212
-15.7594158542
-14.1570081464
-12.3764837598
-10.4466189031
-8.40972261838
-6.31243883022
-4.20257856815
-2.12555945478
-0.11750366828
1.79037781395
3.57010855747
5.21579345983
6.72087944528
8.08377735486
9.31360148354
10.4144286195
11.3909059012
12.2510203854
13.0046974924
13.661104214
14.2297500109
14.7195147816
15.1388915636
15.4958113793
15.7975663996
16.0508073965
16.2615413997
16.4351061776
16.5761826105
16.6888526407
16.7766902189
16.8428179239
16.8899750636
16.920604211
16.9369528484
16.9411145931
16.9350182166
16.9203997435
16.8987974474
16.871565936
16.8398934527
16.8048161753
16.7672256369
16.7278825487
16.6874245531
16.6463872502
16.605218262
16.5642985289
16.5239457929
16.4844299334
16.4459712843
16.4087554688
16.3729296078
16.338616714
16.3059103718
16.2748893972
16.2456106056
16.2181225806
16.1924582241
16.1686479582
16.1467115917
16.1266655226
16.108513968
16.0922549899
16.0778733658
16.0653472574
16.0546450199
16.0457329073
16.0385718055
16.0331213178
16.0293325421
16.027150236
16.0265066187
16.0273251703
16.0295154711
16.0329781209
16.0376010383
16.0432663827
16.0498481151
16.0572194788
16.0652502833
16.0738138104
16.0827833366
16.0920382037
16.1014595747
16.1109357153
16.120357287
16.1296221116
16.1386302501
16.1472885647
16.1555061188
16.1631991104
16.1702875673
16.1767001801
16.1823729436
16.1872567801
16.1913142373
16.1945184146
16.1968319555
16.1981669203
16.1982980734
16.1967168094
16.1923405665
16.1830890728
16.1629178471
-3.3255661466
-3.34324053136
-3.3776983224
-3.42848172147
-3.49546271897
-3.57857302553
-3.67743570005
-3.79165926594
-3.92078841859
-4.0643540851
-4.22187466552
-4.39289970897
-4.57700095687
-4.77381488114
-4.9830238507
-5.2043959188
-5.43775735381
-5.68302780461
-5.94018639676
-6.20930138722
-6.49049095072
-6.78394657811
-7.08989183134
-7.40860215325
-7.74036574907
-8.08550256283
-8.44432976581
-8.81718544597
-9.20440173534