/*--------------------------------*- C++ -*----------------------------------*\
| =========                 |                                                 |
| \\      /  F ield         | OpenFOAM: The Open Source CFD Toolbox           |
|  \\    /   O peration     | Version:  v1806                                 |
|   \\  /    A nd           | Web:      www.OpenFOAM.com                      |
|    \\/     M anipulation  |                                                 |
\*---------------------------------------------------------------------------*/
FoamFile
{
    version     2.0;
    format      ascii;
    class       surfaceScalarField;
    location    "8";
    object      phi;
}
// * * * * * * * * * * * * * * * * * * * * * * * * * * * * * * * * * * * * * //

dimensions      [0 3 -1 0 0 0 0];
oriented        oriented;


internalField   nonuniform List<scalar> 
24170
(
3.07350346941e-06
1.14902153061e-07
2.98686657071e-06
8.66365254373e-08
2.90699823092e-06
7.98686948577e-08
2.83043077463e-06
7.65685541313e-08
2.75721201266e-06
7.32195429261e-08
2.68738652652e-06
6.98266460267e-08
2.62083796616e-06
6.65494397431e-08
2.55738761756e-06
6.34514761061e-08
2.49683517175e-06
6.05534321684e-08
2.43897068128e-06
5.7865586145e-08
2.38357323951e-06
5.53984302239e-08
2.33040691694e-06
5.31673215139e-08
2.27921243711e-06
5.1195413703e-08
2.22969190653e-06
4.95214259168e-08
2.18147302298e-06
4.82196409109e-08
2.13400556416e-06
4.7467962475e-08
2.08605932819e-06
4.79464670701e-08
5.07904679755e-08
2.03526941742e-06
3.43168615831e-06
1.00463774809e-07
3.42690848878e-06
9.14132541052e-08
3.42024324701e-06
8.65337575583e-08
3.41083790944e-06
8.59743912641e-08
3.39907740559e-06
8.49804038386e-08
3.3855474396e-06
8.33572739444e-08
3.37064444797e-06
8.14529300589e-08
3.35463244714e-06
7.94641489172e-08
3.33769580521e-06
7.74906658794e-08
3.31996357287e-06
7.55984653884e-08
3.30151673275e-06
7.38458344011e-08
3.2823890778e-06
7.22955215495e-08
3.26256164891e-06
7.10233153623e-08
3.24194915832e-06
7.0134331031e-08
3.22036838671e-06
6.98006887947e-08
3.19748291913e-06
7.03535097215e-08
3.1729178509e-06
7.25113497632e-08
7.66172337032e-08
3.14709148131e-06
3.68016577507e-06
8.28147782111e-08
3.684798123e-06
8.67809964577e-08
3.68778721836e-06
8.35452550635e-08
3.68980886481e-06
8.39538296175e-08
3.69067228209e-06
8.411786497e-08
3.69053630365e-06
8.34943387009e-08
3.68953597711e-06
8.24541534158e-08
3.6877419024e-06
8.12592461151e-08
3.68518700883e-06
8.00464853058e-08
3.68188281852e-06
7.89036264185e-08
3.67782283789e-06
7.79067076681e-08
3.67298130985e-06
7.71379369247e-08
3.66730767862e-06
7.66977862241e-08
3.66071882065e-06
7.67240015276e-08
3.65309221897e-06
7.74280258795e-08
3.64429003053e-06
7.91563242651e-08
3.63431689959e-06
8.24851088287e-08
8.73540053912e-08
3.62358132717e-06
3.93985164105e-06
6.83502629771e-08
3.94613933068e-06
8.04925514165e-08
3.95003804945e-06
7.96463830776e-08
3.95330346652e-06
8.06887891302e-08
3.95582846949e-06
8.15932329451e-08
3.95768061274e-06
8.16427655905e-08
3.95896557446e-06
8.11697010236e-08
3.95973929009e-06
8.04861412279e-08
3.96001742378e-06
7.97689345912e-08
3.95979210634e-06
7.91295485847e-08
3.95903911491e-06
7.86602627943e-08
3.95772046028e-06
7.84571389352e-08
3.95578391985e-06
7.86348339134e-08
3.95316374997e-06
7.93446541727e-08
3.9497901375e-06
8.0802070855e-08
3.94562910234e-06
8.33177585782e-08
3.94079679574e-06
8.73178106839e-08
9.28012984869e-08
3.93535021339e-06
4.21868698863e-06
5.67905812787e-08
4.22546297872e-06
7.37169606153e-08
4.22953274755e-06
7.55773611291e-08
4.23290241821e-06
7.73202210314e-08
4.23565309781e-06
7.88435219621e-08
4.23780136744e-06
7.94955914092e-08
4.23942922991e-06
7.95427999576e-08
4.24059317818e-06
7.93232290437e-08
4.24131385707e-06
7.90492158071e-08
4.2415884226e-06
7.88559675622e-08
4.24139879495e-06
7.8850811116e-08
4.24071634503e-06
7.91405104862e-08
4.23950486003e-06
7.98472034584e-08
4.23772650366e-06
8.11238884383e-08
4.23535789886e-06
8.31715264514e-08
4.23242740842e-06
8.62490644068e-08
4.22908482922e-06
9.06613184433e-08
9.64873019291e-08
4.22540016119e-06
4.51829652499e-06
4.758022671e-08
4.52510066588e-06
6.6912278775e-08
4.52934266585e-06
7.13353460138e-08
4.53277070015e-06
7.38925072992e-08
4.53563345579e-06
7.59811963361e-08
4.53792536924e-06
7.72042061013e-08
4.53969696003e-06
7.77717773454e-08
4.54099746046e-06
7.80233322269e-08
4.54185024072e-06
7.81970726625e-08
4.54225805921e-06
7.84487768384e-08
4.54221076937e-06
7.88987527349e-08
4.54169109961e-06
7.96608023761e-08
4.5406801513e-06
8.08587802414e-08
4.5391664206e-06
8.26382463378e-08
4.53716394842e-06
8.51746525387e-08
4.53474413485e-06
8.86696120639e-08
4.53208180405e-06
9.33244458856e-08
9.91911687034e-08
4.52937881667e-06
4.84005934486e-06
4.02413510174e-08
4.84660129519e-06
6.03710019747e-08
4.85098781067e-06
6.69497343571e-08
4.85448341133e-06
7.03979620012e-08
4.85743660093e-06
7.30290471336e-08
4.85984942388e-06
7.47924272935e-08
4.86174658323e-06
7.58756336577e-08
4.86316722881e-06
7.6603690066e-08
4.86413587706e-06
7.72294169784e-08
4.86466074854e-06
7.79248742788e-08
4.8647399039e-06
7.88205515209e-08
4.86436780354e-06
8.00338379926e-08
4.86354254372e-06
8.16849638653e-08
4.86227649998e-06
8.39052147081e-08
4.86061371748e-06
8.68383906506e-08
4.8586544373e-06
9.06298356045e-08
4.85658116284e-06
9.5398750483e-08
1.01148770227e-07
4.85462508519e-06
5.18545086298e-06
3.43708957158e-08
5.19155441126e-06
5.42673024254e-08
5.19602058567e-06
6.24836757506e-08
5.1995916477e-06
6.68272551699e-08
5.20263368157e-06
6.99874385002e-08
5.20516957904e-06
7.22570681948e-08
5.20720651884e-06
7.38392514213e-08
5.20877189e-06
7.50389575644e-08
5.20988909336e-06
7.61128535458e-08
5.21057100888e-06
7.72436606715e-08
5.21082396073e-06
7.85683133056e-08
5.21065446507e-06
8.0204062372e-08
5.21007726624e-06
8.22628915288e-08
5.20912614654e-06
8.4857106894e-08
5.20786876476e-06
8.80965788398e-08
5.20642398459e-06
9.20755381008e-08
5.20497586293e-06
9.68479822147e-08
1.02366050992e-07
5.20375958105e-06
5.55606370179e-06
2.96455319128e-08
5.56164248014e-06
4.86894012204e-08
5.5661117564e-06
5.801536796e-08
5.56975707667e-06
6.31829456645e-08
5.57289185486e-06
6.68536473395e-08
5.57555670067e-06
6.95932012329e-08
5.57774889274e-06
7.16480189561e-08
5.57948435221e-06
7.33044501028e-08
5.58078395134e-06
7.48141990835e-08
5.58166468708e-06
7.63638708913e-08
5.58214144232e-06
7.80925018528e-08
5.58223303851e-06
8.01133853525e-08
5.58197013495e-06
8.25267212714e-08
5.58140485299e-06
8.54233136493e-08
5.58062215569e-06
8.88802582937e-08
5.57975006892e-06
9.29486070915e-08
5.57896363605e-06
9.76353822386e-08
1.02862565529e-07
5.57846858338e-06
5.95361991912e-06
2.58014670527e-08
5.95865425991e-06
4.36550705438e-08
5.96305646397e-06
5.36133315491e-08
5.96676613858e-06
5.94735202607e-08
5.97000004814e-06
6.362009009e-08
5.97280384529e-06
6.67897965787e-08
5.97517007416e-06
6.92822759225e-08
5.97710514905e-06
7.13698875991e-08
5.97862683179e-06
7.32931251484e-08
5.97975563059e-06
7.52357079745e-08
5.98051464216e-06
7.73341927431e-08
5.98093429735e-06
7.96944535076e-08
5.98105919492e-06
8.2402627564e-08
5.98095572561e-06
8.55276059692e-08
5.98071966527e-06
8.91171788914e-08
5.98048073813e-06
9.31884646502e-08
5.98040081524e-06
9.77164221545e-08
1.02605879669e-07
5.98065829648e-06
6.3799791057e-06
2.26355989305e-08
6.3844948003e-06
3.91404035816e-08
6.38877810025e-06
4.9330970256e-08
6.39253898216e-06
5.57135665721e-08
6.39588096527e-06
6.02789533271e-08
6.39883922609e-06
6.38324005764e-08
6.40140323182e-06
6.6719084363e-08
6.40357229468e-06
6.92016854978e-08
6.40536092884e-06
7.15053125968e-08
6.40679236156e-06
7.38051807432e-08
6.40789680536e-06
7.62306205296e-08
6.40871475869e-06
7.88774697969e-08
6.40930186907e-06
8.18164402807e-08
6.409734302e-06
8.50961625531e-08
6.41011275882e-06
8.8739722485e-08
6.41056269622e-06
9.27395347698e-08
6.41122872275e-06
9.70512379271e-08
1.0157760304e-07
6.41225819655e-06
5.74311404052e-06
2.03562083772e-08
5.74656900435e-06
3.56860324804e-08
5.75007321059e-06
4.58273886874e-08
5.75328197354e-06
5.25054848231e-08
5.75619850782e-06
5.73631053938e-08
5.75883407459e-06
6.1197568845e-08
5.76117653879e-06
6.43773719373e-08
5.7632211402e-06
6.71578766363e-08
5.76497769545e-06
6.97496550082e-08
5.76646694754e-06
7.23168218982e-08
5.76771867041e-06
7.49798667587e-08
5.76877288262e-06
7.78242040406e-08
5.76968261029e-06
8.09080362494e-08
5.77051605841e-06
8.42638260764e-08
5.77135834307e-06
8.78987217893e-08
5.77230921403e-06
9.17898130532e-08
5.77347830637e-06
9.58835371996e-08
1.00082100705e-07
5.77497472444e-06
7.00041151204e-06
1.81013471212e-08
7.0040049725e-06
3.20935028459e-08
7.00787521324e-06
4.19580224054e-08
7.0115750975e-06
4.8806381142e-08
7.01502696225e-06
5.39120356544e-08
7.01821572485e-06
5.80095428006e-08
7.02112117137e-06
6.14726967595e-08
7.023733842e-06
6.45460161059e-08
7.02606258097e-06
6.74217278283e-08
7.02813195854e-06
7.02483021442e-08
7.02997948668e-06
7.31331738898e-08
7.03165593309e-06
7.61489674477e-08
7.03322577272e-06
7.93392971936e-08
7.03476902731e-06
8.27220843571e-08
7.0363795704e-06
8.62895050962e-08
7.03816262482e-06
9.00083507969e-08
7.04022710577e-06
9.38202425596e-08
9.76348598616e-08
7.04267564293e-06
8.533068551e-06
1.58806075021e-08
8.53677290463e-06
2.83901182543e-08
8.54100653782e-06
3.77253409292e-08
8.5452522011e-06
4.45618293869e-08
8.54934388071e-06
4.98212289702e-08
8.55322625095e-06
5.41282266469e-08
8.55686470216e-06
5.7835113667e-08
8.5602430009e-06
6.11687374046e-08
8.56336760727e-06
6.42980460164e-08
8.56626570776e-06
6.73512363832e-08
8.56898161455e-06
7.04180909979e-08
8.57157526262e-06
7.35564521455e-08
8.57412096778e-06
7.67948805329e-08
8.57670646549e-06
8.0138031961e-08
8.57943027013e-06
8.3567237319e-08
8.58239657306e-06
8.70435589241e-08
8.58570856009e-06
9.05097987899e-08
9.38866446845e-08
8.58945804315e-06
1.04014257057e-05
1.36750040809e-08
1.04052545736e-05
2.45623187438e-08
1.04098787248e-05
3.31023788949e-08
1.04147506391e-05
3.96908841978e-08
1.04196237982e-05
4.49493969112e-08
1.04243916531e-05
4.93613171831e-08
1.04289977602e-05
5.32303626625e-08
1.0433414894e-05
5.67526231878e-08
1.04376450871e-05
6.00693099614e-08
1.04417146671e-05
6.3282285378e-08
1.04456723713e-05
6.64617432431e-08
1.04495824277e-05
6.96470926078e-08
1.04535246548e-05
7.28542062964e-08
1.04575877626e-05
7.60759680574e-08
1.04618683066e-05
7.92883813254e-08
1.04664619658e-05
8.24511711258e-08
1.04714595638e-05
8.55137205491e-08
8.84105925265e-08
1.04769367111e-05
1.26790474657e-05
1.14185838389e-08
1.26830889251e-05
2.05219602992e-08
1.26882076527e-05
2.79847236969e-08
1.26938586957e-05
3.40411100612e-08
1.26997316602e-05
3.90774513664e-08
1.27056659319e-05
4.34284165688e-08
1.27115738586e-05
4.73235040104e-08
1.27174127137e-05
5.09153166089e-08
1.27231737744e-05
5.43090865647e-08
1.2728879525e-05
5.75780267086e-08
1.27345739833e-05
6.07677160253e-08
1.27403213906e-05
6.390115465e-08
1.27461956362e-05
6.69805457389e-08
1.27522805413e-05
6.99926511282e-08
1.27586590706e-05
7.29106631452e-08
1.27654127552e-05
7.56990703325e-08
1.27726112397e-05
7.83161020548e-08
8.07129266447e-08
1.27803101791e-05
1.54556217238e-05
8.97798745486e-09
1.5460084233e-05
1.60606377027e-08
1.54659450945e-05
2.21248825062e-08
1.54726698893e-05
2.73173191034e-08
1.54799006179e-05
3.1847718726e-08
1.54874233101e-05
3.59067587258e-08
1.54951135905e-05
3.96343121658e-08
1.55029044836e-05
4.31255475197e-08
1.55107709214e-05
4.64437862951e-08
1.55187206817e-05
4.96291285588e-08
1.55267866999e-05
5.27026877586e-08
1.55350189576e-05
5.5669737499e-08
1.55434780986e-05
5.85224821057e-08
1.55522285286e-05
6.12431835293e-08
1.556133337e-05
6.38069964043e-08
1.55708484947e-05
6.61849703545e-08
1.55808190379e-05
6.8346756633e-08
7.02592077259e-08
1.55912734535e-05
1.88405013882e-05
6.11503840421e-09
1.88457877927e-05
1.0775152198e-08
1.88528813121e-05
1.50321006149e-08
1.88612247085e-05
1.89746409598e-08
1.8870408919e-05
2.26642126535e-08
1.88801664175e-05
2.61499668766e-08
1.88903306081e-05
2.94709579319e-08
1.89008020477e-05
3.26548413107e-08
1.89115296213e-05
3.57171779691e-08
1.89224966784e-05
3.86627068501e-08
1.89337132933e-05
4.1487135434e-08
1.89452045628e-05
4.41790959455e-08
1.89570063871e-05
4.67219002019e-08
1.89691549136e-05
4.90954013142e-08
1.89816857809e-05
5.1277659091e-08
1.89946249002e-05
5.32467269752e-08
1.90079913805e-05
5.49821996642e-08
5.64638245874e-08
1.90217876351e-05
2.29670886641e-05
2.36445141496e-09
2.29739750249e-05
3.88928449268e-09
2.29832332473e-05
5.77448961217e-09
2.29941798408e-05
8.02841342191e-09
2.3006317973e-05
1.05266459287e-08
2.30193183293e-05
1.31500101994e-08
2.30329673547e-05
1.58226328998e-08
2.30471242505e-05
1.84983515212e-08
2.30617023719e-05
2.11399885789e-08
2.30766499869e-05
2.37154671615e-08
2.30919448578e-05
2.6193443735e-08
2.31075771207e-05
2.85471189737e-08
2.31235496455e-05
3.07508241714e-08
2.31398621031e-05
3.27833000912e-08
2.31565169913e-05
3.46245481104e-08
2.31735047546e-05
3.62593172242e-08
2.31908146963e-05
3.76745251209e-08
3.8860562633e-08
2.32084179854e-05
1.68139887912e-05
-9.19018573929e-10
1.68198748859e-05
-1.99676359416e-09
1.68276030656e-05
-1.9532637831e-09
1.68365610743e-05
-9.30077698485e-10
1.68463714017e-05
7.17216347147e-10
1.68568044785e-05
2.71596533089e-09
1.68677138025e-05
4.91477709289e-09
1.68789912134e-05
7.21974184861e-09
1.68905702945e-05
9.56297229468e-09
1.6902399651e-05
1.18848325306e-08
1.69144555418e-05
1.41399900643e-08
1.69267120423e-05
1.62892859217e-08
1.69391605119e-05
1.83052707695e-08
1.69517798095e-05
2.01627803518e-08
1.69645619796e-05
2.18456710148e-08
1.69774817603e-05
2.33387256713e-08
1.69905253629e-05
2.46347394595e-08
2.57262234762e-08
1.70036596905e-05
1.46380757368e-05
-4.4256607164e-09
1.4644207845e-05
-8.12865179017e-09
1.46519546868e-05
-9.69998525065e-09
1.46606510915e-05
-9.62624670019e-09
1.46699827333e-05
-8.61500941805e-09
1.46797884067e-05
-7.08925098921e-09
1.46899530073e-05
-5.25093031758e-09
1.47003947922e-05
-3.22085250211e-09
1.47110533897e-05
-1.09670579684e-09
1.47218946805e-05
1.04503808612e-09
1.47328891373e-05
3.14452450489e-09
1.47440205031e-05
5.15981993541e-09
1.47552665985e-05
7.05822687687e-09
1.47666147323e-05
8.81697488204e-09
1.47780420719e-05
1.04177615096e-08
1.47895353287e-05
1.18483937255e-08
1.48010702604e-05
1.30997997638e-08
1.41675059905e-08
1.48126325648e-05
1.27440709337e-05
-8.36416770351e-09
1.27506585451e-05
-1.47157273783e-08
1.2758494272e-05
-1.75355780245e-08
1.27669126342e-05
-1.80444546085e-08
1.27757303778e-05
-1.74327280988e-08
1.27848651701e-05
-1.62243134584e-08
1.27942390486e-05
-1.4624595222e-08
1.28037898601e-05
-1.27720574429e-08
1.28134783759e-05
-1.07849745901e-08
1.28232786603e-05
-8.75539354127e-09
1.28331715179e-05
-6.74825411972e-09
1.28431399753e-05
-4.80840259579e-09
1.28531665551e-05
-2.96836077795e-09
1.28632345906e-05
-1.25030524085e-09
1.2873325314e-05
3.27470320339e-10
1.28834207559e-05
1.75426549243e-09
1.2893500163e-05
3.02171133707e-09
4.1280043783e-09
1.29035407228e-05
1.1095574298e-05
-1.30086264898e-08
1.11027923988e-05
-2.19332440474e-08
1.11106858444e-05
-2.5428302371e-08
1.11187514319e-05
-2.61096159018e-08
1.1127007077e-05
-2.5688031214e-08
1.11354409669e-05
-2.4658239642e-08
1.1144002171e-05
-2.31856048073e-08
1.11526537174e-05
-2.14234090082e-08
1.11613779911e-05
-1.95090075662e-08
1.11701642264e-05
-1.75417672049e-08
1.11790031679e-05
-1.55866335058e-08
1.11878807502e-05
-1.36868421311e-08
1.11967842438e-05
-1.18708967259e-08
1.12056941316e-05
-1.01613670178e-08
1.12145969635e-05
-8.5733876011e-09
1.12234731371e-05
-7.12240690371e-09
1.12323172858e-05
-5.81995728517e-09
-4.68027489328e-09
1.12411254203e-05
9.66094964757e-06
-1.87430229094e-08
9.66890357621e-06
-2.98863978372e-08
9.6767227096e-06
-3.32468282601e-08
9.68434106544e-06
-3.37273311522e-08
9.69199760936e-06
-3.334412077e-08
9.69971287777e-06
-3.23728358981e-08
9.70745368893e-06
-3.09259334566e-08
9.71520949724e-06
-2.91787747498e-08
9.7229834921e-06
-2.72825268843e-08
9.73077822592e-06
-2.53361452946e-08
9.73859137516e-06
-2.33996422609e-08
9.74641547247e-06
-2.15107242273e-08
9.75423844913e-06
-1.96943249031e-08
9.7620457241e-06
-1.79680107857e-08
9.76981836083e-06
-1.63459572716e-08
9.7775367769e-06
-1.48398635293e-08
9.78517879084e-06
-1.34611322124e-08
-1.2221192551e-08
9.79272051382e-06
8.41270143134e-06
-2.60910773511e-08
8.42134500299e-06
-3.85290672629e-08
8.42887641101e-06
-4.07773021411e-08
8.43597596669e-06
-4.0826255312e-08
8.44302817569e-06
-4.0395546799e-08
8.45004470068e-06
-3.93888852521e-08
8.45701607439e-06
-3.78965350924e-08
8.46395907534e-06
-3.61210088086e-08
8.47089155621e-06
-3.42143046175e-08
8.47782202207e-06
-3.2265887051e-08
8.48475035417e-06
-3.03276035729e-08
8.49167069289e-06
-2.84307809458e-08
8.49857230212e-06
-2.65958495092e-08
8.50544104001e-06
-2.48364182581e-08
8.51225891632e-06
-2.31633066509e-08
8.51900760962e-06
-2.1587583722e-08
8.52567450402e-06
-2.01282975896e-08
-1.88202495408e-08
8.53227468987e-06
7.3269182527e-06
-3.57241573037e-08
7.33595896658e-06
-4.75688783246e-08
7.34297206931e-06
-4.77897374854e-08
7.34950354729e-06
-4.73568232259e-08
7.35590291027e-06
-4.67942232965e-08
7.36216687323e-06
-4.56519258996e-08
7.3683316987e-06
-4.40605175362e-08
7.37444656796e-06
-4.22350074579e-08
7.38054276038e-06
-4.03096318678e-08
7.38663329569e-06
-3.83559412233e-08
7.39272006042e-06
-3.64136630702e-08
7.39879794104e-06
-3.45083377856e-08
7.40485652701e-06
-3.26539394059e-08
7.41088088136e-06
-3.08602161927e-08
7.41684955705e-06
-2.91312869626e-08
7.42273188898e-06
-2.74692842493e-08
7.42848776801e-06
-2.588405128e-08
-2.44146110673e-08
7.43408177984e-06
6.38281019237e-06
-4.84674801323e-08
6.39164811602e-06
-5.64059302488e-08
6.39808836339e-06
-5.42290787571e-08
6.40417369104e-06
-5.3442126838e-08
6.41001262227e-06
-5.2631817077e-08
6.41561203216e-06
-5.12506015584e-08
6.42105772798e-06
-4.95052868051e-08
6.42642044757e-06
-4.75968130157e-08
6.43173983282e-06
-4.56282453865e-08
6.43703434398e-06
-4.36495774479e-08
6.44231013273e-06
-4.16897580922e-08
6.44756759593e-06
-3.97646481802e-08
6.45279970909e-06
-3.78855189025e-08
6.45799604458e-06
-3.60558940114e-08
6.46313776029e-06
-3.42722430908e-08
6.46819040686e-06
-3.25213820745e-08
6.47309595484e-06
-3.07892571416e-08
-2.90940582485e-08
6.47777422224e-06
5.56201443923e-06
-6.50164332522e-08
5.56938119011e-06
-6.37716845963e-08
5.57495405634e-06
-5.98014576994e-08
5.58024740136e-06
-5.87349199587e-08
5.58511416282e-06
-5.74972282423e-08
5.58963028526e-06
-5.57656165149e-08
5.59391178028e-06
-5.37857529076e-08
5.59803040587e-06
-5.17144351111e-08
5.60202554094e-06
-4.96223654132e-08
5.60591939353e-06
-4.75434504173e-08
5.60972656335e-06
-4.54964116954e-08
5.61345616751e-06
-4.3493300158e-08
5.61711283025e-06
-4.15411719006e-08
5.62069847099e-06
-3.96407537437e-08
5.62420869379e-06
-3.77816315391e-08
5.62761811028e-06
-3.59299276769e-08
5.63083581596e-06
-3.40076890059e-08
-3.1799242918e-08
5.63354112882e-06
4.84598390808e-06
-8.33919946883e-08
4.84752892482e-06
-6.53156653866e-08
4.84797431132e-06
-6.02461779019e-08
4.84711862056e-06
-5.78785264361e-08
4.84504611703e-06
-5.54231892393e-08
4.84211867067e-06
-5.28368744569e-08
4.83859730776e-06
-5.02631847708e-08
4.83465156023e-06
-4.77674899563e-08
4.83040162205e-06
-4.5371526961e-08
4.82593983221e-06
-4.3081354023e-08
4.82134105808e-06
-4.08970749619e-08
4.81666614959e-06
-3.88171411848e-08
4.81196478194e-06
-3.68386262983e-08
4.80728020435e-06
-3.49551800006e-08
4.80265385753e-06
-3.31542164091e-08
4.79812712791e-06
-3.14026856449e-08
4.79373217403e-06
-2.96126002323e-08
-2.69880232554e-08
4.78892046553e-06
4.11928431859e-06
4.05396870928e-06
3.99372258366e-06
3.93584420688e-06
3.88042115311e-06
3.82758441391e-06
3.777321374e-06
3.72955401777e-06
3.68418253425e-06
3.64110124556e-06
3.60020437289e-06
3.56138744885e-06
3.52454901028e-06
3.48959404242e-06
3.45643999608e-06
3.42503733379e-06
3.39542462258e-06
3.36843690478e-06
4.23344238021e-08
-4.23458834144e-08
4.9943037678e-08
-7.62847279005e-09
2.14301359071e-08
2.8504735295e-08
-5.17771384315e-08
7.31935779988e-08
-1.51221756388e-07
9.944423424e-08
-2.64496821856e-07
1.13268779313e-07
-3.87803253562e-07
1.23309260973e-07
-5.18981128232e-07
1.31174464039e-07
-6.56382992146e-07
1.37405128031e-07
-7.98709604402e-07
1.4232453905e-07
-9.44876031755e-07
1.46169810479e-07
-1.09400541973e-06
1.49128182071e-07
-1.24535688128e-06
1.51354837978e-07
-1.39833860515e-06
1.5298138883e-07
-1.55245738664e-06
1.54122194615e-07
-1.7073336795e-06
1.5487674367e-07
-1.86266254356e-06
1.55332279562e-07
-2.01822574034e-06
1.5556410879e-07
-2.17385948073e-06
1.55636773674e-07
-2.32946248528e-06
1.556037458e-07
-2.48496812612e-06
1.555081363e-07
-2.64035031093e-06
1.55382424363e-07
-2.79559807592e-06
1.55249404612e-07
-2.95072069818e-06
1.55122288518e-07
-3.10572540314e-06
1.55005981088e-07
-3.26062388925e-06
1.54897881077e-07
-3.41541234726e-06
1.54789731799e-07
-3.57008166393e-06
1.54668725305e-07
-3.72460016708e-06
1.54519892709e-07
-3.87892798781e-06
1.54327422785e-07
-4.03300311924e-06
1.54077036286e-07
-4.18676007409e-06
1.53756968129e-07
-4.34011782119e-06
1.53360027364e-07
-4.49300090683e-06
1.52883646685e-07
-4.64532865178e-06
1.52330811037e-07
-4.79703631439e-06
1.51708773801e-07
-4.94806152512e-06
1.51028708326e-07
-5.09836274527e-06
1.50302695354e-07
-5.24790100099e-06
1.49542060813e-07
-5.39665240463e-06
1.48753208654e-07
-5.54458368964e-06
1.47935364311e-07
-5.69165759812e-06
1.47076182352e-07
-5.837803231e-06
1.46150059753e-07
-5.98291507775e-06
1.45114765273e-07
-6.12682171394e-06
1.43911457036e-07
-6.26928229703e-06
1.42464252131e-07
-6.40996051097e-06
1.40683466088e-07
-6.54842419675e-06
1.38468164723e-07
-6.68412988722e-06
1.35711359654e-07
-6.81643060744e-06
1.32306103155e-07
-6.9445776377e-06
1.2815332794e-07
-7.06773953213e-06
1.231684301e-07
-7.1850210772e-06
1.17288653385e-07
-7.29549114403e-06
1.10477911893e-07
-7.3982126556e-06
1.02729518488e-07
-7.49227011358e-06
9.40666189349e-08
-7.57680168096e-06
8.45404586856e-08
-7.65101841491e-06
7.42269811182e-08
-7.71422601173e-06
6.32168867133e-08
-7.76582404893e-06
5.16091255995e-08
-7.80530710728e-06
3.94927794944e-08
-7.83222821476e-06
2.69326559294e-08
-7.84617419636e-06
1.39554051799e-08
-7.84670686327e-06
5.44494523877e-10
-7.83347697987e-06
-1.32205986098e-08
-7.80629896417e-06
-2.71659066787e-08
-7.76508298431e-06
-4.12070186438e-08
-7.70974619524e-06
-5.53249077934e-08
-7.6401968295e-06
-6.95415525003e-08
-7.55628483264e-06
-8.39011324901e-08
-7.45781333379e-06
-9.84651314871e-08
-7.34450765584e-06
-1.13295470585e-07
-7.21605615232e-06
-1.28446257098e-07
-7.07210721434e-06
-1.43938027254e-07
-6.91235559795e-06
-1.59745326456e-07
-6.73657139102e-06
-1.75770653298e-07
-6.54472019872e-06
-1.91842523881e-07
-6.33700224158e-06
-2.07702821348e-07
-6.11396441911e-06
-2.2303029347e-07
-5.87649058305e-06
-2.37458164289e-07
-5.62586500236e-06
-2.5061778387e-07
-5.36369973606e-06
-2.62149749063e-07
-5.09193808203e-06
-2.71756663953e-07
-4.81270330757e-06
-2.79219027789e-07
-4.52827624054e-06
-2.84422069911e-07
-4.24093737291e-06
-2.87326875381e-07
-3.9529536547e-06
-2.87989378112e-07
-3.66642829997e-06
-2.86539496876e-07
-3.38329334046e-06
-2.83171126884e-07
-3.10524340468e-06
-2.78121364479e-07
-2.83370176284e-06
-2.71615950703e-07
-2.56993751273e-06
-2.63845258681e-07
-2.31507492881e-06
-2.54939422403e-07
-2.0699123157e-06
-2.45246883315e-07
-1.83507235971e-06
-2.3491706131e-07
-1.61102299557e-06
-2.24128741987e-07
-1.39792589708e-06
-2.13162016119e-07
-1.19631923564e-06
-2.01664833309e-07
-1.00519611358e-06
-1.91154923955e-07
-8.26845273543e-07
-1.78359121919e-07
-6.60286387183e-07
-1.66528653649e-07
-5.02060357547e-07
-1.58130735239e-07
-3.61823814386e-07
-1.40059419854e-07
-2.26933973352e-07
-1.34602397298e-07
-7.82629797792e-08
-1.48247198913e-07
7.85637301347e-08
-1.56359047667e-07
2.25047092425e-07
-1.46150494058e-07
3.5077887137e-07
-1.25461379571e-07
4.58702085005e-07
-1.07728133975e-07
5.52628775779e-07
-9.3748818709e-08
6.34930916307e-07
-8.21829058435e-08
7.07256910149e-07
-7.22113210931e-08
7.70744581381e-07
-6.3423105894e-08
8.26327885424e-07
-5.5516908171e-08
8.74690522723e-07
-4.8338823269e-08
9.16461806747e-07
-4.17401491826e-08
9.52116762687e-07
-3.56592690498e-08
9.82126738078e-07
-3.00118530423e-08
1.00686909277e-06
-2.4772309041e-08
1.02674828991e-06
-1.98860821927e-08
1.04209675079e-06
-1.53399423535e-08
1.05325794557e-06
-1.11018419265e-08
1.06051530389e-06
-7.19264626921e-09
1.06425291891e-06
-3.65436027223e-09
1.06501911629e-06
-7.15404151934e-10
1.06334868376e-06
1.72099415418e-09
1.05941978613e-06
3.94394871567e-09
1.05338151592e-06
6.05646407154e-09
1.04533767777e-06
8.03303895235e-09
1.03547147716e-06
9.86260823107e-09
1.02391329893e-06
1.15303859245e-08
1.01084040372e-06
1.30539629884e-08
9.96392966261e-07
1.44066464204e-08
9.80768310073e-07
1.55914024951e-08
9.64128726188e-07
1.65841715707e-08
9.46683502736e-07
1.73933003061e-08
9.28612387307e-07
1.79946241226e-08
9.10145049284e-07
1.83844010294e-08
8.91507130545e-07
1.85265105182e-08
8.72994661379e-07
1.83967447292e-08
8.54911928089e-07
1.79659029118e-08
8.37563707367e-07
1.72516496589e-08
8.21270679734e-07
1.62152126644e-08
8.06497221437e-07
1.47172137541e-08
7.93754798057e-07
1.26983391304e-08
7.83584341564e-07
1.01409206106e-08
7.76583966876e-07
6.97729106249e-09
7.72954348326e-07
3.61656428532e-09
7.72406010358e-07
5.3745053543e-10
7.74616947975e-07
-2.21533954067e-09
7.79276990138e-07
-4.66553177423e-09
7.86113644607e-07
-6.83787043326e-09
7.94867044571e-07
-8.7574352272e-09
8.05307042661e-07
-1.04405379573e-08
8.17207346901e-07
-1.19040833182e-08
8.30365141726e-07
-1.31579481264e-08
8.44575849837e-07
-1.42138773057e-08
8.59654235449e-07
-1.50775597896e-08
8.75409287242e-07
-1.57569647366e-08
8.91665913193e-07
-1.62543271972e-08
9.08239162006e-07
-1.65735764531e-08
9.24955342746e-07
-1.67122459751e-08
9.41625161376e-07
-1.66684703201e-08
9.58063825624e-07
-1.64330073383e-08
9.74063188562e-07
-1.59961965916e-08
9.89410498305e-07
-1.53397330338e-08
1.00385960577e-06
-1.44439141335e-08
1.01715092167e-06
-1.32816810806e-08
1.0289854979e-06
-1.18273759159e-08
1.03905352022e-06
-1.00565695667e-08
1.04703006569e-06
-7.96787596974e-09
1.05264640355e-06
-5.6039726986e-09
1.05577142536e-06
-3.11604061016e-09
1.05673554924e-06
-9.51966918645e-10
1.05580338859e-06
9.40360482556e-10
1.0525752511e-06
3.23895941149e-09
1.04599625037e-06
6.58554573871e-09
1.03436012541e-06
1.16473482325e-08
1.01410629246e-06
2.02670189368e-08
1.68972343843e-08
9.972335665e-07
-5.29838790735e-08
1.06325836735e-08
-1.49153052969e-07
8.8535438175e-08
-2.57706064286e-07
1.37056009372e-07
-3.60731308322e-07
1.76215317463e-07
-4.69956407144e-07
2.08669204507e-07
-5.89481319682e-07
2.32791397473e-07
-7.17449462782e-07
2.51278093574e-07
-8.51982024222e-07
2.65705485467e-07
-9.9157571421e-07
2.77000108887e-07
-1.13503482521e-06
2.85782613787e-07
-1.28137287243e-06
2.92509407408e-07
-1.42978511241e-06
2.97539950594e-07
-1.57960009863e-06
3.0117165891e-07
-1.73027740398e-06
3.03658865349e-07
-1.88137642066e-06
3.05223353013e-07
-2.0325590432e-06
3.06060157932e-07
-2.18356497612e-06
3.0634060276e-07
-2.33421348955e-06
3.06213785867e-07
-2.48438158204e-06
3.05807184285e-07
-2.63400347817e-06
3.05226815395e-07
-2.78305074119e-06
3.04557367749e-07
-2.93153014753e-06
3.03862660269e-07
-3.07946547021e-06
3.03186271763e-07
-3.22689567293e-06
3.02552849075e-07
-3.37385848012e-06
3.01970008427e-07
-3.52039100151e-06
3.01430706159e-07
-3.66651636442e-06
3.00916288928e-07
-3.81224752701e-06
3.00400058761e-07
-3.95757742433e-06
2.99851059192e-07
-4.10248756947e-06
2.99237946819e-07
-4.24694183745e-06
2.98532784198e-07
-4.39089869077e-06
2.97714373818e-07
-4.53430764107e-06
2.96770783706e-07
-4.67712368124e-06
2.9570070559e-07
-4.81930421696e-06
2.94513589396e-07
-4.96082216482e-06
2.9322819003e-07
-5.10166021692e-06
2.9186941058e-07
-5.24181929494e-06
2.90463625488e-07
-5.38130694761e-06
2.89032682139e-07
-5.52013850334e-06
2.87587041707e-07
-5.65831848776e-06
2.86118681458e-07
-5.79583383068e-06
2.84594334242e-07
-5.93262980473e-06
2.82949825196e-07
-6.06859760137e-06
2.8108602212e-07
-6.20354922771e-06
2.78867396639e-07
-6.33720512811e-06
2.76124308673e-07
-6.46917542725e-06
2.72658622511e-07
-6.59895436974e-06
2.68251984785e-07
-6.72591358042e-06
2.62675989663e-07
-6.84930859846e-06
2.55706755484e-07
-6.96829011266e-06
2.47140988023e-07
-7.08192660222e-06
2.3681158084e-07
-7.18923312739e-06
2.24602253991e-07
-7.28920617842e-06
2.10458673267e-07
-7.38085980464e-06
1.94391256282e-07
-7.46325749868e-06
1.76473249703e-07
-7.53554417506e-06
1.56836204698e-07
-7.59696377346e-06
1.35656389826e-07
-7.64687151039e-06
1.13134465141e-07
-7.68472506234e-06
8.94733433422e-08
-7.71007709365e-06
6.4855227143e-08
-7.72255870827e-06
3.94253724953e-08
-7.72188402695e-06
1.32913637125e-08
-7.70794332451e-06
-1.33848019916e-08
-7.68078271752e-06
-4.03703946644e-08
-7.64044841029e-06
-6.74886915729e-08
-7.58689861364e-06
-9.47461841761e-08
-7.5200434135e-06
-1.22169093989e-07
-7.43975507806e-06
-1.49820293575e-07
-7.3458498968e-06
-1.77796585838e-07
-7.23808610559e-06
-2.06220814886e-07
-7.1161498709e-06
-2.35223012586e-07
-6.97967231767e-06
-2.64916329858e-07
-6.82824381196e-06
-2.95357945782e-07
-6.66147392546e-06
-3.2650678354e-07
-6.47905142446e-06
-3.5818216376e-07
-6.280843094e-06
-3.9004081858e-07
-6.06696963321e-06
-4.21564958091e-07
-5.8378983359e-06
-4.52091474615e-07
-5.59447419461e-06
-4.80870292508e-07
-5.33794179932e-06
-5.07140223701e-07
-5.06989854823e-06
-5.3018179182e-07
-4.79225850249e-06
-5.49387379949e-07
-4.50715150351e-06
-5.64314233435e-07
-4.21684662948e-06
-5.74717264949e-07
-3.92362857279e-06
-5.80536551758e-07
-3.62975934113e-06
-5.8185914475e-07
-3.33740070808e-06
-5.7890791464e-07
-3.04853296424e-06
-5.72082647381e-07
-2.76494922884e-06