/*--------------------------------*- C++ -*----------------------------------*\
| =========                 |                                                 |
| \\      /  F ield         | OpenFOAM: The Open Source CFD Toolbox           |
|  \\    /   O peration     | Version:  v1806                                 |
|   \\  /    A nd           | Web:      www.OpenFOAM.com                      |
|    \\/     M anipulation  |                                                 |
\*---------------------------------------------------------------------------*/
FoamFile
{
    version     2.0;
    format      ascii;
    class       volScalarField;
    location    "8";
    object      rho;
}
// * * * * * * * * * * * * * * * * * * * * * * * * * * * * * * * * * * * * * //

dimensions      [0 0 0 0 0 0 0];


internalField   nonuniform List<scalar> 
12225
(
0.583774293772
0.636335584479
0.621082391891
0.619588585254
0.608136178089
0.603505291294
0.597390747124
0.59307408478
0.5906690462
0.591381882915
0.596730551123
0.60536996938
0.612439815874
0.624258075744
0.646895584437
0.674537584948
0.708535237651
0.739100257674
0.731850422361
0.689071370632
0.653307475984
0.658774390631
0.648896322217
0.646001644658
0.641557806855
0.638502208805
0.636492060197
0.636240951448
0.639119751464
0.644908420506
0.650992803551
0.660040930961
0.675914124042
0.695174432365
0.715566157463
0.718082979707
0.622139849692
0.664585233407
0.651221485047
0.651584729389
0.642117260701
0.63849196923
0.633769332672
0.630486647639
0.62818720938
0.627386475556
0.628786429921
0.632502860529
0.637936750251
0.646372888171
0.659527767025
0.67480317833
0.688035288725
0.682906507205
0.647442064201
0.679767410795
0.653489085326
0.65916604852
0.650187649968
0.648144871438
0.644617002636
0.642340789999
0.640731685828
0.640234755355
0.641206459266
0.643815363945
0.648111724498
0.654757598392
0.664187733146
0.674078751706
0.679846275466
0.671030532399
0.638065513728
0.679491958256
0.655483238186
0.662084778586
0.654064946653
0.653044283515
0.650484796498
0.649187872055
0.648541580733
0.648887613134
0.650379448544
0.653100804018
0.657191065136
0.662873261956
0.669813826945
0.675802900117
0.676880088266
0.667436941783
0.638349622681
0.682718822196
0.658045423883
0.666077534708
0.658654222378
0.658436359184
0.656522882941
0.655842503119
0.655756688272
0.656536631777
0.658239710762
0.660881748767
0.664530604612
0.66911916754
0.67393418652
0.676974949126
0.675327334595
0.666382698081
0.638302004239
0.684548648597
0.660327009374
0.669393104906
0.662582663265
0.6630537862
0.661677691953
0.661477825739
0.661781776611
0.662810137485
0.664561677782
0.667000574799
0.670077233013
0.673548442938
0.676572658643
0.677488441127
0.674357586717
0.666144530166
0.638737646819
0.685845567975
0.662254383713
0.672128440371
0.665879556331
0.666922784001
0.665979265078
0.666139543926
0.666678356953
0.667795411422
0.669460822144
0.671594613458
0.674043903503
0.676470171897
0.678039716283
0.677477872226
0.673576425708
0.666113574805
0.639223548293
0.686581958215
0.663770675295
0.674250329136
0.668520217023
0.670051478895
0.669465394208
0.669882853697
0.670535427284
0.671627738253
0.673115469048
0.674872269287
0.67667603739
0.678152708508
0.678573315907
0.676989735451
0.672729171953
0.665906412429
0.639540443707
0.686828873741
0.664760154115
0.675681996638
0.670394259359
0.672326250303
0.672006372572
0.672582799999
0.673272894386
0.674287125953
0.675545213228
0.676878277783
0.678032957142
0.678661597872
0.67817646351
0.675909594539
0.671527849766
0.665315228686
0.638985786322
0.686826528715
0.664928428026
0.676250327819
0.671217616896
0.673384594733
0.673167411338
0.673794974951
0.674458495665
0.675338847426
0.676319723706
0.677234538292
0.677842279398
0.67785116227
0.676804107281
0.67425072783
0.67006928387
0.664557091708
0.634679540028
0.686629455493
0.663321770039
0.675251734654
0.670163346614
0.672440221447
0.672256223875
0.672901223133
0.67348816545
0.674226760918
0.675061015655
0.675809147415
0.676227431059
0.67604174223
0.674902818283
0.672497988028
0.668779471071
0.664034119603
0.631213088749
0.685873804099
0.661756947805
0.674110561709
0.669210569386
0.671668460451
0.671598620187
0.672335611155
0.673029589143
0.673867504512
0.674735781902
0.675451516507
0.675742048895
0.675413339104
0.674175200947
0.671841566978
0.668449373174
0.664249626905
0.627078537672
0.684960816471
0.660011708664
0.672910825705
0.668241372446
0.671065271016
0.67131911744
0.672293525137
0.673116255534
0.673976984203
0.674756987723
0.675261826719
0.675257165533
0.674611283214
0.673175682398
0.670836430692
0.667734548019
0.66400398026
0.621747131176
0.68396823678
0.657835433068
0.671463859663
0.667036574391
0.670292976372
0.67091524342
0.672169415976
0.673141376819
0.673984738845
0.674617458914
0.674837466778
0.674472997089
0.673514345854
0.671891698439
0.66958474994
0.666744568506
0.663498616788
0.616203946726
0.68291533865
0.655368201559
0.669708349319
0.665417367898
0.66904618303
0.669946576436
0.671410537759
0.672456937686
0.67327230597
0.673732297625
0.673721619798
0.673084995422
0.671936477222
0.670240235986
0.668048771508
0.665490868456
0.66265204786
0.611239499289
0.681973228616
0.652888841862
0.667800892149
0.663493074605
0.667346525899
0.668371127227
0.669909698022
0.670947334987
0.67166449807
0.671995735281
0.671814507862
0.671041733424
0.669816743701
0.668171850201
0.666136187816
0.663872386379
0.661365249136
0.606622824468
0.681256985144
0.65055760614
0.665925009012
0.661455033324
0.665382660649
0.666380947491
0.667891908553
0.668854316987
0.669468826192
0.669688902758
0.669405926841
0.668574154331
0.667363164569
0.665815343261
0.663954398682
0.661938319965
0.659721729165
0.604154582409
0.68115401998
0.649350549589
0.664885052041
0.660136343924
0.663924270637
0.664705494054
0.666020598388
0.666777792645
0.667197821622
0.66724940948
0.666845465937
0.665953202952
0.664755958154
0.663288436557
0.661562182979
0.659724648452
0.657722857314
0.609615768826
0.681859722636
0.650971749519
0.665659810686
0.660426167274
0.663546801672
0.663687618382
0.664350086705
0.664518767198
0.664415493257
0.664039033934
0.663319221247
0.662218853195
0.660906597393
0.659412097753
0.657736992618
0.65601349775
0.654199072696
0.613798533068
0.682915855571
0.652851798362
0.66692601284
0.661318979517
0.663907029813
0.663541580721
0.66373124902
0.663449540949
0.662975473819
0.662299624007
0.661375538279
0.660131455652
0.658760153414
0.657251888539
0.655627791486
0.653977440887
0.652284610391
0.617118290308
0.684032385393
0.654643028467
0.668194984975
0.662289623869
0.664412930437
0.663634756785
0.663413609095
0.662779322552
0.662007005504
0.661086915559
0.65999655225
0.658650790511
0.657218770885
0.655703050111
0.654100677233
0.652506613233
0.6508712226
0.620773020618
0.685274041019
0.656459518011
0.669516473323
0.663315468164
0.664986927014
0.663811997815
0.663214715714
0.662253396968
0.661193331257
0.66006918262
0.658812368692
0.657356030498
0.655848064706
0.654314404754
0.652703325482
0.651135241076
0.649548851635
0.624436007779
0.686511009552
0.658343496677
0.670821999848
0.664322438259
0.665560250251
0.664010547977
0.663051025684
0.661789069587
0.660487870636
0.659157064233
0.657756125973
0.656196883241
0.654630465292
0.653038501938
0.651407578204
0.649818434945
0.648268179517
0.628782578227
0.687948406119
0.660183902285
0.672037683321
0.66528561209
0.666074057502
0.664171579864
0.662900625752
0.661364112336
0.659824935741
0.658300086434
0.656764316002
0.655097651046
0.653447625833
0.651805285709
0.650112203009
0.648452516332
0.646809620622
0.630164518127
0.687933430935
0.662974850227
0.673708443326
0.666875741177
0.667276626883
0.665130119432
0.663600598852
0.66184610498
0.660106539776
0.658425622273
0.656780061109
0.655055613744
0.653358277266
0.651681464254
0.649981816999
0.648322056682
0.646889793845
0.652182768399
0.69378032429
0.664533597629
0.675153824249
0.667885435062
0.667809924003
0.665294868724
0.663420819719
0.66133800297
0.659261941073
0.657215770939
0.6553302479
0.653422558871
0.651524851388
0.649679616822
0.647787043177
0.64585942562
0.643672586367
0.604819161468
0.680573929992
0.674864940887
0.679739895991
0.673662435711
0.673200436584
0.670869941747
0.66918190379
0.667371165833
0.665580219789
0.663948229207
0.662442554378
0.660870585067
0.659320872129
0.657802233734
0.656165586208
0.654444153344
0.653209583489
0.781868322586
0.712106274784
0.677353712301
0.686755480239
0.679508063439
0.678722282444
0.675663651437
0.673001058301
0.669943682184
0.666643586497
0.663209850042
0.660008695595
0.656775383915
0.653419539927
0.650032052909
0.646605887467
0.643112619748
0.639698371296
0.642994794514
0.669665545495
0.6679762915
0.669158544894
0.661780863727
0.660934249398
0.658489129843
0.656626042919
0.654721824322
0.65306308632
0.651750344062
0.650530149473
0.649245331731
0.648295532868
0.647680464137
0.647186979292
0.64696057636
0.646239262805
0.500155034531
0.499793939481
0.499615092002
0.499646721322
0.499853134926
0.50019161576
0.500594424906
0.501021997694
0.501446935239
0.501850846169
0.502221841391
0.502553015477
0.502840951811
0.503084714919
0.503285117655
0.503444318706
0.50356514885
0.5036513275
0.503706400008
0.503733793582
0.503737283351
0.50371949922
0.503684151105
0.50363225396
0.503566097267
0.503485420287
0.503392092327
0.503285913917
0.503167729071
0.503036751745
0.502893386739
0.502737131788
0.502568508031
0.502386732898
0.502192139465
0.501984903763
0.501766200061
0.501535374645
0.501293672693
0.501041222259
0.500779411581
0.500509040148
0.50023175571
0.499949200779
0.499663389442
0.499376760597
0.499091735634
0.498811193389
0.498538125478
0.498275168915
0.498024822602
0.497788057755
0.497567597955
0.497367155374
0.497191603153
0.497045656716
0.496934241302
0.496862361412
0.496835019952
0.496856950231
0.49693150962
0.497059002968
0.497238733231
0.497470279951
0.497753327614
0.498086757731
0.498469806965
0.49890123587
0.499378483323
0.499899071468
0.500458925072
0.501054085288
0.501679529381
0.502330624665
0.503002153246
0.503689569384
0.504388169666
0.505092863766
0.505799228506
0.506504205331
0.50720528035
0.50789896318
0.508582933699
0.509254547148
0.509914559848
0.510560385152
0.511192237723
0.51181579719
0.51242763987
0.513030218543
0.513623272745
0.514207255009
0.514784315601
0.515327819047
0.515822349085
0.516305063396
0.51680827875
0.517317036798
0.517826627744
0.518330996751
0.518940851735
0.519641976342
0.519604688314
0.519462383729
0.519475558416
0.519722123605
0.52021159371
0.520431247369
0.520734760887
0.521006360621
0.521238675453
0.521437676056
0.521613283208
0.521772003465
0.521918261029
0.522054997996
0.52218507065
0.522311526992
0.522435077099
0.522554538664
0.522666415759
0.522769344095
0.522864543919
0.522953017922
0.523037594277
0.523119476052
0.523199342422
0.523277520936
0.523354240454
0.523429664484
0.523504041695
0.52357752299
0.523650216292
0.523721988768
0.523792768664
0.523862306302
0.523930452332
0.523997452342
0.524062722981
0.524125953311
0.524185174012
0.524241663723
0.524294504926
0.524342134594
0.524382788616
0.524414603074
0.524436437489
0.524447424104
0.524446780537
0.524433788738
0.524407303975
0.524365804486
0.524307648481
0.524231255616
0.524134786365
0.524016369521
0.523873867712
0.52370497488
0.523506613015
0.523275286266
0.523005660211
0.522692131226
0.522326526235
0.521897620377
0.521390016053
0.520786828194
0.52006721618
0.519214778054
0.518216381598
0.517049096266
0.515699609632
0.514170812133
0.512479686262
0.510666050697
0.508789349677
0.506795468077
0.504740085473
0.502707689606
0.500812161106
0.49938391173
0.50006672195
0.499798969417
0.499876158704
0.500167083382
0.500532397844
0.500909350726
0.501273700993
0.501613257828
0.501923452946
0.502202665466
0.502451100217
0.502668577186
0.502856286643
0.50301488963
0.503146029356
0.503251089113
0.50333218708
0.50339138667
0.503431440475
0.503454077866
0.503462074895
0.503456995566
0.503441385338
0.503415538487
0.50338099165
0.50333694007
0.503284348506
0.503222380563
0.503150934545
0.50306870491
0.502975619855
0.50287068424
0.502753409998
0.502622662472
0.502478833593
0.502321248576
0.502150280731
0.501965702241
0.501768064385
0.501557302789
0.501334402653
0.501100153433
0.500855988812
0.500603605291
0.500345134016
0.500083189105
0.499820913027
0.499561644107
0.499309660989
0.499069684061
0.498848839808
0.498651662711
0.498480547664
0.498337913851
0.498226996644
0.498150926138
0.498112720858
0.498117256269
0.498169582197
0.498270986409
0.498422168489
0.498624780479
0.498879390263
0.499184486361
0.499538194749
0.499938226574
0.500382191989
0.500868129658
0.501394087331
0.501958468538
0.502559207541
0.503194348911
0.503860989342
0.504556153762
0.505276312144
0.506017424001
0.506774858878
0.507543702595
0.508318676995
0.509095884956
0.509872158055
0.510643554188
0.511405689126
0.512156595651
0.512897888156
0.513624428701
0.514329684265
0.515024125473
0.515729091256
0.516427367572
0.517090393304
0.517753413064
0.518459586357
0.51918194786
0.519836273109
0.520417360317
0.521035852878
0.521515401205
0.522000854649
0.522527684444
0.523029379007
0.523661175844
0.524084616983
0.524544888118
0.524963833678
0.525402272617
0.525635092905
0.525758319709
0.525862949213
0.525995176109
0.526158251341
0.526331243728
0.526510595205
0.526693600927
0.52687962523
0.527068478338
0.527261184824
0.527459191859
0.527662766175
0.527868815108
0.528073184817
0.528273752095
0.528470129785
0.528663687765
0.528856032498
0.529047829841
0.529239455704
0.529431006175
0.529622588394
0.529814215834
0.530005964393
0.530197862967
0.53038993932
0.530582158723
0.530774672777
0.530967737668
0.531162001953
0.531358327253
0.531557412362
0.531758851591
0.531962335323
0.532169097838
0.532379545294
0.53259343223
0.532809906282
0.533028539433
0.533249859037
0.533474994999
0.533705267723
0.533941873441
0.534185969472
0.534438723811
0.534701136506
0.534973676715
0.535256033525
0.5355471978
0.535845199565
0.536147353662
0.536449897624
0.536749164563
0.53703995063
0.537316431068
0.53757310539
0.537805678582
0.538010210807
0.538183547713
0.538329460139
0.538440257424
0.538517080557
0.538561545689
0.538571945195
0.538540839557
0.538458092538
0.53832098069
0.538061035671
0.537773581836
0.537442551621
0.537083065677
0.536738395626
0.536381283214
0.500397047588
0.500312650257
0.500363822193
0.500519778918
0.500694421036
0.500847299422
0.500981695521
0.501104338969
0.501221435549
0.501335309981
0.501446576887
0.501554087836
0.501656263178
0.501751129422
0.50183718133
0.50191308714
0.501978279157
0.502032365504
0.502075764307
0.502108910248
0.502132806518
0.502147537139
0.502154778009
0.502154267539
0.502146581549
0.50213109725
0.502108187806
0.502076733821
0.502036500736
0.501986279871
0.501925686635
0.501853427079
0.501769309734
0.50167241263
0.501562562129
0.501439336114
0.501303256437
0.50115381754
0.500991607081
0.500816879696
0.500630466183
0.500433254889
0.500226599434
0.500012131847
0.499791857514
0.499568102677
0.49934368667
0.499121658163
0.498905485361
0.49869891285
0.498507453017
0.498336858769
0.498193444691
0.498081169364
0.498003008948
0.497961293485
0.497957901508
0.497992422271
0.49806373858
0.498173282857
0.49832367863
0.49851735066
0.4987585903
0.499052258318
0.499402626674
0.499812682882
0.500283550182
0.500814648955
0.501403466783
0.502046296492
0.50273789382
0.503472146533
0.504242161722
0.505040779147
0.505860831228
0.506695334376
0.507537745945
0.508381904701
0.509222274851
0.510053852033
0.510874442765
0.511681261352
0.512470167468
0.513238749019
0.513991102958
0.51472900281
0.515438633026
0.516117107345
0.516788675805
0.517463855072
0.518109570659
0.518699097995
0.519308536923
0.519916077183
0.520493342222
0.521046534749
0.521550953045
0.521906050421
0.522332485646
0.522943438973
0.523628742891
0.52409797083
0.524289824122
0.524489087797
0.524589207609
0.52475108568
0.525033544024
0.525447059665
0.525855375413
0.5262139403
0.526539918647
0.526838154285
0.527117117487
0.527381368703
0.527634495027
0.527879148991
0.528118041754
0.528353373248
0.528585775474
0.528812926543
0.529032400685
0.529243607675
0.529447832359
0.529647225451
0.529842797335
0.530035121981
0.530224580323
0.530411516454
0.53059627116
0.530779203985
0.530960685729
0.531141043462
0.531320501622
0.531499267462
0.531677590321
0.531855855842
0.532034574086
0.532213995887
0.532394047139
0.532573326284
0.532751544458
0.532929474116
0.533108206217
0.533287276631
0.533465028239
0.533640079869
0.533811579642
0.533979238016
0.534142798716
0.534302080755
0.534456809652
0.534606916951
0.534752181957
0.534892634456
0.53502862094
0.535160839237
0.535290202163
0.535418073701
0.535545988915
0.535675906366
0.535809776366
0.535949507155
0.536096995751
0.536254298562
0.536423058218
0.536605161907
0.536803767252
0.53701970885
0.53724982974
0.537490879657
0.537737190563
0.537977541182
0.538198396999
0.538373886889
0.538477653766
0.538494391898
0.538411776529
0.538233401812
0.538008740298
0.537881896146
0.5008636
0.500788829587
0.50059133723
0.500516786399
0.500505483487
0.500502587627
0.50051129345
0.500535389326
0.500577719992
0.500638360986
0.500715367097
0.500804994087
0.500903726297
0.501007715583
0.501113905384
0.501219474025
0.501322479963
0.501421319256
0.501515360794
0.50160346794
0.501685962394
0.501762469824
0.501833203538
0.501897533492
0.501955905658
0.50200698698
0.502050558154
0.502085387532
0.502110792951
0.502125229432
0.502127933387
0.50211764605
0.502093624496
0.50205461577
0.502000756392
0.501931176666
0.501846030109
0.501745218774
0.501629364087
0.501498766101
0.501354606433
0.50119810626
0.501031105302
0.500855783873
0.500674763074
0.500491073395
0.500308268616
0.500129955934
0.499960325126
0.499803871344
0.49966494404
0.499546773124
0.499454679752
0.499393196107
0.499366488302
0.499378023265
0.499430961527
0.499526736386
0.499663715847
0.499838933897
0.50005144903
0.500301831472
0.500592054158
0.500924433784
0.501302287769
0.501729155454
0.502208120017
0.502741350038
0.50332966953
0.503972212153
0.504666383186
0.505407627294
0.506189618286
0.50700524587
0.507846568288
0.508704485547
0.509570612994
0.510438266024
0.511299289096
0.512146119881
0.512975953017
0.513789237005
0.514578007583
0.515333363371
0.51606412561
0.516778835826
0.517464217907
0.518087976653
0.518696720275
0.519301232554
0.519867895943
0.520381817959
0.520858737209
0.521322886054
0.521745530061
0.522167846881
0.522648788653
0.523187435435
0.523835268514
0.524451943538
0.524864438902
0.525008201774
0.525089922342
0.525233643675
0.525388128323
0.525662179114
0.52609138716
0.526632097472
0.527160885068
0.527620418113
0.528017698919
0.528365060069
0.52867640422
0.528961085105
0.529225921748
0.529475976439
0.529715314482
0.529947040926
0.530171897275
0.530388557357
0.530595693543
0.530794069843
0.530986368408
0.531174475042
0.53135910188
0.531540438051
0.531718675119
0.531894073631
0.532066981664
0.532237808645
0.532406993836
0.532574923498
0.532741901194
0.532908216801
0.533074228991
0.53324044472
0.533407217387
0.533574429356
0.533741087692
0.533905656783
0.534067693056
0.534228867898
0.534391201959
0.534554861065
0.534718858964
0.534882269051
0.535044751076
0.53520644923
0.53536762164
0.535528561412
0.535689475957
0.535850582949
0.536011868744
0.536173243718
0.53633455468
0.536495566017
0.536655857749
0.53681493669
0.536972067141
0.537126479666
0.537277681365
0.537425187358
0.537568552491
0.537707971475
0.537844103813
0.537978575183
0.538114948908
0.538255528318
0.538402128743
0.538557614849
0.538722915027
0.538895295165
0.539070144215
0.539239333235
0.539384445694
0.539501038561
0.53958169018
0.539634548526
0.539715474255
0.539944192968
0.501417993288
0.500951002587
0.500398528596
0.50019148801
0.500131707875
0.500099446243
0.50008693671
0.50009461494
0.500125950118
0.500180493406
0.50025674574
0.500351436733
0.500461199792
0.500582095684
0.50071100223
0.500844654806
0.500980928234
0.50111742256
0.501252959879
0.50138633023
0.501517034002
0.501643843097
0.501767121477
0.501885700291
0.501999186732
0.502106561605
0.502207280979
0.502299722867
0.50238302966
0.502455616139
0.502516521849
0.502564065449
0.502597645457
0.502616103054
0.502618922661
0.502605359238
0.502575704676
0.502529360888
0.502466864847
0.502388489074
0.50229520657
0.502188009003
0.502068543957
0.501938663458
0.50180074455
0.501657347518
0.501511642013
0.501366934428
0.501226800585
0.501095418632
0.5009784555
0.500879807041
0.500804389353
0.50075698728
0.500741356412
0.500760804028
0.500818995286
0.500918327112
0.501059134228
0.501242739636
0.501470218699
0.50174200451
0.502059384883
0.502424097751
0.502838471082
0.503304574731
0.503824220873
0.504398519279
0.505026934104
0.50570791419
0.506438373341
0.507213720798
0.508026761325
0.508871244384
0.509739833206
0.510623055118
0.511511079347
0.512399192113
0.513282260862
0.514146172711
0.514983513703
0.515803533448
0.516599457358
0.517352992099
0.518076110105
0.518783684289
0.519456140723
0.520074492642
0.520631854302
0.521165490097
0.521695250446
0.522170477496
0.522631316422
0.523055329054
0.523499585842
0.524050434416
0.524660975014
0.525272971159
0.525797149633
0.526110862133
0.52621810476
0.526224509677
0.526298126846
0.526470275061
0.526712642667
0.527060516217
0.52750388447
0.527997703098
0.528474194792
0.528900054667
0.529273924451
0.529602751743
0.529896787265
0.530164250436
0.530411609842
0.530643872048
0.530864979391
0.531077531509
0.531281918276
0.531477081741
0.531662457771
0.531839798507
0.532011985022
0.532180601829
0.532346009968
0.532508156003
0.532667045286
0.532822837775
0.532975837394
0.533126471207
0.533275220146
0.533422530362
0.533568806295
0.533714425613
0.533859924066
0.53400589468
0.534152559188
0.534299332961
0.534444378437
0.534586015171
0.534723776037
0.53486005934
0.534997168606
0.535135515597
0.535274307971
0.535412644406
0.535550183717
0.535686890899
0.535822899949
0.535958307354
0.53609323183
0.536227770771
0.536361988071
0.536495924015
0.536629656968
0.536763242129
0.536896713651
0.537030099704
0.53716333736
0.537296397938
0.537429545632
0.537563034594
0.537697218516
0.537832864692
0.537970827052
0.538112377448
0.538260046446
0.53841506332
0.538577840282
0.538749598364
0.538929186785
0.539112836039
0.539296621982
0.539474043669
0.539634691508
0.539777268518
0.539905851007
0.540040553684
0.540244112552
0.540622709114
0.501952072098
0.500600911973
0.499789063019
0.499702965164
0.499760370925
0.49979445369
0.499819172477
0.499847900975
0.499891847342
0.499955344883
0.50003983908
0.500143006075
0.500262813429
0.50039569508
0.500539164308
0.500690017485
0.50084627119
0.501005559873
0.501166743699
0.501327819812
0.501488473402
0.501647562652
0.501804456873
0.501958066706
0.502108209415
0.502253174692
0.502392202723
0.502523734877
0.502646660978
0.5027591949
0.502860189932
0.502948133079
0.503022025914
0.503080460887
0.503123287534
0.503149516777
0.503159130544
0.503151908724
0.503128427401
0.503088925555
0.503034614972
0.502966568369
0.502886625274
0.502796700175
0.50269925364
0.502596801905
0.502492459686
0.502389147953
0.502290345418
0.502200111609
0.502123932572
0.502065687959
0.50203078025
0.50202420592
0.502050499612
0.502113739457
0.502217686754
0.502361755628
0.502544677277
0.502765855382
0.50302573583
0.50332460062
0.503664167364
0.504047388989
0.504478888684
0.504962725798
0.505502666894
0.506100997658
0.506757359143
0.507468721234
0.508232414011
0.509042215788
0.509888752264
0.510762939092
0.511660052125
0.512569470445
0.513476518996
0.51437462723
0.515266388649
0.516141256628
0.516973552374
0.517797796538
0.518596684387
0.519356388752
0.520065397897
0.520719764092
0.521343030625
0.521930387759
0.52248368382
0.52302335589
0.523508338417
0.523980432848
0.524517705087
0.525058692986
0.52562027692
0.526177821967
0.526662882299
0.527055175279
0.527317815233
0.527434617666
0.527468653189
0.527514442568
0.527644891838
0.527857233659
0.528136442268
0.528486096369
0.52888735712
0.529309576924
0.529718097492
0.53009446037
0.530434156145
0.530739103229
0.531014704697
0.531266438424
0.531499212238
0.531717199004
0.531923825062
0.532121008078
0.532308997861
0.532486941253
0.532654998411
0.532815592423
0.532971362379
0.533123707066
0.533272891426
0.533418829141
0.53356145682
0.533700894797
0.533837428423
0.533971496159
0.534103591456
0.53423420539
0.534363784095
0.534492816486
0.534621949516
0.534751823347
0.53488248963
0.535012741703
0.535140457309
0.535263598667
0.535382295666
0.535499183087
0.535616590857
0.535735162803
0.535854275986
0.535973241362
0.536091746088
0.536209770289
0.536327386934
0.536444643694
0.536561593912
0.536678286953
0.536794781886
0.53691114725
0.537027482406
0.537143872585
0.537260383064
0.537377083832
0.537493974778
0.537611126791
0.537728849392
0.537847451023
0.537967407108
0.538089637627
0.538215179826
0.538345424138
0.538482749514
0.538628477139
0.538783225927
0.538948311591
0.539122603123
0.539302840237
0.539486301617
0.539668381673
0.539841238836
0.540006017155
0.540170147982
0.540357539631
0.54062800783
0.541066272682
0.502314880164
0.499685122221
0.498943010156
0.499257494727
0.499503344952
0.499623622763
0.499697800833
0.499761741236
0.499836261439
0.499927248587
0.500037648401
0.50016570116
0.500310122981
0.500467627708
0.500636362696
0.500813243055
0.500996771057
0.501184357019
0.501374996967
0.501567167316
0.501760101677
0.501952219043
0.502143508234
0.502332461085
0.502518363373
0.502700003524
0.502876531192
0.50304615585
0.503207836201
0.503359823824
0.503500991559
0.503629568425
0.5037447912
0.503845441348
0.503930880674
0.504000360135
0.504054065825
0.504091487379
0.504113244033
0.504119706913
0.504112033447
0.504091257363
0.504059132753
0.504017349669
0.503968094617
0.503913302874
0.503855545066
0.503797086453
0.503740344594
0.503688360165
0.503647323399
0.503620471562
0.503613907691
0.503634747428
0.503689443193
0.503783949131
0.503921551292
0.50409925472
0.504315748732
0.504569604888
0.504860166829
0.505185143014
0.505545137731
0.505944372032
0.506389045589
0.506883868967
0.507434833321
0.508046704721
0.508719484497
0.509449252094
0.510232801556
0.511066880718
0.511937972601
0.512831006061
0.513741862534
0.514663314919
0.515578979858
0.516481659732
0.517379618578
0.518254427368
0.519096280585
0.519890208311
0.520631942665
0.52134743222
0.522026905913
0.522660568818
0.523248185563
0.523792669562
0.524330683434
0.524888473229
0.525424650252
0.52596939317
0.526524950789
0.527043821177
0.527530780381
0.527943498599
0.528251467481
0.528467618902
0.528601858567
0.528680571833
0.528754248857
0.528868113451
0.529043577376
0.529272867204
0.529548958562
0.529868216241
0.53021654174
0.530575236626
0.530925275954
0.531254943701
0.531559098966
0.531837077499
0.532091045202
0.532324204833
0.532539972797
0.532741716988
0.532932127012
0.533112669506
0.533283360291
0.533443709906
0.533594529066
0.533738211294
0.533877173894
0.534012630807
0.534144893107
0.534273905047
0.534399633848
0.534522177314
0.534641815942
0.534758965071
0.534874118122
0.534987776941
0.53510042027
0.535212642379
0.535325178413
0.535438687073
0.535552964003
0.53566639701
0.535776576193
0.535881515981
0.535981862887
0.536080193515
0.536178831157
0.536278416701
0.536378511448
0.53647864084
0.536578592189
0.5366784126
0.536778123753
0.5368777549
0.536977275494
0.537076719437
0.537176114808
0.537275567189
0.537375187249
0.537475116488
0.537575464066
0.537676377415
0.537777952147
0.537880379033
0.5379840647
0.538089413605
0.538197017678
0.538307877993
0.538423134085
0.538544154854
0.538673143574
0.538811313015
0.53895932071
0.539118380593
0.539287551286
0.539464044598
0.539646220007
0.539831179241
0.540013556138
0.540196517481
0.540389826736
0.540618765379
0.540936847062
0.541408089563
0.502403521932
0.498341973536
0.498134013519
0.498999572248
0.499381069541
0.499565598438
0.499692131558
0.499806016154
0.499928745168
0.500065390264
0.500219144733
0.500387461144
0.500570075609
0.500763766851
0.500967537206
0.501178466493
0.501395520327
0.501616367888
0.501840384847
0.502065516433
0.502291511504
0.502516931805
0.50274108658
0.502962835828
0.503181923349
0.503396623875
0.503606276856
0.503809396617
0.504004999219
0.504191418101
0.504367680254
0.504532413578
0.504684751984
0.50482349329
0.504948501206
0.505058927634
0.505154808033
0.505236035118
0.505303198074
0.505356594516
0.505397432949
0.505426643321
0.505445765645
0.505456142187
0.505459339265
0.505456567135
0.505449072384
0.505437826297
0.505423958921
0.505408897485
0.505397572513
0.505395864326
0.505411525894
0.505456101979
0.505541447146
0.50567766085
0.505865026762
0.50609711807
0.506370209513
0.506679670051
0.507018597377
0.507379577015
0.507761011709
0.508171381964
0.508619837104
0.509114619456
0.50966385042
0.510276751983
0.510956826667
0.511696037977
0.512486710446
0.513329193687
0.51421239851
0.515108750644
0.516031456822
0.516964855284
0.517884534652
0.518780999368
0.519641075605
0.520458694667
0.521254043019
0.522014227272
0.522727362434
0.523394355534
0.524013085912
0.524589562201
0.525146757782
0.525707629068
0.526275272119
0.526833595902
0.527360618231
0.527874402205
0.528352970225
0.528771202482
0.529127978025
0.529403988067
0.529603137114
0.529749185309
0.529862024328
0.529965926147
0.530086382075
0.530239646899
0.530430286088
0.530654142649
0.530908480619
0.531189794567
0.531489136235
0.531794980197
0.532095768573
0.532383229184
0.532652609226
0.532902129624
0.533132203285
0.533344455146
0.533541216706
0.533725068201
0.533898044563
0.534061167955
0.534214333461
0.534357317832
0.534491222783
0.53461827695
0.534740539289
0.534859131975
0.534974444883
0.535086518215
0.535195371183
0.535301112953
0.535404012551
0.535504454662
0.535602911188
0.535699855257
0.535795810834
0.535891432968
0.535987582734
0.536084846873
0.536182740266
0.536279428611
0.536372354265
0.536459963149
0.536543127471
0.536624290982
0.536705524198
0.536787415787
0.536869729617
0.536952138671
0.537034588512
0.53711715948
0.537199904335
0.537282815926
0.537365836277
0.537448960352
0.537532207874
0.537615688905
0.537699537583
0.537783930688