/*--------------------------------*- C++ -*----------------------------------*\
| =========                 |                                                 |
| \\      /  F ield         | OpenFOAM: The Open Source CFD Toolbox           |
|  \\    /   O peration     | Version:  v1806                                 |
|   \\  /    A nd           | Web:      www.OpenFOAM.com                      |
|    \\/     M anipulation  |                                                 |
\*---------------------------------------------------------------------------*/
FoamFile
{
    version     2.0;
    format      ascii;
    class       volVectorField;
    location    "8";
    object      U;
}
// * * * * * * * * * * * * * * * * * * * * * * * * * * * * * * * * * * * * * //

dimensions      [0 1 -1 0 0 0 0];


internalField   nonuniform List<vector> 
12225
(
(9.73768100104 0.0389942068231 0)
(9.50257796423 0.0415437005082 0)
(9.24997609147 0.0404770577682 0)
(8.9997301843 0.040024029083 0)
(8.76155800376 0.0398276299714 0)
(8.53663983814 0.0395477613806 0)
(8.32354300224 0.0390991493868 0)
(8.12073090592 0.0385161447555 0)
(7.92710780887 0.0378653677026 0)
(7.74193036239 0.0372092925071 0)
(7.56461416572 0.0365962476404 0)
(7.3945858684 0.0360630441605 0)
(7.23119607105 0.0356412864836 0)
(7.07367498978 0.035366892851 0)
(6.92107336843 0.0352961141217 0)
(6.77207823729 0.0355537203247 0)
(6.62493305393 0.0366094095785 0)
(6.46574726128 0.0329883206025 0)
(10.0157873204 0.0701356061726 0)
(10.0367856583 0.0716552734399 0)
(10.0266408879 0.0674488946314 0)
(9.99944270935 0.0664032386501 0)
(9.96547014625 0.0668902757072 0)
(9.92770820006 0.0676098437869 0)
(9.88652820992 0.068134082644 0)
(9.84197113552 0.0684435427363 0)
(9.79427323649 0.0686436406056 0)
(9.74381767643 0.0688494637807 0)
(9.69099136632 0.0691536362327 0)
(9.63607813797 0.0696306433697 0)
(9.57919924699 0.0703521369883 0)
(9.52028050557 0.0714102656013 0)
(9.45900613742 0.0729573608923 0)
(9.39470405192 0.0753021539322 0)
(9.3268705689 0.079268479661 0)
(9.24701928306 0.0876605644212 0)
(10.0209570004 0.0575922314749 0)
(10.0537929898 0.059581539992 0)
(10.0696220713 0.0558731277348 0)
(10.0746048354 0.0565262106079 0)
(10.076276693 0.0592567448066 0)
(10.0766945798 0.0621234322176 0)
(10.0755986754 0.0645119205771 0)
(10.0724742678 0.066442509158 0)
(10.0670754194 0.0681174360108 0)
(10.0593868598 0.0697398300736 0)
(10.0494837031 0.071468282224 0)
(10.0374247321 0.0734282790744 0)
(10.0231932698 0.0757401645505 0)
(10.0066682692 0.0785568367133 0)
(9.98760928748 0.0821198583074 0)
(9.9656453889 0.0868606245633 0)
(9.94078739869 0.0935854282293 0)
(9.90892890443 0.102407550209 0)
(10.015852672 0.0471953261337 0)
(10.043598872 0.0554176340963 0)
(10.0609208136 0.0556706224163 0)
(10.069350389 0.0582775099887 0)
(10.0749311836 0.0620607568553 0)
(10.0798829593 0.0654522355354 0)
(10.0841804885 0.068063294846 0)
(10.0873800778 0.0700940736755 0)
(10.0892051905 0.0718706387718 0)
(10.0895719384 0.0736685760057 0)
(10.0884843163 0.0756844083664 0)
(10.0859465279 0.0780642367562 0)
(10.0819163504 0.0809453160614 0)
(10.0762896576 0.084501984651 0)
(10.0689101287 0.0890006848173 0)
(10.0596049176 0.0948690601933 0)
(10.0485103951 0.102773829932 0)
(10.0338791852 0.112859810253 0)
(10.0116586079 0.0391367319022 0)
(10.0341662905 0.0508908156349 0)
(10.0505145024 0.0530754635497 0)
(10.0593886072 0.0556739873787 0)
(10.0652962917 0.0590106445487 0)
(10.0704686689 0.0620626821925 0)
(10.0751128868 0.0645506386933 0)
(10.0788997805 0.0666687665523 0)
(10.0815773351 0.0687096537093 0)
(10.0830534308 0.0709133516233 0)
(10.083323017 0.0734490321219 0)
(10.0823945514 0.0764473377018 0)
(10.0802502784 0.0800420224584 0)
(10.0768373921 0.0844120061492 0)
(10.0720870661 0.089824452522 0)
(10.0659607309 0.0966755937175 0)
(10.0586400161 0.105517705021 0)
(10.0494650738 0.116671218027 0)
(10.0085436295 0.0326687683321 0)
(10.0266373915 0.0461922493465 0)
(10.0415715964 0.0501898442371 0)
(10.0505236439 0.0533414456011 0)
(10.0565360061 0.0569605900017 0)
(10.0616474759 0.060431206971 0)
(10.0662148722 0.0634757018581 0)
(10.0700061555 0.0662103633259 0)
(10.0727933125 0.0688706205231 0)
(10.0744793296 0.0716720606395 0)
(10.0750544221 0.0747841372511 0)
(10.0745350828 0.0783521633108 0)
(10.0729292732 0.0825303013009 0)
(10.0702308067 0.0875145607792 0)
(10.0664405781 0.0935726476407 0)
(10.061611719 0.101064256613 0)
(10.0559722646 0.110441175112 0)
(10.0493881527 0.122059957061 0)
(10.0062533238 0.0274873234207 0)
(10.0207254324 0.0416628061847 0)
(10.0340795385 0.0471962853466 0)
(10.0428871461 0.0509842043505 0)
(10.0489472959 0.0548506238321 0)
(10.0539854008 0.0585557725005 0)
(10.0584441056 0.0618785733807 0)
(10.0621834206 0.064905076323 0)
(10.0650082881 0.0678518542241 0)
(10.0668239062 0.0709385836807 0)
(10.0676188131 0.0743524531745 0)
(10.0674172384 0.0782593765386 0)
(10.0662494109 0.0828294543031 0)
(10.0641477191 0.0882625075447 0)
(10.0611666108 0.0948080081961 0)
(10.0574209995 0.102771662257 0)
(10.0531669004 0.112500257905 0)
(10.0484704896 0.124265115894 0)
(10.0045832122 0.023329224309 0)
(10.0161299267 0.0374208199351 0)
(10.0278725649 0.0441103957941 0)
(10.0363486605 0.0485256375181 0)
(10.0423976299 0.0526516002369 0)
(10.0473763321 0.0565795024711 0)
(10.0517525239 0.0601851174526 0)
(10.0554651707 0.0635466228636 0)
(10.0583564546 0.0668624640176 0)
(10.0603385634 0.0703462812429 0)
(10.0614000954 0.0741878658462 0)
(10.061571991 0.0785569779861 0)
(10.0609031232 0.0836222764165 0)
(10.0594569983 0.0895704679672 0)
(10.0573279351 0.0966180153852 0)
(10.0546704963 0.105008774198 0)
(10.0517506179 0.114992099279 0)
(10.0487465096 0.126737097711 0)
(10.003371799 0.0199755773865 0)
(10.0125875575 0.0335293482194 0)
(10.0227845566 0.0409956389757 0)
(10.0307890942 0.0459817217076 0)
(10.0367627185 0.0503809188359 0)
(10.0416903608 0.0545257544864 0)
(10.0460120218 0.0583957737042 0)
(10.0497257739 0.062071264762 0)
(10.0527113937 0.0657308226429 0)
(10.0548923023 0.0695752856045 0)
(10.0562596705 0.0737898937922 0)
(10.0568510114 0.0785421669794 0)
(10.0567307546 0.0839942228361 0)
(10.0559864352 0.0903154970473 0)
(10.0547398118 0.0976878054438 0)
(10.0531666098 0.106297725622 0)
(10.0515232857 0.116313580639 0)
(10.0500369381 0.127818105163 0)
(10.002495945 0.0172485875113 0)
(10.0098773609 0.0300063431409 0)
(10.0186588247 0.0379046270547 0)
(10.02610369 0.0433593174924 0)
(10.0319407148 0.0480234181184 0)
(10.036818591 0.0523732883754 0)
(10.0411119611 0.0564836933959 0)
(10.0448562597 0.0604464340809 0)
(10.0479661602 0.0644238499989 0)
(10.0503795006 0.0686020136694 0)
(10.0520922383 0.0731576868705 0)
(10.0531478296 0.078251475421 0)
(10.0536222493 0.0840342206783 0)
(10.0536191368 0.0906538621957 0)
(10.0532755505 0.0982561302883 0)
(10.0527730513 0.10697496764 0)
(10.0523461099 0.116912692054 0)
(10.0522550316 0.12808889795 0)
(10.001862159 0.0150101493587 0)
(10.0078156381 0.0268535360954 0)
(10.0153476302 0.0348987500896 0)
(10.0221956314 0.0406902594608 0)
(10.0278477254 0.0455823410833 0)
(10.0326746373 0.0501116780912 0)
(10.0369649116 0.0544288510636 0)
(10.0407707624 0.0586416836486 0)
(10.0440362281 0.062899140086 0)
(10.046714801 0.0673705965495 0)
(10.048808498 0.0722196220688 0)
(10.0503654278 0.0775946295995 0)
(10.0514685511 0.0836302099319 0)
(10.0522296923 0.0904500394533 0)
(10.052790564 0.098164578512 0)
(10.0533269761 0.106862526525 0)
(10.0540428923 0.11659574226 0)
(10.0552205413 0.127342860202 0)
(10.001438725 0.0132652692764 0)
(10.0063843403 0.0242290701768 0)
(10.0129323163 0.0322194653651 0)
(10.0192357255 0.0382072340924 0)
(10.0246895192 0.0432673287454 0)
(10.0294700024 0.0479359716189 0)
(10.0337808967 0.052412284969 0)
(10.0376736417 0.0568190195035 0)
(10.0411121819 0.0612950816122 0)
(10.04406362 0.0659936649859 0)
(10.046535701 0.0710632366313 0)
(10.048579036 0.0766374369566 0)
(10.0502787691 0.0828335570914 0)
(10.0517475834 0.0897519071494 0)
(10.053123489 0.0974736437484 0)
(10.054569907 0.106052687679 0)
(10.0562612629 0.115506588396 0)
(10.05849866 0.125789690893 0)
(10.0011222681 0.0117984446549 0)
(10.0052746538 0.0218788886371 0)
(10.0109851256 0.0296474062669 0)
(10.0167732272 0.0357047420289 0)
(10.0220160076 0.0408744064349 0)
(10.026747329 0.0456476436712 0)
(10.0310913959 0.0502462878111 0)
(10.03508935 0.0548040796544 0)
(10.0387188721 0.0594519215809 0)
(10.0419589762 0.0643271657992 0)
(10.0448225482 0.0695615805661 0)
(10.0473614532 0.0752719506063 0)
(10.0496597006 0.0815567937013 0)
(10.0518266068 0.0884942106207 0)
(10.0539918093 0.0961394736386 0)
(10.0563027103 0.104519157852 0)
(10.0589030672 0.113625212744 0)
(10.0621130698 0.123395923826 0)
(10.0008591012 0.0103465416609 0)
(10.0043282756 0.0194419149845 0)
(10.0092684253 0.0268244134421 0)
(10.0145409635 0.0328308267895 0)
(10.0195576366 0.0380470679055 0)
(10.024247642 0.0428883207652 0)
(10.0286588111 0.0475774846979 0)
(10.0328132853 0.0522532333602 0)
(10.036696418 0.0570368697099 0)
(10.0402967812 0.0620480171548 0)
(10.0436310625 0.0673978812682 0)
(10.0467495529 0.073182945949 0)
(10.0497311399 0.0794793800247 0)
(10.0526759075 0.0863422005162 0)
(10.0556989219 0.0938012855483 0)
(10.0589256635 0.101859674176 0)
(10.0624661234 0.110489455786 0)
(10.0666591957 0.119620762419 0)
(10.0006522446 0.00891126907298 0)
(10.0035708138 0.0169342290033 0)
(10.0078510899 0.0237543120892 0)
(10.0126487244 0.029543438157 0)
(10.0174471907 0.0346897269669 0)
(10.0221138295 0.0395160005226 0)
(10.0266325601 0.0442243696755 0)
(10.0310014039 0.0489471625108 0)
(10.0352064398 0.0537924016775 0)
(10.0392413399 0.058858669259 0)
(10.0431237644 0.0642342328428 0)
(10.0468989866 0.0699912665357 0)
(10.0506358394 0.0761828716161 0)
(10.0544196793 0.0828399840041 0)
(10.0583453487 0.0899710557999 0)
(10.0625126286 0.0975597381925 0)
(10.0669960307 0.105566244489 0)
(10.0721550091 0.113918052461 0)
(10.0005030243 0.0074694187835 0)
(10.0030177817 0.0143262811164 0)
(10.0067912627 0.0203972018534 0)
(10.0112097151 0.0257690103477 0)
(10.0158420222 0.0306818040749 0)
(10.02053115 0.0353637601658 0)
(10.0252153213 0.0399773123658 0)
(10.0298682114 0.0446351000057 0)
(10.0344699841 0.0494254630217 0)
(10.0390142236 0.0544232863473 0)
(10.0435147625 0.0596914099057 0)
(10.0480078094 0.065276835287 0)
(10.0525474139 0.0712090720323 0)
(10.0571995535 0.0774979107202 0)
(10.0620350832 0.0841339881035 0)
(10.0671261862 0.0910884753488 0)
(10.0725133066 0.0983152774676 0)
(10.0785772248 0.105745997753 0)
(10.0004109523 0.00596375373112 0)
(10.0026776047 0.0115277887174 0)
(10.0061353137 0.0166417209364 0)
(10.0103288476 0.0213604836752 0)
(10.0149024946 0.0258222682484 0)
(10.0196985148 0.0301692826158 0)
(10.0246284579 0.0345124433086 0)
(10.0296456974 0.0389331189784 0)
(10.0347208835 0.0434930999082 0)
(10.0398413501 0.0482413834754 0)
(10.0450125519 0.0532141704619 0)
(10.0502570705 0.0584346982513 0)
(10.0556107206 0.0639107017087 0)
(10.0611170638 0.0696355380175 0)
(10.0668217605 0.0755872919492 0)
(10.0727698071 0.0817316110053 0)
(10.078971182 0.088022228139 0)
(10.0858262295 0.0944000082191 0)
(10.0003752872 0.00428756010363 0)
(10.0025595605 0.00835691559763 0)
(10.005929329 0.0122611857772 0)
(10.0101125394 0.0160502077219 0)
(10.0147975389 0.019792175668 0)
(10.0198323717 0.0235543665259 0)
(10.0251161901 0.0273922103881 0)
(10.0305888437 0.0313480519506 0)
(10.0362104189 0.0354525849549 0)
(10.0419582227 0.039726499011 0)
(10.0478253576 0.0441803385505 0)
(10.0538183106 0.0488146180201 0)
(10.0599535495 0.0536193132855 0)
(10.0662528443 0.0585748019977 0)
(10.072738914 0.0636522660244 0)
(10.079433856 0.0688156211157 0)
(10.086323771 0.0740227502491 0)
(10.0938297948 0.0792244624915 0)
(10.0004101489 0.00223212756965 0)
(10.0027161471 0.00444286776247 0)
(10.0062918024 0.00678519432063 0)
(10.0107588406 0.00930565201366 0)
(10.0158005908 0.0120040432281 0)
(10.0212643391 0.0148717808933 0)
(10.0270472253 0.0179056928107 0)
(10.0330836794 0.0211071433553 0)
(10.0393247118 0.0244746872533 0)
(10.0457355699 0.0280022349368 0)
(10.0522949982 0.0316767088045 0)
(10.0589931697 0.035480203873 0)
(10.0658288793 0.0393890185648 0)
(10.0728052703 0.0433760097898 0)
(10.0799262696 0.0474095632259 0)
(10.0871957694 0.0514560882902 0)
(10.0945815187 0.0554794534926 0)
(10.1025187967 0.0594412753825 0)
(10.0005378965 6.06573864891e-05 0)
(10.0032062054 0.000325472682053 0)
(10.0073170884 0.00105901184074 0)
(10.0123597058 0.00228467267174 0)
(10.0179541987 0.00391040794444 0)
(10.0239474434 0.00584242556652 0)
(10.0302559812 0.0080242396016 0)
(10.0368246472 0.0104227817344 0)
(10.0436028714 0.013012735319 0)
(10.0505474124 0.0157660630795 0)
(10.0576273989 0.0186536265408 0)
(10.0648237386 0.0216439160345 0)
(10.0721267362 0.0247069321485 0)
(10.0795309413 0.0278115637869 0)
(10.0870319324 0.0309287628193 0)
(10.0946255986 0.0340283997054 0)
(10.1022718895 0.0370829017007 0)
(10.1104117678 0.0400628301729 0)
(10.0007172277 -0.00203103345897 0)
(10.0039017634 -0.00355610127076 0)
(10.0087300957 -0.00418233653939 0)
(10.0144651762 -0.00397721092035 0)
(10.0206410727 -0.0031817589592 0)
(10.0271291759 -0.00198198542665 0)
(10.0338896988 -0.000473563016617 0)
(10.0408897668 0.00129234764307 0)
(10.0480799981 0.00327491701847 0)
(10.0554122969 0.00543095311972 0)
(10.0628512884 0.00771747270354 0)
(10.070375677 0.010094309506 0)
(10.0779737401 0.0125267351067 0)
(10.0856388463 0.0149824141938 0)
(10.0933642855 0.0174333780755 0)
(10.101144266 0.0198523524198 0)
(10.1089365966 0.0222152374451 0)
(10.1171924425 0.0244973966386 0)
(10.0010024234 -0.00432187694416 0)
(10.0049715742 -0.00764311331903 0)
(10.0107845792 -0.00943633614889 0)
(10.0173470342 -0.0100139729259 0)
(10.0241246083 -0.00985827340551 0)
(10.0310783074 -0.00924989711284 0)
(10.0382488299 -0.00829987265341 0)
(10.0456303804 -0.00706117247412 0)
(10.0531720522 -0.00558498234363 0)
(10.0608190198 -0.00392555624819 0)
(10.0685323836 -0.00213488470661 0)
(10.0762921439 -0.000256970596474 0)
(10.0840889323 0.00167058052556 0)
(10.0919174571 0.00361862717735 0)
(10.0997711855 0.00555972837829 0)
(10.1076433705 0.00747078627978 0)
(10.1154902659 0.00932866824315 0)
(10.1237604393 0.0111151341062 0)
(10.0014591715 -0.00696928028754 0)
(10.0065930165 -0.0120822135928 0)
(10.013689692 -0.0147596962747 0)
(10.0211597148 -0.0158440639073 0)
(10.0284970266 -0.0161481294988 0)
(10.0358567868 -0.0160088505981 0)
(10.0433890697 -0.0155121715327 0)
(10.0511074785 -0.0147022471125 0)
(10.0589507425 -0.0136406493644 0)
(10.066856894 -0.0123980940296 0)
(10.0747900305 -0.0110380240857 0)
(10.0827359377 -0.00960986234488 0)
(10.0906917604 -0.00814978124746 0)
(10.09865523 -0.00668493595777 0)
(10.1066213028 -0.00523725707199 0)
(10.1145821567 -0.00382636302094 0)
(10.1224954631 -0.00247232619026 0)
(10.1308285246 -0.00119691508281 0)
(10.002198288 -0.0101778981432 0)
(10.0090367873 -0.0169715259722 0)
(10.017723823 -0.0201010830362 0)
(10.026093188 -0.0213852348709 0)
(10.0338867962 -0.0219901249052 0)
(10.0415770186 -0.0222084693865 0)
(10.0494241423 -0.0220499596143 0)
(10.0574340838 -0.0215378663643 0)
(10.0655216053 -0.0207431545637 0)
(10.0736174298 -0.0197499637173 0)
(10.0816916239 -0.018629942482 0)
(10.0897412878 -0.0174363346438 0)
(10.0977723195 -0.0162054231111 0)
(10.1057882871 -0.0149646710031 0)
(10.1137843839 -0.013735596386 0)
(10.1217495497 -0.0125409035927 0)
(10.1296331363 -0.0114028126658 0)
(10.1378755073 -0.0103467567112 0)
(10.0033964862 -0.014225778572 0)
(10.0126723193 -0.0223506851096 0)
(10.0231964299 -0.0253494578195 0)
(10.0323329474 -0.0265629489693 0)
(10.0404361188 -0.0273880250323 0)
(10.0483961846 -0.0279465727686 0)
(10.0565464263 -0.0281561396936 0)
(10.0648506173 -0.0280332643719 0)
(10.0731901202 -0.0276609808812 0)
(10.0814894662 -0.0271253589711 0)
(10.0897267999 -0.0264885198672 0)
(10.0979098013 -0.0257872748848 0)
(10.1060520777 -0.0250415051608 0)
(10.1141599935 -0.0242634577577 0)
(10.1222276934 -0.0234653307527 0)
(10.1302413367 -0.0226636433487 0)
(10.1381489351 -0.0218855484368 0)
(10.146425139 -0.0211739629912 0)
(10.0053073332 -0.0194749485133 0)
(10.01795334 -0.0281500455244 0)
(10.0304058326 -0.0303423861409 0)
(10.0400337035 -0.0312323653255 0)
(10.048249812 -0.0320237728029 0)
(10.0563677866 -0.0325115234145 0)
(10.0647168116 -0.0325531008884 0)
(10.0731935481 -0.0322246698523 0)
(10.0816551515 -0.0316761892312 0)
(10.0900348773 -0.0310341707817 0)
(10.0983295545 -0.0303744195918 0)
(10.1065627164 -0.0297298815983 0)
(10.1147564669 -0.0291050353332 0)
(10.1229183139 -0.0284932686265 0)
(10.1310370825 -0.0278861428166 0)
(10.1390841489 -0.0272809064278 0)
(10.1469780889 -0.0266935122156 0)
(10.155115977 -0.0261778147774 0)
(10.0083156826 -0.0263658255821 0)
(10.0254439793 -0.0341329972348 0)
(10.0396830162 -0.0352037460405 0)
(10.0495364537 -0.0364383091982 0)
(10.0578656073 -0.0381425688506 0)
(10.0662501825 -0.039518172328 0)
(10.0748842768 -0.0402537939538 0)
(10.083560501 -0.0404245875881 0)
(10.0921141309 -0.0402246451399 0)
(10.1004993487 -0.0398284469507 0)
(10.1087435647 -0.0393518014789 0)
(10.1168970758 -0.0388548308324 0)
(10.1249996396 -0.0383592197426 0)
(10.1330674797 -0.0378650077162 0)
(10.1410924295 -0.03736068896 0)
(10.1490398547 -0.0368294064103 0)
(10.1568045642 -0.0362651956702 0)
(10.1647347923 -0.035722615978 0)
(10.0126554189 -0.0354684967037 0)
(10.0351574378 -0.0390574805979 0)
(10.0500865783 -0.0364786073262 0)
(10.0590475084 -0.0359800143566 0)
(10.0666304109 -0.0369580296421 0)
(10.0744654865 -0.0381455806794 0)
(10.0825059881 -0.0390061996409 0)
(10.0904059311 -0.0394710721923 0)
(10.097965613 -0.039639562845 0)
(10.1051551173 -0.0396308655294 0)
(10.1120357381 -0.0395333562571 0)
(10.1186922766 -0.0393959096772 0)
(10.1251939586 -0.0392390077009 0)
(10.1315824701 -0.0390621162599 0)
(10.1378725997 -0.0388481826499 0)
(10.1440471616 -0.0385574817039 0)
(10.1499869296 -0.038118421375 0)
(10.155772463 -0.0374237231683 0)
(10.0156477478 -0.0487641642952 0)
(10.0392344526 -0.052528318027 0)
(10.0459649085 -0.0497861869182 0)
(10.0433221765 -0.0486243762363 0)
(10.0380466009 -0.0485730926867 0)
(10.0321200983 -0.0487508916934 0)
(10.0255888113 -0.048789372174 0)
(10.0182334858 -0.0486258022214 0)
(10.0100129921 -0.0483100227845 0)
(10.0010602961 -0.0479103341727 0)
(9.99158679178 -0.0474781435726 0)
(9.98180742004 -0.0470427939296 0)
(9.97190090339 -0.0466162079029 0)
(9.96200245309 -0.0461960647107 0)
(9.95221501423 -0.0457654209926 0)
(9.94262536343 -0.0452774705453 0)
(9.93328004843 -0.044612055692 0)
(9.9240220492 -0.0431048052649 0)
(9.85165994141 -0.0285863380715 0)
(9.72249885914 -0.0321725665178 0)
(9.57943741875 -0.0321115879252 0)
(9.43548975466 -0.0321881613607 0)
(9.29804595748 -0.0323859316588 0)
(9.16846721376 -0.0324887638144 0)
(9.04606061724 -0.0324252521943 0)
(8.92994466105 -0.0322096316599 0)
(8.81951409031 -0.0318846100942 0)
(8.71442019977 -0.0314929380823 0)
(8.61445313708 -0.0310665987866 0)
(8.51944862465 -0.0306262794405 0)
(8.42923820108 -0.0301839556084 0)
(8.34363655203 -0.0297440592651 0)
(8.26245266918 -0.029303481562 0)
(8.18551399187 -0.0288431106089 0)
(8.11290895139 -0.028294065544 0)
(8.04291036356 -0.0270336340028 0)
(0.0186653097584 -0.0894544636786 1.88733723392e-19)
(0.0448408034735 -0.0990807843632 0)
(0.0738685480376 -0.068898266969 0)
(0.0552009662489 0.036433957092 0)
(-0.0363106359797 0.0957085013581 0)
(-0.14155806399 0.116452906053 -6.90061128546e-20)
(-0.254309895557 0.127815443169 0)
(-0.373286635185 0.135325602671 0)
(-0.497526020289 0.140473531321 3.36904278638e-20)
(-0.626076138445 0.143958120534 0)
(-0.758081742601 0.146206947707 -2.58918006761e-20)
(-0.89280824452 0.147513716125 0)
(-1.02963012281 0.148095983786 -2.18923827412e-20)
(-1.16802603379 0.148121221807 -2.06516269381e-20)
(-1.30756547438 0.14772341147 0)
(-1.44790209799 0.14701030783 1.90740483526e-20)
(-1.58876257009 0.146070271136 1.85977807998e-20)
(-1.72993969244 0.144974289566 1.82683949438e-20)
(-1.87128202368 0.143779726395 0)
(-2.01268605291 0.142530569145 0)
(-2.15408667671 0.141260064816 0)
(-2.29544968524 0.13999066526 0)
(-2.4367622358 0.138736498709 0)
(-2.57802558533 0.13750316405 0)
(-2.71924727296 0.13629036165 -1.81866630627e-20)
(-2.860435547 0.135092041332 -1.83463744903e-20)
(-3.00159368187 0.133899031539 0)
(-3.14271712481 0.132699232291 1.8731647971e-20)
(-3.28379026864 0.131480515591 1.89510940791e-20)
(-3.42478623344 0.130230754502 1.91854081521e-20)
(-3.56566713937 0.128940292318 0)
(-3.706387081 0.127601564876 0)
(-3.84689417693 0.126211273036 -1.99626175877e-20)
(-3.98713473876 0.124769049345 0)
(-4.12705699008 0.123278664598 0)
(-4.26661540789 0.121745927702 -2.08305645017e-20)
(-4.40577239389 0.120179218622 0)
(-4.54450002188 0.118586264988 0)
(-4.68277849786 0.116974086074 0)
(-4.82059295901 0.11534536 0)
(-4.95792670349 0.113698490725 0)
(-5.09475295644 0.112024070391 4.55039246137e-20)
(-5.23102375521 0.110305289494 0)
(-5.36665659492 0.108514907406 0)
(-5.50151857001 0.106616797584 4.74826748585e-20)
(-5.63540965133 0.104565375955 4.81264740106e-20)
(-5.76804950775 0.102310601932 0)
(-5.89907062609 0.0997985055669 0)
(-6.0280165336 0.0969741683699 4.99393777014e-20)
(-6.15433867341 0.0937820234227 0)
(-6.27739340784 0.0901733778051 -5.09924324126e-20)
(-6.39644688996 0.08611034186 0)
(-6.51069261657 0.0815719868096 5.18622998052e-20)
(-6.61927820885 0.0765572692891 0)
(-6.72134644893 0.0710869821088 5.2495766434e-20)
(-6.81608062296 0.0651967605581 5.2709387384e-20)
(-6.9027501731 0.058926588727 0)
(-6.98072894683 0.0523113558105 0)
(-7.04948746275 0.0453796519884 0)
(-7.10856164154 0.0381575660105 5.27887713542e-20)
(-7.1574957122 0.0306807034877 0)
(-7.19582533424 0.0229966201827 0)
(-7.22307438286 0.0151499857234 0)
(-7.23876091274 0.00718270141032 0)
(-7.24243385532 -0.00085194034991 0)
(-7.23397316807 -0.00892131233462 0)
(-7.21304851302 -0.0170302719445 0)
(-7.179248455 -0.0252272471744 -4.76659278699e-20)
(-7.13202467676 -0.033586796596 0)
(-7.07068514971 -0.0421934257004 -4.48206138903e-20)
(-6.99441670621 -0.0511268282578 -4.30832042954e-20)
(-6.9023354229 -0.0604441345571 0)
(-6.79356222127 -0.0701653268198 3.88509787798e-20)
(-6.66731770895 -0.0802577598011 0)
(-6.52302612041 -0.0906289887995 -3.34349195888e-20)
(-6.36041303091 -0.101124448512 0)
(-6.17958511303 -0.111537320806 2.66534204938e-20)
(-5.9810864592 -0.121619470744 -2.2707974376e-20)
(-5.76591639913 -0.131104331433 0)
(-5.53551045538 -0.139730746688 0)
(-5.29169147358 -0.147265865631 0)
(-5.0366014936 -0.153513147861 0)
(-4.77259743587 -0.158337119114 2.99491491166e-21)
(-4.50212032139 -0.161682528913 -9.41334357179e-21)
(-4.22763275989 -0.163564479646 3.26140149429e-20)
(-3.9515847217 -0.164024746589 4.74268153322e-20)
(-3.67627104038 -0.163147683993 6.33683267819e-20)
(-3.40365975689 -0.161089240439 0)
(-3.13541765579 -0.158040264681 0)
(-2.87315715557 -0.154143424094 0)
(-2.61826870741 -0.149495198287 1.42029347734e-19)
(-2.37172505384 -0.144270096592 0)
(-2.1340280983 -0.138661712136 0)
(-1.90560354017 -0.132882696722 2.26272101079e-19)
(-1.68709324252 -0.127201279152 0)
(-1.47883461583 -0.121877870985 -3.05062379657e-19)
(-1.2811536572 -0.11716690817 0)
(-1.09351830379 -0.113287953829 4.17305940249e-19)
(-0.915146386033 -0.110726933064 0)
(-0.747087438056 -0.109604149994 0)
(-0.587563781498 -0.110610830513 0)
(-0.438875086102 -0.113400565334 9.12454619904e-19)
(-0.296817473517 -0.116296248323 0)
(-0.156847985474 -0.122244583889 1.63545007153e-18)
(-0.0298555770958 -0.131926108696 2.57451883632e-18)
(0.111760150997 -0.130655397093 0)
(0.208036718889 -0.111997688794 0)
(0.298498021779 -0.0926087109716 0)
(0.3875412751 -0.0767419678134 1.23190898785e-18)
(0.470495523624 -0.0639822050731 0)
(0.546218384623 -0.0534911500422 0)
(0.615110013139 -0.0447134174993 8.43103418639e-19)
(0.677605145151 -0.0373048926207 7.78689398227e-19)
(0.73393728359 -0.0310046040581 0)
(0.784260533743 -0.0256169442307 -6.90569464662e-19)
(0.828733614974 -0.0209728100758 -6.59859260583e-19)
(0.867562753799 -0.0169445426559 6.35290506164e-19)
(0.900988103068 -0.0134213921798 0)
(0.929281636934 -0.0103231790033 0)
(0.952727832406 -0.00757988608287 0)
(0.971621149338 -0.00514218310768 -5.77972307477e-19)
(0.98624665336 -0.00296739835686 0)
(0.99688251781 -0.00103165444411 -5.65739585348e-19)
(1.00381632163 0.000677136656901 0)
(1.0074098318 0.00212831274273 0)
(1.00869412054 0.00331655847942 0)
(1.00771264545 0.00430083448164 5.5857583015e-19)
(1.00455257935 0.005137263601 5.59292124425e-19)
(0.999323947886 0.00585884974887 0)
(0.992153041981 0.00649207269011 0)
(0.983180253964 0.00705039218378 0)
(0.972556789335 0.00754811687746 0)
(0.96044470963 0.00798909532954 0)
(0.947017556795 0.00838008864848 0)
(0.932461985309 0.00871897106918 1.18467013292e-18)
(0.916977393788 0.00900681929478 0)
(0.900778245067 0.00923678009554 0)
(0.884092135324 0.00940624392433 0)
(0.867173373299 0.00950631804461 -1.25533379368e-18)
(0.850296928325 0.00952728481075 -1.27462351229e-18)
(0.833758057692 0.00945342501084 1.29375489318e-18)
(0.817924140802 0.00926995874026 1.31208586525e-18)
(0.803165410917 0.00895965360497 0)
(0.789814230908 0.00850080705222 0)
(0.778517637637 0.00787272183715 0)
(0.769599362754 0.00709127583689 1.36041871143e-18)
(0.763651862255 0.00619330314952 0)
(0.761642250471 0.00525789981326 0)
(0.762981030872 0.0043724162095 -1.34672395864e-18)
(0.767226686487 0.00355877811381 0)
(0.774003678857 0.00282119397036 -1.32080310304e-18)
(0.782988370897 0.00216051751011 0)
(0.793901724648 0.00157565764418 -1.28699205332e-18)
(0.806496205934 0.00106622939768 0)
(0.820550426991 0.000630587065356 0)
(0.835859233559 0.000267685890423 0)
(0.852232345208 -2.50275549682e-05 0)
(0.869487827453 -0.000249610415953 0)
(0.887451850972 -0.000408509229724 0)
(0.905952897684 -0.000502565393562 0)
(0.92482253126 -0.000532654409841 0)
(0.943890047072 -0.00049795543382 -1.10968521781e-18)
(0.962982305692 -0.000397423347516 0)
(0.98191508383 -0.000229651220681 0)
(1.00049111838 9.12405315021e-06 -1.05974881142e-18)
(1.0184947563 0.000325100072933 0)
(1.03568549186 0.00072080881825 0)
(1.0517845571 0.00119782432016 -1.02061244802e-18)
(1.06647100607 0.00175472430786 0)
(1.07937396199 0.00238288368668 0)
(1.0900718547 0.00306163317427 -9.96067408479e-19)
(1.09813463206 0.00377723489151 9.91870372226e-19)
(1.10320531206 0.00448192089773 -9.89779852575e-19)
(1.10519319156 0.00509770648659 0)
(1.10519681808 0.00562383857163 0)
(1.10262248194 0.00618997402897 -1.98233151309e-18)
(1.09610772513 0.00699981601372 0)
(1.08318063443 0.00833068914362 2.00481564488e-18)
(1.06878680755 0.0105022692886 2.03056459648e-18)
(0.932487897397 0.0111248017036 0)
(-0.00704547296979 -0.0449447241035 -5.11056965103e-19)
(-0.0971889893832 0.0997889835156 0)
(-0.178652591806 0.180948916835 1.28698742464e-19)
(-0.251943062801 0.237779569461 -9.09680223209e-20)
(-0.34508314121 0.283257833241 -7.24005315666e-20)
(-0.44879173279 0.314598917058 3.01151635485e-20)
(-0.560924832146 0.337542644932 5.22578611101e-20)
(-0.679767087981 0.354682340663 0)
(-0.803842274367 0.367407610948 -2.05874221613e-20)
(-0.931945285321 0.37663369451 3.84503778234e-20)
(-1.06309730415 0.383029670318 5.36557982531e-20)
(-1.19649924081 0.387117700311 -3.41505811234e-20)
(-1.33149512411 0.389325543629 4.88938901638e-20)
(-1.46755099375 0.390013465585 1.56081470971e-20)
(-1.60423646818 0.389491455915 0)
(-1.7412127557 0.388027197067 -1.50836220335e-20)
(-1.87822033315 0.385852714327 -1.49805695951e-20)
(-2.01506947785 0.383166305685 -1.49569543086e-20)
(-2.1516296497 0.380135866767 3.05495355624e-20)
(-2.28782019229 0.376898933137 0)
(-2.42360025282 0.373565212745 3.09682881409e-20)
(-2.55895988384 0.370216786121 0)
(-2.69391065587 0.366911203759 -3.16743193693e-20)
(-2.82847736786 0.363682324785 0)
(-2.96268996438 0.360544455249 4.86572336533e-20)
(-3.09657768717 0.357494223093 -1.67464852541e-20)
(-3.23016387792 0.35451563792 -3.36277088343e-20)
(-3.36346264506 0.351582728472 -5.11066792613e-20)
(-3.49647654314 0.348665197718 -1.72164006981e-20)
(-3.62919702556 0.345730981631 -1.7529682643e-20)
(-3.76160578893 0.342751451308 0)
(-3.89367789769 0.339703064478 -3.66717956106e-20)
(-4.02538532922 0.336571320185 1.85219500148e-20)
(-4.15670180176 0.333350147879 0)
(-4.28760690736 0.330043425473 0)
(-4.41808985744 0.326661840544 1.95815741444e-20)
(-4.54815132149 0.323221893217 0)
(-4.67780371201 0.319739796887 0)
(-4.80706811997 0.31622836356 0)
(-4.93596818322 0.312689430369 0)
(-5.06452107826 0.309110558102 0)
(-5.19272651946 0.305457667056 4.41671089159e-20)
(-5.32055359785 0.301672696397 8.93683633957e-20)
(-5.44792489405 0.297667969765 0)
(-5.57469719588 0.29332725689 4.64731839738e-20)
(-5.70064099908 0.288506846765 -4.66690716534e-20)
(-5.82542786079 0.28304589168 0)
(-5.94862945061 0.276771711203 0)
(-6.06971995729 0.269507691616 -1.46916176225e-19)
(-6.18807104836 0.261078459885 -9.94813036559e-20)
(-6.30294789631 0.251329184512 5.00013645689e-20)
(-6.41352040686 0.240140068959 1.01904097036e-19)
(-6.51888589072 0.22744338802 5.18935493734e-20)
(-6.61810449606 0.213234945637 0)
(-6.71025938081 0.197576243735 -1.56789664176e-19)
(-6.79451203419 0.180577094396 -5.23288665316e-20)
(-6.87015491615 0.162374447334 0)
(-6.93661251851 0.143116704953 1.06598284567e-19)
(-6.99341200271 0.122958358694 -1.0690634854e-19)
(-7.0401443694 0.102066960666 -5.30531325018e-20)
(-7.07636130497 0.0806215954082 0)
(-7.10161982168 0.0587930549437 0)
(-7.11547146863 0.036728751188 0)
(-7.11743336847 0.0145752234544 1.05550371738e-19)
(-7.10788569344 -0.00750812855198 0)
(-7.08702949471 -0.0294245876384 -1.02356721085e-19)
(-7.05459900753 -0.0512650616201 0)
(-7.01018175027 -0.0732005127379 -4.95346680505e-20)
(-6.95318719389 -0.0954568489983 0)
(-6.88285122654 -0.118280371065 -4.67297183119e-20)
(-6.79826398218 -0.141898471222 -4.50203992604e-20)