/*--------------------------------*- C++ -*----------------------------------*\
| =========                 |                                                 |
| \\      /  F ield         | OpenFOAM: The Open Source CFD Toolbox           |
|  \\    /   O peration     | Version:  v1806                                 |
|   \\  /    A nd           | Web:      www.OpenFOAM.com                      |
|    \\/     M anipulation  |                                                 |
\*---------------------------------------------------------------------------*/
FoamFile
{
    version     2.0;
    format      ascii;
    class       volScalarField;
    location    "16";
    object      alpha;
}
// * * * * * * * * * * * * * * * * * * * * * * * * * * * * * * * * * * * * * //

dimensions      [0 0 -1 0 0 0 0];


internalField   nonuniform List<scalar> 
12225
(
0.392374672299
0.331124572545
0.350780319688
0.350700738322
0.362352231316
0.366560223764
0.372381086718
0.376327257865
0.378424295667
0.37752191337
0.372179137716
0.363742454541
0.356932045315
0.345354778153
0.322475847638
0.292851232008
0.254892910581
0.222916166977
0.227277811044
0.283533628684
0.31531355396
0.310733864953
0.319646065134
0.321985006276
0.325661102128
0.327959211891
0.329245736417
0.328854882409
0.325460397815
0.319282095303
0.312791547402
0.30314715918
0.286048696641
0.26411582675
0.240209455307
0.23768904583
0.370067187677
0.301854303758
0.319351543958
0.317774087792
0.327203361551
0.330461575152
0.33484971339
0.337797928477
0.339823025006
0.340435100734
0.33894971575
0.335223985727
0.329733699202
0.320933274454
0.306609774527
0.288802986368
0.27248415081
0.277138994831
0.311360885384
0.28916737655
0.315588143165
0.309730361649
0.318335939974
0.319999819669
0.323103000686
0.324962007765
0.326215790923
0.326457621953
0.325362458843
0.322749475547
0.318471522197
0.311632295827
0.301410988231
0.28988005455
0.282458303947
0.291515031958
0.338325043357
0.290203427211
0.313936852881
0.307317682131
0.31499791959
0.315765031951
0.317984423303
0.318944719074
0.319277824755
0.318671885178
0.316991708757
0.314137805455
0.309886432776
0.303826847535
0.296056216332
0.28880015091
0.286785856693
0.296687764041
0.329705441815
0.286327362154
0.310909866939
0.30286753974
0.31002038755
0.310070557905
0.311750284663
0.312209125358
0.312098781976
0.311164136656
0.309352384614
0.306618404192
0.302810671157
0.297848029472
0.292320516412
0.288372893363
0.28951425223
0.298901550209
0.331125562805
0.284913640338
0.308400313302
0.299517081249
0.306014358843
0.305429674281
0.306607604669
0.306633897734
0.306178881008
0.305034926413
0.303200286585
0.300676838338
0.297439627354
0.293629231481
0.290047245363
0.28853240948
0.291424933358
0.300012986354
0.329617971181
0.283519294765
0.306265019249
0.296653930549
0.30260136692
0.301496939342
0.302288504725
0.30200426489
0.301357494854
0.300158072956
0.298428766775
0.29621606111
0.29361351902
0.290900343796
0.288922472942
0.289115839658
0.292934544551
0.300704574246
0.328594459634
0.28274453853
0.30454167823
0.294415818954
0.299847317047
0.298299641231
0.298771461233
0.298270906408
0.297545064732
0.296397018793
0.29486178718
0.293035406204
0.29109747631
0.289396015217
0.288697112223
0.29007292919
0.294336461085
0.301409202002
0.327781343493
0.282415737966
0.303361223648
0.292862471184
0.297860081267
0.295948413753
0.296185403153
0.295558573845
0.294823302207
0.29377552138
0.292485059224
0.291095411461
0.289833087379
0.289042101489
0.289353160632
0.291520077992
0.295951135157
0.302371402372
0.327867585804
0.282335205089
0.303008198313
0.292170186874
0.296919488122
0.294799301381
0.294955701478
0.294302011214
0.293615223477
0.292718856579
0.291718974507
0.290763749344
0.290080497438
0.28996977739
0.290926740877
0.293456457538
0.297718257314
0.303412497556
0.331795737672
0.282446311376
0.304456085793
0.293050404388
0.297859941783
0.295644331564
0.295783192784
0.295129011644
0.294533418402
0.293791612477
0.292954122404
0.29218935629
0.291734265311
0.291874706364
0.292989679538
0.295425473411
0.299247432085
0.30416276244
0.335035756035
0.283103866023
0.305916126372
0.294107313615
0.298746083856
0.296362957168
0.296403325672
0.295672927219
0.2949885493
0.294167004951
0.293316780871
0.292610928856
0.292318887158
0.292647378529
0.293907152813
0.296304396255
0.29980936962
0.304163968062
0.338978573422
0.283927000218
0.307582472277
0.295246999043
0.29967990258
0.296951239383
0.29669268826
0.295746284692
0.294952671275
0.294126085368
0.293381850304
0.292907339569
0.292936380947
0.293612325137
0.295098969779
0.297520127261
0.300737566516
0.304606907459
0.344119105619
0.284829754821
0.309678016245
0.296631691894
0.300853159755
0.297716257503
0.297118243978
0.295916690612
0.294996171626
0.294205011041
0.293625023076
0.293452325251
0.293859967411
0.294869585904
0.296561173558
0.298959794848
0.301913487326
0.305285033233
0.349539855094
0.285799547707
0.312075570895
0.298326273155
0.30243978511
0.298951776267
0.298101823967
0.296712933913
0.295738204178
0.294992802117
0.29460093771
0.294674495609
0.295369709824
0.296584519903
0.298360574505
0.300647964952
0.303314761177
0.306265959678
0.354451972804
0.2866905254
0.314512546188
0.300191979415
0.304343789369
0.300646445725
0.299691962882
0.298245537227
0.297295856783
0.296662860983
0.296413905601
0.29667138357
0.297515721263
0.298817433383
0.300548680437
0.302679894876
0.305046429304
0.307652741123
0.359102427903
0.287376809274
0.316842457177
0.302056155813
0.306386648248
0.30262306209
0.301707278884
0.300299574775
0.299436292492
0.298916344354
0.298788730286
0.299157467039
0.300069065085
0.301362618565
0.302998559393
0.304951664598
0.307062383818
0.309366123038
0.361671357069
0.28747632924
0.318085854008
0.303118018578
0.307736018982
0.304113149764
0.30341772297
0.302208974804
0.301554303887
0.301232123395
0.301276350429
0.301769315858
0.302743813489
0.304024382488
0.305577945541
0.30739088826
0.309314678013
0.311393360853
0.356359775385
0.28684118337
0.316532085991
0.30240633568
0.307490001362
0.304521766626
0.304449532591
0.303877650958
0.30379626189
0.303983919823
0.304444866391
0.305244670287
0.306420167072
0.307809269566
0.309383616311
0.31113927334
0.312942679322
0.314828145644
0.352137517068
0.285796356921
0.314686923136
0.301174565291
0.306616735113
0.304170239346
0.304590657037
0.304479762416
0.304837113224
0.30538619209
0.306138973518
0.30713795644
0.308452705666
0.309897813635
0.311483082283
0.313185647588
0.314914334172
0.31667878372
0.349181515167
0.284805856344
0.312874844914
0.299889562336
0.305606291104
0.303616087061
0.304436465575
0.304726252765
0.305425275635
0.30626302875
0.307250488392
0.308407651421
0.309817076388
0.311315504929
0.312900587962
0.314573315801
0.316236428606
0.317931902562
0.344235436623
0.283334330335
0.3111344762
0.298620116272
0.304626282768
0.303075339986
0.304280772791
0.304936297622
0.305954303774
0.307073668522
0.308263419449
0.309586124404
0.311105873063
0.312680815157
0.314286226681
0.315970682889
0.317615216235
0.319272704225
0.344523802557
0.282720989887
0.308964688543
0.29710353526
0.303353661148
0.302240331621
0.303807570925
0.304818444458
0.306128129655
0.30748101771
0.308866965528
0.310326183357
0.311943179892
0.313570884072
0.315226837475
0.316922877803
0.318574675338
0.320186727823
0.329774263092
0.280242655868
0.307604941318
0.296210700468
0.302765636958
0.302072787955
0.30398636118
0.305294485063
0.306865711678
0.308443114433
0.310013844468
0.311596731479
0.313308262865
0.315006578139
0.316700074415
0.318443456893
0.320156798768
0.321833888671
0.353287717286
0.281399825721
0.304043776757
0.29383112332
0.300385792796
0.300102337404
0.302237633168
0.303804240244
0.305593454193
0.307380387556
0.309121697186
0.310843460906
0.31265342436
0.314446688175
0.316226089446
0.318029106499
0.3197844982
0.32135135847
0.283583151978
0.275656116994
0.302776355354
0.29323782853
0.300142005958
0.300343987538
0.302852793667
0.304754072324
0.30685776741
0.308955095023
0.311022543534
0.312929423178
0.314850659979
0.316748947097
0.318576855863
0.320427828581
0.322298281647
0.324348694138
0.404457502656
0.283371099838
0.293797679549
0.28756518111
0.293878235294
0.294352693924
0.296700607772
0.298429020171
0.300282071469
0.302126088011
0.303827330931
0.305412075642
0.307066912323
0.308710582056
0.310335211511
0.312086745668
0.313937324466
0.31540985722
0.16059351621
0.262391744032
0.287897873566
0.281329967665
0.287623711376
0.288630506473
0.291572871728
0.294203319965
0.297203523266
0.300445446343
0.303821763393
0.30698388251
0.310187462172
0.313523385167
0.316907933874
0.320353591317
0.323904151333
0.327351470359
0.329589593651
0.298932999326
0.302972244543
0.301472107022
0.308917920066
0.309872389039
0.31240695314
0.314362830998
0.316349288306
0.318090496205
0.31948987582
0.320795002467
0.32216234226
0.323211528509
0.323945731497
0.324557636628
0.324862312887
0.325594921881
0.476038484328
0.476397448334
0.476581400167
0.476563121819
0.476350582281
0.475983778024
0.475558871286
0.475109376657
0.474660875345
0.474231345433
0.473832831394
0.473472625063
0.473154579685
0.472880013627
0.472648461211
0.472458093178
0.472306398524
0.472190017149
0.472105782762
0.472050630288
0.472021167777
0.472015111167
0.472029088626
0.472062348697
0.472112915068
0.472181206953
0.472265557632
0.472366268382
0.472482685668
0.472615660272
0.472764939741
0.472931092227
0.473113744416
0.473313728389
0.473530858746
0.47376502602
0.474015114306
0.474281857252
0.474564080722
0.474861694601
0.475173311976
0.475498126404
0.475834427574
0.476180502811
0.476534212276
0.476892966498
0.477254155264
0.477614638772
0.47797116338
0.478320784615
0.478660664161
0.478989467655
0.479304058482
0.479600286721
0.479872822383
0.480116614863
0.480326303459
0.480496581659
0.480621978463
0.480697319623
0.480718598617
0.480684690703
0.480594763269
0.480446168611
0.480238039297
0.479973459954
0.479654453325
0.479283099345
0.478862741279
0.478396211836
0.477887855814
0.477341610022
0.476762320898
0.476154294401
0.475522265692
0.474870283753
0.474202385408
0.473523177352
0.472836516361
0.472145083364
0.47145097809
0.470757520517
0.470066779675
0.469381401502
0.4687005428
0.468026751601
0.467359958111
0.466693839629
0.466032026247
0.465371123296
0.464710561464
0.464050310281
0.463388615948
0.462752361641
0.462156560241
0.461563701428
0.460942327878
0.460307349594
0.459660859364
0.459008932221
0.458246453555
0.457394715328
0.457274178739
0.457256032238
0.45707593192
0.45667733725
0.456094419488
0.455800351186
0.455437790373
0.455114058257
0.454857039854
0.454615044594
0.454399484204
0.454203222275
0.454023195883
0.453856490442
0.453700071485
0.453550618149
0.453407144478
0.453270575758
0.453144221106
0.453029277881
0.452924392951
0.452828415311
0.452738463184
0.452653251837
0.452571999779
0.45249416131
0.452419308542
0.452346980197
0.452276736883
0.452208298549
0.452141448257
0.452076227084
0.452012619173
0.451950767104
0.451890752339
0.451832271517
0.451775855804
0.451721760656
0.451671896303
0.451625000818
0.451581959852
0.451544280275
0.451513629359
0.451491790555
0.451479849883
0.451478590107
0.451488687773
0.451510662703
0.451545574392
0.451594924008
0.451660409393
0.451743647663
0.451846389141
0.451970434636
0.45211781438
0.452290754758
0.452492192468
0.452725704243
0.452996623986
0.453310654235
0.453675849175
0.45410351738
0.454609103978
0.455209583059
0.45592588163
0.456774571769
0.457768832433
0.458931341841
0.460274948016
0.4617961388
0.463477243149
0.46527738154
0.467137599015
0.469113937683
0.471155839003
0.473186724581
0.475097844986
0.476595640265
0.476136468168
0.476376198589
0.476281002829
0.475994357632
0.475644691124
0.47528646768
0.474941631071
0.4746200241
0.474325862599
0.474061414511
0.473827373824
0.47362471324
0.473452864616
0.4733115876
0.473199543407
0.473115548402
0.473057647347
0.473023890784
0.473011648113
0.473019295956
0.473044171234
0.473084774332
0.473138687715
0.47320568086
0.473284314636
0.473375431823
0.473478143446
0.473593281872
0.47372100617
0.47386260509
0.474018185624
0.474188689825
0.474374625344
0.474577110085
0.474795731371
0.475031125667
0.475282910517
0.475551290825
0.475835693285
0.476136181384
0.476451732195
0.47678152634
0.477124059826
0.47747756514
0.477839799111
0.47820801114
0.478578874169
0.4789488271
0.479313310297
0.479667259159
0.480003176192
0.480316146397
0.480603388021
0.480862078701
0.48108845398
0.481278807454
0.48142946158
0.481534857307
0.481589188978
0.481590505967
0.481537470197
0.481427918847
0.481262176387
0.481044065852
0.480772836468
0.480446349732
0.48006482867
0.479628875085
0.479139651084
0.478598370875
0.478007128738
0.477368184203
0.476684963389
0.475961092009
0.475200707517
0.474408460006
0.473589433065
0.472748904772
0.47189234253
0.471023742176
0.470146231634
0.469263730466
0.468380582972
0.467498901235
0.466617384298
0.465741732556
0.464879119445
0.464020379872
0.463145114628
0.462271859019
0.461430921272
0.460588464553
0.459703863506
0.458806378066
0.457979867772
0.457228497127
0.456443178723
0.455804937771
0.455170337527
0.45450063411
0.453856194062
0.453081355212
0.452519009546
0.451907983826
0.451347946927
0.450814038411
0.450513690846
0.450285259641
0.450100675606
0.449912624033
0.449685550048
0.449441286633
0.449200504209
0.44896170992
0.448725612223
0.448491813015
0.448258789115
0.448024637612
0.447788654606
0.447553565693
0.447323212716
0.447099453336
0.44688238823
0.446670370549
0.446461525655
0.446254982477
0.446050104614
0.445846520878
0.44564381049
0.445441854332
0.445240620131
0.445040139602
0.444840330392
0.444641094108
0.444442173374
0.444243316109
0.444043923971
0.443843169395
0.443640359946
0.443435896724
0.443230144164
0.443021995109
0.442811118155
0.442597805374
0.442382908872
0.442166846275
0.441949213963
0.441729022802
0.441505044573
0.441276260416
0.441041550816
0.440799703506
0.440549491749
0.440290210836
0.440021972935
0.439745582356
0.43946298383
0.439176735194
0.438890361027
0.438607102649
0.438331918346
0.438070341284
0.437827773277
0.437608296421
0.437415669945
0.437252956343
0.437116662465
0.43701452332
0.436945740102
0.436908688803
0.436904921764
0.4369412913
0.437027659168
0.437167458197
0.437429454669
0.437723006744
0.438070332895
0.438463134955
0.438858235691
0.439274799343
0.475776444892
0.475850364939
0.475811456828
0.475691416262
0.475564596371
0.475459584268
0.47536683646
0.475279148388
0.475192445198
0.475106755552
0.475023099215
0.47494350423
0.47486994025
0.47480446533
0.474748561251
0.474703462954
0.474669663457
0.474647477424
0.474636472027
0.474636179266
0.4746456487
0.474664839642
0.474692163149
0.47472796357
0.474771813105
0.474824437447
0.474885613521
0.47495658709
0.475037762447
0.475130480457
0.475235290873
0.47535363756
0.475485873389
0.475633033162
0.475795447443
0.475973643639
0.476167177787
0.476376630581
0.476601455813
0.476841391347
0.477095545195
0.477362919342
0.477641976568
0.477930850323
0.478227225575
0.478528412178
0.478831164828
0.479131943224
0.479426755932
0.479711318151
0.479979515563
0.48022499968
0.480440895057
0.480622741958
0.480767070603
0.480871112951
0.480932556601
0.480951506587
0.480928870132
0.480863156319
0.480751727054
0.480592455756
0.480380193622
0.480110908154
0.479786017226
0.47940445819
0.478964948711
0.478467292511
0.4779129519
0.477304276996
0.476644937052
0.475939325247
0.47519251378
0.474409881275
0.473596913551
0.472759115348
0.47190179733
0.471030261471
0.470149522151
0.469264438631
0.468377338754
0.467491404019
0.466611355478
0.465740334498
0.464874970828
0.46401416565
0.463172659555
0.462354000375
0.461535098818
0.460706917881
0.459903763125
0.459153657938
0.458381714605
0.457611667871
0.456878491641
0.456179777734
0.455540601905
0.45505690733
0.454499220894
0.453752870481
0.452936187925
0.452361248488
0.452067190663
0.451756188344
0.451596530708
0.451382775606
0.451011742852
0.450492156601
0.450000086017
0.449558401176
0.449146703185
0.44877255433
0.448432129527
0.448114248277
0.447813288156
0.447525196624
0.447246536508
0.446974691715
0.44670878671
0.446451023078
0.4462038019
0.445967716002
0.445741452864
0.445522785877
0.445310580705
0.445104110526
0.444902896518
0.444706565248
0.444514801774
0.444327137404
0.444142914292
0.443961464902
0.443782338367
0.443605226554
0.443429814493
0.443255693825
0.443082252802
0.442909077275
0.442736089743
0.442564577141
0.442394766953
0.442225789344
0.442056477585
0.441887116106
0.441719122706
0.44155357728
0.441390909294
0.441231045729
0.441074036582
0.440919976591
0.440768996628
0.44062103733
0.440476193029
0.440334427597
0.440195493639
0.4400588932
0.439923926791
0.439789479801
0.439654413979
0.4395171004
0.439375912301
0.439229242263
0.439075477062
0.438912872196
0.43874019369
0.438555953592
0.438357607526
0.438144748303
0.43792051029
0.437687751594
0.437451353402
0.437221147735
0.437009522499
0.436841257819
0.436742651678
0.43673151743
0.436826197789
0.437031876557
0.437301975235
0.437484405263
0.475307321641
0.475415970985
0.475668541692
0.475802872722
0.475873968426
0.475929000701
0.475961391605
0.475970121941
0.475956754422
0.475924527596
0.475877155507
0.475819046166
0.475753813983
0.475685113983
0.47561575551
0.475548265356
0.475484364929
0.475425425092
0.475371939747
0.47532491786
0.475283981399
0.475249434498
0.475221087379
0.475199571601
0.475184485624
0.47517721647
0.475178066463
0.475188338286
0.475208807094
0.475241111547
0.475286126369
0.47534518599
0.475419143394
0.475509353264
0.47561575933
0.475739302937
0.475879930365
0.47603778974
0.476212313676
0.476403237055
0.476609388638
0.476829523809
0.477061748381
0.477303790419
0.477552904799
0.47780589145
0.478058988482
0.478308356882
0.478549536887
0.478777736068
0.478988319837
0.479177753964
0.479340352777
0.479471275357
0.479566039964
0.479620896647
0.479632397095
0.479598870085
0.479521689245
0.479403543843
0.479245035277
0.479044972686
0.478800538953
0.478506695732
0.47815731708
0.477748603617
0.477278606246
0.476746389218
0.476152386521
0.475498605158
0.474788546232
0.474027324391
0.473221443934
0.472377782118
0.471503621796
0.470607127448
0.469695524519
0.468774274939
0.467850369636
0.466930436038
0.466016644297
0.465108289471
0.464213444285
0.463341471199
0.462484278972
0.461634227813
0.460805639237
0.460031960097
0.459267458177
0.458502126783
0.457770360748
0.457089346306
0.456447429879
0.455824032014
0.455250294806
0.454676127988
0.454041462062
0.453353332148
0.452564094214
0.451815804367
0.451300187735
0.451088290887
0.45094076519
0.450750271635
0.450581448521
0.45026753817
0.449759868872
0.449122425854
0.448496204948
0.447935757599
0.447445149886
0.447019325658
0.446643728132
0.44630372109
0.445990458485
0.445697644888
0.44542058525
0.445155761796
0.444902097024
0.444660616814
0.444432375141
0.444216318902
0.444009430822
0.443809428376
0.443615172214
0.443426047219
0.443241512061
0.443061043543
0.442884072082
0.442710058317
0.44253821887
0.442368051953
0.442199381228
0.442031892371
0.441865179404
0.441698550228
0.441531483984
0.441363951374
0.441196801671
0.441031486884
0.440868456444
0.440706175418
0.440542797616
0.440378338022
0.440213903444
0.440050392202
0.439888046923
0.439726690084
0.439566057684
0.439405855218
0.439245866361
0.439085870942
0.438925979111
0.438766296853
0.438606925865
0.438447994663
0.438289781921
0.438132805693
0.437977727259
0.437825266203
0.437675853653
0.437529980272
0.437388076185
0.437249979267
0.437115097966
0.43698209912
0.436847657424
0.43670960449
0.43656606196
0.436413929907
0.43625146325
0.436080153623
0.435903615931
0.435729702962
0.435576710961
0.435451602834
0.435365567276
0.435317809534
0.435254802256
0.435047905684
0.474766668997
0.475393971623
0.476036893917
0.476278728763
0.476365977812
0.476423297951
0.47645693087
0.476468788166
0.476458233725
0.476427228734
0.476377657988
0.476312591753
0.476235057068
0.476148590493
0.476056004226
0.475960254041
0.475863265975
0.475767238867
0.475673247506
0.475582366808
0.475495060428
0.475412502972
0.475334319905
0.475261669703
0.47519498093
0.475135288621
0.475083175902
0.475040311723
0.475007609054
0.474986706254
0.474978618044
0.474985096412
0.475006794984
0.475044898855
0.475099980481
0.475172793724
0.475263038795
0.475371284388
0.475496947989
0.47563965055
0.475798287686
0.4759716775
0.476157943751
0.476354953368
0.476560008872
0.476770185858
0.47698191862
0.47719146871
0.477394829545
0.477587414786
0.477763115784
0.477917636266
0.478045688097
0.478142169066
0.478203063114
0.478224899
0.478203866528
0.478137457015
0.478025210911
0.477865696192
0.477657785498
0.477400955391
0.477094680642
0.476739375542
0.476333843923
0.475875267798
0.475361107996
0.474789544683
0.474160561902
0.473475308067
0.472736609897
0.471948871522
0.471119053641
0.470253066886
0.469357710199
0.468441663418
0.467513725067
0.466577423086
0.465636597773
0.464704119139
0.463786377236
0.462873455338
0.461971870581
0.461100100348
0.460246859934
0.459398304103
0.458575012056
0.45779689478
0.457072582471
0.456367657355
0.4556652494
0.455017224108
0.454384787593
0.453784306123
0.453162019158
0.452432731513
0.451647407219
0.450884334961
0.450227466749
0.449810335229
0.449645413052
0.449606806761
0.449500542846
0.44930980628
0.449051056428
0.448655839623
0.448140767783
0.447561311943
0.446994799682
0.446479642632
0.446026830923
0.445632384316
0.445284647259
0.444971921855
0.44468588046
0.444420148936
0.444169816998
0.443931539653
0.44370432606
0.443488783381
0.443285156707
0.443091459049
0.442904600954
0.442722793295
0.442545476227
0.442372534854
0.442203844741
0.442039176341
0.441878166444
0.441720417525
0.441565629964
0.441413485998
0.441263527226
0.441115326274
0.440968300787
0.440821776804
0.440675430972
0.440529660915
0.440386105277
0.440246254361
0.440110435674
0.439976230828
0.439841358538
0.439705392127
0.439569032297
0.439433090894
0.439297816171
0.439163131645
0.439028795094
0.438894523436
0.438760138123
0.438625495186
0.438490436978
0.438354866202
0.438218714618
0.438082053526
0.437944924299
0.437807352479
0.437669491819
0.437531527317
0.437393358142
0.437254905237
0.437116004764
0.436976119336
0.436834731812
0.436690857551
0.436542271204
0.436387970011
0.436227655518
0.436059930541
0.435885363188
0.435706726097
0.435527074997
0.435352057674
0.43519196927
0.435048986678
0.434919780808
0.434787185027
0.434587378351
0.434207338108
0.474278454927
0.476020304342
0.476881671568
0.476900932206
0.476810063998
0.47676907677
0.476750254868
0.476734498943
0.476708544657
0.476666940805
0.476607459056
0.476531841628
0.476441771838
0.476340517829
0.476230397565
0.476114427711
0.475994501487
0.475872850704
0.475750564576
0.475629571476
0.475510165842
0.475393442719
0.475280048351
0.475171057779
0.47506665956
0.474968574053
0.474877576265
0.474795235712
0.474722671584
0.474661686898
0.474613440694
0.474579438589
0.474560685223
0.474558582267
0.474573249022
0.474605624655
0.474655686789
0.474723552863
0.474808538901
0.474910249838
0.475027292096
0.475158353634
0.475301325177
0.475453973532
0.475613491781
0.475776974461
0.475940885744
0.476101881101
0.47625604406
0.476398892751
0.476524545799
0.476628758136
0.476705764674
0.476750317555
0.476757711314
0.476723765303
0.476644644048
0.476520964447
0.476354185179
0.476145181036
0.47589389388
0.47560013658
0.475261990743
0.47487813397
0.474443705157
0.473955206435
0.473409066171
0.472803027774
0.472137331224
0.471414750887
0.470637586383
0.469811571358
0.468945529108
0.46804791591
0.467122713248
0.466179682001
0.465232500784
0.464286649905
0.463338368955
0.462397044514
0.461487218026
0.460573686384
0.459673123305
0.458799021563
0.457962944652
0.457169379236
0.456396415368
0.455650698273
0.454932505284
0.454224051833
0.45356713703
0.452917675458
0.452199934504
0.451473037937
0.450730717739
0.450005468128
0.449363798299
0.448849074047
0.448484451561
0.448304134448
0.448240210058
0.448167931924
0.44800237268
0.447756475829
0.447435293382
0.447021209611
0.446542731317
0.446038047607
0.445547922588
0.445094453221
0.444686558393
0.444322994804
0.443997349366
0.443702145925
0.44343116168
0.443179190986
0.442942058054
0.442717306293
0.442504321469
0.442303750544
0.442115346846
0.441936650142
0.441764965748
0.44159880244
0.441437769246
0.441281825082
0.441130911119
0.440984796807
0.440843091512
0.440705279747
0.440570757104
0.440438714192
0.440308490124
0.440179488207
0.440050991528
0.439922249432
0.439793088867
0.439664575433
0.439538680595
0.439417318414
0.439300333762
0.439185168543
0.439069542539
0.438952772221
0.438835394264
0.438718023679
0.438600938867
0.438484126281
0.438367436937
0.438250866412
0.438134329867
0.438017759586
0.437901075194
0.437784123042
0.437666817311
0.437549057849
0.437430795062
0.437311952498
0.437192538959
0.43707252131
0.436951643327
0.436829665408
0.436706181603
0.43658043978
0.436451544843
0.436318278722
0.436178466908
0.436030978909
0.435875212661
0.435709740773
0.435535321493
0.435354564479
0.435169828077
0.434985139484
0.434808811334
0.434641159764
0.434475285549
0.434288601609
0.434020008535
0.433580782377
0.474016670876
0.477336428496
0.477953330187
0.477425101842
0.477102443547
0.476961794993
0.476890169572
0.476836958733
0.47677709205
0.476703521421
0.476612863186
0.476506682928
0.47638621416
0.476254633226
0.47611375238
0.475966540746
0.475814445629
0.475659948555
0.475504010219
0.475348070416
0.475192881246
0.475039983831
0.474889374397
0.474742538389
0.474600188025
0.474463515132
0.474333357943
0.474211493628
0.474098947078
0.473997441235
0.47390807235
0.47383258035
0.473771676959
0.473726502044
0.47369762645
0.473685682872
0.473690353384
0.473711981932
0.47374976592
0.473803094086
0.473870547434
0.473950777059
0.474041685332
0.474141200631
0.474246731412
0.474355915308
0.474465729686
0.474573448446
0.474676205
0.47477056547
0.474849936428
0.474910739308
0.474946566285
0.474950129245
0.474914961721
0.474835113069
0.474707303452
0.474534712428
0.474319092431
0.474062366404
0.473765535915
0.473431063271
0.473059112666
0.472647222955
0.472187999584
0.47167735497
0.471109690455
0.470480655265
0.469790585187
0.469043565272
0.468242726323
0.467390921529
0.466500927326
0.465586811341
0.464651522146
0.463700932069
0.462750004275
0.461804569638
0.460855072096
0.459918663758
0.459004031604
0.458125215821
0.457285757643
0.456459768882
0.455657143039
0.454889094796
0.454157087255
0.453460862032
0.452763795267
0.452042180305
0.451339213777
0.450621139542
0.449898201236
0.449215252411
0.448575909439
0.448024711167
0.447588937828
0.447274526151
0.447061315813
0.446938189211
0.446831186413
0.446670975237
0.44644172587
0.44615764125
0.44581685039
0.445420701235
0.444992935317
0.444557305711
0.444135665726
0.443740687623
0.44337855032
0.443049683245
0.442751330847
0.442479261699
0.442229297957
0.441997401769
0.4417803517
0.44157624667
0.441384745284
0.441206111721
0.441039378344
0.440882005581
0.440731397979
0.440586123417
0.440445639455
0.44030977095
0.440178335266
0.440051036857
0.439927422102
0.43980692937
0.439688988789
0.439573113769
0.439458885008
0.439345742765
0.439232944032
0.43911978513
0.439006348643
0.438894059455
0.438785130161
0.438681407317
0.438582221592
0.438485059568
0.438387659068
0.438289356229
0.438190517206
0.438091547849
0.437992595072
0.437893524043
0.437794305362
0.43769485279
0.437595155069
0.437495147004
0.437394768529
0.437293972484
0.437192657154
0.437090694995
0.436988008875
0.436884514874
0.436780191647
0.436674911405
0.436568346022
0.436460137996
0.436349822952
0.43623648075
0.436119077328
0.435996343397
0.435866245418
0.435727608249
0.435579684804
0.435421044156
0.435252208186
0.435075345198
0.434891810059
0.434703827306
0.434517265123
0.434330487039
0.434134226637
0.433903212821
0.433582550091
0.433105043078
0.474099426181
0.479144610831
0.478921852496
0.47772005557
0.477261822352
0.477055788985
0.476929384563
0.476818437947
0.476700650817
0.476571579963
0.476428144532
0.476272932111
0.476106169746
0.475930908028
0.475748040469
0.475560293675
0.475368589647
0.47517507971
0.474980294841
0.474786176183
0.474592911055
0.474401851131
0.474213640278
0.474029351599
0.47384919368
0.473674845674
0.473506927777
0.473346879308
0.473195637831
0.473054818847
0.472925339533
0.472808491922
0.472705067294
0.472616166233
0.472541805697
0.47248268568
0.472438616823
0.472409500689
0.472394531139
0.47239315074
0.472403869683
0.472425433572
0.472455953267
0.472493709704
0.472536745984
0.472583450493
0.472632152387
0.472681469202
0.472729845881
0.472775500569
0.472813163683
0.472836707778
0.472838083378
0.472805666256
0.472727775658
0.472594169483
0.472404416497
0.472165318202
0.471881120245
0.471557055807
0.471200126481
0.470817838824
0.47041576572
0.469983541227
0.469512754945
0.468995545739
0.468424206105
0.467789926109
0.467089533772
0.466331289545
0.465522899797
0.464663730183
0.463764190552
0.462850782036
0.461909060237
0.460953043518
0.460005328254
0.459073662539
0.458169597528
0.457297868003
0.456437213775
0.455599324635
0.454795605628
0.454025061331
0.453290625978
0.452587365772
0.451893195542
0.451188539515
0.450471145195
0.449757207362
0.449078659046
0.448413941932
0.447799428866
0.447247279215
0.446759507695
0.446356769771
0.446044412869
0.445817182415
0.445644692415
0.445499800269
0.445332898585
0.445119600077
0.444863479108
0.444570534331
0.444240325438
0.443880504294
0.443506846847
0.443132986174
0.442770877762
0.442428290613
0.442109712516
0.441816465684
0.441547747914
0.441301367336
0.441074504819
0.44086408433
0.440667608648
0.440483645176
0.440311972183
0.440152583678
0.440004220838
0.43986451995
0.439731280808
0.439603232877
0.439479841705
0.439360930724
0.4392463596
0.439135908477
0.439029213825
0.438925809463
0.438825186278
0.438726858542
0.43863024132
0.438534623584
0.438439076832
0.438342913468
0.438246491599
0.43815148514
0.438060282827
0.437974320753
0.43789270682
0.437813052568
0.437733341633
0.437652982601
0.437572172778
0.437491183626
0.437409990143
0.437328493629
0.437246589076
0.437164235945
0.437081455597
0.436998211638
0.436914462303
0.436830117903
0.436745059681
0.436659128995
0.43657219598