/*--------------------------------*- C++ -*----------------------------------*\
| =========                 |                                                 |
| \\      /  F ield         | OpenFOAM: The Open Source CFD Toolbox           |
|  \\    /   O peration     | Version:  v1806                                 |
|   \\  /    A nd           | Web:      www.OpenFOAM.com                      |
|    \\/     M anipulation  |                                                 |
\*---------------------------------------------------------------------------*/
FoamFile
{
    version     2.0;
    format      ascii;
    class       surfaceScalarField;
    location    "16";
    object      phi;
}
// * * * * * * * * * * * * * * * * * * * * * * * * * * * * * * * * * * * * * //

dimensions      [0 3 -1 0 0 0 0];
oriented        oriented;


internalField   nonuniform List<scalar> 
24170
(
3.0735222987e-06
1.14885140118e-07
2.98664235915e-06
8.68811568351e-08
2.90672819982e-06
7.99156324819e-08
2.82980481407e-06
7.69255772157e-08
2.7560735216e-06
7.37333576368e-08
2.68566736113e-06
7.04080682442e-08
2.61844851306e-06
6.72208678992e-08
2.55420097761e-06
6.42492475331e-08
2.49269688699e-06
6.15059926594e-08
2.4336992751e-06
5.89990924574e-08
2.37695555458e-06
5.67454142865e-08
2.32218709733e-06
5.47697551798e-08
2.2690774134e-06
5.31110771786e-08
2.21724564293e-06
5.18328910876e-08
2.16619159403e-06
5.10553182226e-08
2.11513851893e-06
5.10541853213e-08
2.06240154025e-06
5.27375611889e-08
5.89862332602e-08
2.00341548145e-06
3.4316252973e-06
1.00510208347e-07
3.42662059703e-06
9.18871349805e-08
3.41979803523e-06
8.67398365537e-08
3.41000453471e-06
8.67217271116e-08
3.39770457895e-06
8.60352244854e-08
3.38355117986e-06
8.45636463965e-08
3.36791188092e-06
8.28619486537e-08
3.35100904643e-06
8.11539932554e-08
3.33299994195e-06
7.95166948865e-08
3.31398911319e-06
7.80114809928e-08
3.29402582046e-06
7.67100482409e-08
3.27309768368e-06
7.56991288764e-08
3.25112072028e-06
7.50891328695e-08
3.22791458898e-06
7.50400290248e-08
3.20314913897e-06
7.58217434975e-08
3.17624389079e-06
7.79603057827e-08
3.14634282569e-06
8.26391741385e-08
9.11657204673e-08
3.11416358608e-06
3.68004546823e-06
8.29826049609e-08
3.68451569475e-06
8.74179054861e-08
3.68727156183e-06
8.39851262923e-08
3.6889442927e-06
8.50503700301e-08
3.68931113911e-06
8.56700296864e-08
3.68858357164e-06
8.52925003264e-08
3.68689408277e-06
8.45529736285e-08
3.68428321462e-06
8.37660094273e-08
3.68075949756e-06
8.30417955607e-08
3.67631312963e-06
8.2458877438e-08
3.67091271118e-06
8.21116850492e-08
3.66449742899e-06
8.21153552026e-08
3.65696912316e-06
8.26184273696e-08
3.64817909775e-06
8.3830883925e-08
3.63791637577e-06
8.60853497771e-08
3.62593639003e-06
8.99410355337e-08
3.61221263895e-06
9.6363179539e-08
1.05732334623e-07
3.59764623346e-06
3.93975068832e-06
6.86213151522e-08
3.94588867119e-06
8.12810718027e-08
3.94946811466e-06
8.04072088633e-08
3.95237209644e-06
8.21485347696e-08
3.95440508812e-06
8.36388642118e-08
3.95565673868e-06
8.40426879335e-08
3.95624739254e-06
8.39639701971e-08
3.95621384816e-06
8.38011497215e-08
3.95554902333e-06
8.37080500967e-08
3.95422575462e-06
8.37834312828e-08
3.95220054139e-06
8.41380570743e-08
3.94941079795e-06
8.49061429933e-08
3.9457734003e-06
8.62567395886e-08
3.94118567264e-06
8.8419441905e-08
3.93554205397e-06
9.17297277816e-08
3.92880104435e-06
9.66825906546e-08
3.92119029805e-06
1.03974312048e-07
1.13801185847e-07
3.91312155434e-06
4.21857151483e-06
5.71778406479e-08
4.22517705469e-06
7.46765299712e-08
4.22887917282e-06
7.67061692735e-08
4.23187072167e-06
7.91580913498e-08
4.23413374779e-06
8.13772789079e-08
4.23566793844e-06
8.25096457702e-08
4.23657491192e-06
8.30583158728e-08
4.23690314831e-06
8.34739614435e-08
4.23665433083e-06
8.39580414673e-08
4.23580819032e-06
8.4630552592e-08
4.23433134138e-06
8.56159514219e-08
4.23217798545e-06
8.7060401248e-08
4.22929319185e-06
8.91423950516e-08
4.2256224796e-06
9.20909349457e-08
4.22114009489e-06
9.62128584514e-08
4.21591478096e-06
1.0190856821e-07
4.21024015103e-06
1.09649134536e-07
1.19575196551e-07
4.20446656333e-06
4.51818373618e-06
4.80822698148e-08
4.52480133882e-06
6.80600757457e-08
4.52866347241e-06
7.28455031655e-08
4.53169198528e-06
7.61313816729e-08
4.53405805593e-06
7.9012924822e-08
4.53571247255e-06
8.08568636261e-08
4.53672381966e-06
8.20484907063e-08
4.53714497115e-06
8.30542365605e-08
4.53698637121e-06
8.41179153188e-08
4.53623558022e-06
8.53824734448e-08
4.53486961075e-06
8.69829773828e-08
4.53285940611e-06
8.90715685385e-08
4.53017659231e-06
9.18260054731e-08
4.52680799106e-06
9.54602613206e-08
4.52278635173e-06
1.00235121485e-07
4.51824490288e-06
1.06450359355e-07
4.51349741391e-06
1.14396954933e-07
1.2411900509e-07
4.50895350267e-06
4.83994660141e-06
4.08565753754e-08
4.8462867337e-06
6.17210279914e-08
4.85028855476e-06
6.88447338258e-08
4.8533534001e-06
7.3067588749e-08
4.85578814016e-06
7.65794386203e-08
4.85754081667e-06
7.91053194575e-08
4.85864691381e-06
8.09435417163e-08
4.8591559752e-06
8.25462234091e-08
4.85908507962e-06
8.41898254072e-08
4.8584292052e-06
8.60393302594e-08
4.85717557024e-06
8.82375476476e-08
4.85531163016e-06
9.09363328131e-08
4.85283447234e-06
9.43039497102e-08
4.849767143e-06
9.85282892406e-08
4.84618679689e-06
1.03816091e-07
4.8422649992e-06
1.1037267516e-07
4.83830995735e-06
1.18352003098e-07
1.27710612398e-07
4.83471908276e-06
5.18534064927e-06
3.5097904937e-08
5.19122871551e-06
5.58340388317e-08
5.1953103887e-06
6.47643023189e-08
5.19842609415e-06
6.99532479362e-08
5.20093116039e-06
7.4075767326e-08
5.20279520742e-06
7.72425629712e-08
5.20402537642e-06
7.97146482114e-08
5.20466084872e-06
8.19118885331e-08
5.20472272668e-06
8.41290318093e-08
5.20421420856e-06
8.65488288766e-08
5.20313438255e-06
8.93183411364e-08
5.20148852096e-06
9.25831884983e-08
5.19929876553e-06
9.64944066261e-08
5.1966201039e-06
1.01207670005e-07
5.19356288948e-06
1.06873825795e-07
5.19031956026e-06
1.13616225767e-07
5.18718382063e-06
1.21488096766e-07
1.30376321759e-07
5.18451814234e-06
5.55595595395e-06
3.04803562791e-08
5.56130898301e-06
5.04820611622e-08
5.56539697789e-06
6.06772728266e-08
5.56857056562e-06
6.67806202939e-08
5.57115187361e-06
7.14955028881e-08
5.57313658334e-06
7.52588652998e-08
5.5745132112e-06
7.83390099413e-08
5.57530855171e-06
8.11174875949e-08
5.57554650791e-06
8.38920033039e-08
5.57523991153e-06
8.68563259649e-08
5.5744014352e-06
9.01577317205e-08
5.5730546029e-06
9.39306964881e-08
5.57124497239e-06
9.83048508275e-08
5.56905343611e-06
1.03399790176e-07
5.56661276164e-06
1.09315091732e-07
5.56412188892e-06
1.16107423252e-07
5.56184862071e-06
1.23761508789e-07
1.3212879543e-07
5.5600968768e-06
5.95351470122e-06
2.67427109261e-08
5.95831711723e-06
4.56806119432e-08
5.96234332887e-06
5.66521025562e-08
5.96557371393e-06
6.35512142276e-08
5.96824332073e-06
6.8826996511e-08
5.97036518735e-06
7.31379795564e-08
5.9719188121e-06
7.67864188387e-08
5.97291940185e-06
8.01178307295e-08
5.97339203115e-06
8.3420315546e-08
5.97335879564e-06
8.68905585225e-08
5.97284576372e-06
9.0671645693e-08
5.97189353055e-06
9.48840279021e-08
5.97056701564e-06
9.96319904265e-08
5.96896652472e-06
1.05001133481e-07
5.96723692942e-06
1.11045056565e-07
5.96557383468e-06
1.17770874278e-07
5.96421731342e-06
1.25118318599e-07
1.32922628465e-07
5.96342376627e-06
6.37987660144e-06
2.36792575863e-08
6.38415882283e-06
4.13994974566e-08
6.38807414409e-06
5.27377524257e-08
6.39135748952e-06
6.02689019063e-08
6.3941333715e-06
6.60521092898e-08
6.39641692399e-06
7.08555016664e-08
6.39818432638e-06
7.50200024548e-08
6.39944145409e-06
7.88617347891e-08
6.40021307588e-06
8.26497516045e-08
6.40052921696e-06
8.65753529825e-08
6.40042853371e-06
9.07734319112e-08
6.39996612516e-06
9.53470820403e-08
6.39922268968e-06
1.00376443953e-07
6.3983104814e-06
1.05913822994e-07
6.39737880277e-06
1.1197752979e-07
6.39661167569e-06
1.18538002127e-07
6.39621818219e-06
1.25512082566e-07
1.32738989888e-07
6.39640234236e-06
5.74302986963e-06
2.14850073965e-08
5.74629007739e-06
3.8140469745e-08
5.74949266747e-06
4.95364623877e-08
5.75230684678e-06
5.74557340809e-08
5.75475275311e-06
6.3607549261e-08
5.75683286511e-06
6.8776356511e-08
5.75852610303e-06
7.332806524e-08
5.75983203127e-06
7.75567120979e-08
5.76077062387e-06
8.17123124938e-08
5.76137196264e-06
8.59748098246e-08
5.76167665997e-06
9.0469576534e-08
5.76174038589e-06
9.52843168182e-08
5.76163890955e-06
1.00478499722e-07
5.76147198264e-06
1.06081771708e-07
5.76136282605e-06
1.12086939023e-07
5.76145587582e-06
1.18445694438e-07
5.76190616082e-06
1.25062100952e-07
1.31780281053e-07
5.76286579669e-06
7.00031893743e-06
1.93225608231e-08
7.00369669428e-06
3.47640045174e-08
7.00723664196e-06
4.59975614393e-08
7.0105032254e-06
5.41905246844e-08
7.01343560288e-06
6.06761502784e-08
7.01601654324e-06
6.61968497517e-08
7.01821936035e-06
7.11261326491e-08
7.02003997293e-06
7.57374990414e-08
7.0214995823e-06
8.02533157212e-08
7.02263722286e-06
8.48382663085e-08
7.02350629876e-06
8.96011973158e-08
7.02417833532e-06
9.46131590748e-08
7.02474584755e-06
9.9911828051e-08
7.02532355923e-06
1.05504705345e-07
7.026046651e-06
1.11364904002e-07
7.027063322e-06
1.174294481e-07
7.02852561976e-06
1.23601066708e-07
1.29737527009e-07
7.03056874844e-06
8.53297059624e-06
1.72003570935e-08
8.53644618625e-06
3.12896800159e-08
8.54033271123e-06
4.21123939319e-08
8.54412315948e-06
5.04010150183e-08
8.54766834757e-06
5.71323971986e-08
8.55091661098e-06
6.29494318739e-08
8.55383247527e-06
6.82117728759e-08
8.55640613338e-06
7.31643554059e-08
8.55866027127e-06
7.80005261273e-08
8.56064052692e-06
8.28583347873e-08
8.56241370927e-06
8.78293841717e-08
8.56406478364e-06
9.29625589671e-08
8.56570058416e-06
9.82772796481e-08
8.56744565039e-06
1.03760416564e-07
8.56943950426e-06
1.09372129834e-07
8.57182741042e-06
1.1504258014e-07
8.57474961226e-06
1.20679771078e-07
1.26161457312e-07
8.57832729552e-06
1.04013287343e-05
1.50919210755e-08
1.04049318037e-05
2.76879596583e-08
1.04092155596e-05
3.78297559955e-08
1.04136437979e-05
4.59741262329e-08
1.04179855727e-05
5.27914725036e-08
1.04221449119e-05
5.87915422028e-08
1.04260693205e-05
6.42879174744e-08
1.04297433264e-05
6.94918775713e-08
1.0433186244e-05
7.45577423691e-08
1.04364502315e-05
7.95960217941e-08
1.04396083712e-05
8.46714294529e-08
1.04427574023e-05
8.98153588776e-08
1.04460085257e-05
9.50263617372e-08
1.04494903291e-05
1.00280491498e-07
1.04533347807e-05
1.05527967737e-07
1.04576762115e-05
1.10702986676e-07
1.04626339104e-05
1.15722403061e-07
1.20489110642e-07
1.04683073743e-05
1.26789635751e-05
1.29195487262e-08
1.26828103488e-05
2.38425324804e-08
1.26876381754e-05
3.30031466703e-08
1.26929140861e-05
4.06992376787e-08
1.26983442838e-05
4.7362550733e-08
1.27037818256e-05
5.33548409463e-08
1.27091514715e-05
5.89197481593e-08
1.27144241714e-05
6.42196313063e-08
1.27196151432e-05
6.93682911592e-08
1.27247717314e-05
7.44397538387e-08
1.27299706379e-05
7.94742847431e-08
1.27353047163e-05
8.4481452819e-08
1.27408850516e-05
8.94479833275e-08
1.27468256453e-05
9.43399047806e-08
1.27532463919e-05
9.91094978587e-08
1.27602527227e-05
1.03696195927e-07
1.27679423154e-05
1.08035292042e-07
1.12051251743e-07
1.27763789235e-05
1.54555715032e-05
1.05293358248e-08
1.54599165849e-05
1.94985727693e-08
1.54656056643e-05
2.7315310336e-08
1.54721165592e-05
3.41894539723e-08
1.5479107786e-05
4.03725652961e-08
1.54863824828e-05
4.60813540747e-08
1.54938327954e-05
5.14706136535e-08
1.55014104908e-05
5.6643057889e-08
1.55091145013e-05
6.16652930252e-08
1.55169807665e-05
6.65745354809e-08
1.55250720368e-05
7.13839732678e-08
1.55334688221e-05
7.60857573816e-08
1.55422611841e-05
8.06565379163e-08
1.55515420537e-05
8.50604521201e-08
1.55613982602e-05
8.92541528417e-08
1.55719066186e-05
9.31894100322e-08
1.5583124149e-05
9.68180957286e-08
1.0008889446e-07
1.5595088237e-05
1.88405150312e-05
7.65277539658e-09
1.88458293755e-05
1.41856176426e-08
1.88529717391e-05
2.01740005875e-08
1.88613958271e-05
2.57669202054e-08
1.88707072635e-05
3.10621482359e-08
1.88806571629e-05
3.61331436551e-08
1.88910957963e-05
4.10329930694e-08
1.89019443671e-05
4.57961535564e-08
1.8913172917e-05
5.04375528888e-08
1.89247919085e-05
5.49571033531e-08
1.89368350557e-05
5.93415120437e-08
1.89493542438e-05
6.35682191006e-08
1.89624043316e-05
6.76071072586e-08
1.89760430032e-05
7.14238335964e-08
1.89903158364e-05
7.49819611068e-08
1.90052618712e-05
7.82457533309e-08
1.90208975871e-05
8.11824309405e-08
8.3759965264e-08
1.90372289981e-05
2.29672185201e-05
3.77336571155e-09
2.29743775428e-05
7.02762054348e-09
2.29840505019e-05
1.05033930072e-08
2.2995556122e-05
1.42621059088e-08
2.30084101579e-05
1.82104039953e-08
2.3022296087e-05
2.22480376648e-08
2.30370150754e-05
2.63162240051e-08
2.30524403432e-05
3.03718652184e-08
2.30685028665e-05
3.43770021058e-08
2.30851702711e-05
3.82907705206e-08
2.31024368435e-05
4.20765927544e-08
2.31203090211e-05
4.56973942011e-08
2.31387973294e-05
4.91201159454e-08
2.31579113152e-05
5.23118285289e-08
2.31776498722e-05
5.52443507111e-08
2.31980060731e-05
5.78921243811e-08
2.32189526269e-05
6.02359689766e-08
6.22589282428e-08
2.32404564962e-05
1.6814146194e-05
3.3293912016e-10
1.68203689556e-05
8.07198008984e-10
1.68286021781e-05
2.270442955e-09
1.68382340982e-05
4.63288208012e-09
1.68488857308e-05
7.55856280887e-09
1.6860337546e-05
1.07992238453e-08
1.68724355035e-05
1.42177546226e-08
1.6885083292e-05
1.77272483527e-08
1.68982104305e-05
2.12490385091e-08
1.6911783991e-05
2.4720387905e-08
1.69257727866e-05
2.80868450552e-08
1.69401657082e-05
3.13075838648e-08
1.69549399487e-05
3.4344799956e-08
1.6970085582e-05
3.71694194417e-08
1.69855744924e-05
3.97543509564e-08
1.70013888475e-05
4.20814563125e-08
1.70174883832e-05
4.41349736953e-08
4.59065473905e-08
1.70338445246e-05
1.46382476005e-05
-3.3446009002e-09
1.46447488018e-05
-5.69312339597e-09
1.46530497987e-05
-6.02866778536e-09
1.46624779966e-05
-4.79461815983e-09
1.46727254317e-05
-2.68704865351e-09
1.46836270633e-05
-1.02184695444e-10
1.46950640809e-05
2.78262147081e-09
1.47069494946e-05
5.84198910025e-09
1.47192316551e-05
8.96848106931e-09
1.47318742335e-05
1.2078228199e-08
1.47448522474e-05
1.51101462415e-08
1.47581411049e-05
1.8019124399e-08
1.47717187481e-05
2.07684230474e-08
1.47855599704e-05
2.33285832546e-08
1.47996408316e-05
2.56755163906e-08
1.48139312476e-05
2.77912114195e-08
1.48284056114e-05
2.96634777738e-08
3.12837131677e-08
1.48430277843e-05
1.2744243263e-05
-7.45487628539e-09
1.27512018693e-05
-1.26503598434e-08
1.27595899614e-05
-1.44157864072e-08
1.2768738462e-05
-1.39418983817e-08
1.27784725476e-05
-1.2420442852e-08
1.27886975153e-05
-1.03257087541e-08
1.27993175404e-05
-7.83672421021e-09
1.28102684415e-05
-5.10818309611e-09
1.2821515266e-05
-2.27724565959e-09
1.28330342995e-05
5.59575790338e-10
1.28448053569e-05
3.3405905173e-09
1.28568044175e-05
6.02008012154e-09
1.28690102861e-05
8.56413534022e-09
1.28813955178e-05
1.0943640543e-08
1.28939349204e-05
1.31379581827e-08
1.2906597021e-05
1.51299420064e-08
1.29193514104e-05
1.69107642616e-08
1.84735722923e-08
1.29321628843e-05
1.10957395087e-05
-1.22641192134e-08
1.11033120959e-05
-2.02218249416e-08
1.11117233828e-05
-2.28258065113e-08
1.11204809962e-05
-2.26982704287e-08
1.1129616787e-05
-2.15550652128e-08
1.11390926577e-05
-1.98009719507e-08
1.11488385433e-05
-1.75817336156e-08
1.11588194404e-05
-1.5088116256e-08
1.11690211758e-05
-1.24783053622e-08
1.11794302602e-05
-9.84813096411e-09
1.11900270402e-05
-7.25568248611e-09
1.12007917786e-05
-4.74328383102e-09
1.12117011593e-05
-2.34512520753e-09
1.12227337387e-05
-8.72521320172e-11
1.12338632919e-05
2.00865056329e-09
1.1245068285e-05
3.92703359852e-09
1.12563258845e-05
5.65331066166e-09
7.17650414373e-09
1.12676252029e-05
9.66109353411e-06
-1.81419886487e-08
9.66937871144e-06
-2.85058877303e-08
9.6776609067e-06
-3.11066523002e-08
9.68591442098e-06
-3.09508148049e-08
9.69438429487e-06
-3.0023974452e-08
9.70304467875e-06
-2.84600419313e-08
9.71184922537e-06
-2.63853851175e-08
9.72080035225e-06
-2.40383865722e-08
9.72990825757e-06
-2.1585353124e-08
9.73917167521e-06
-1.91103622867e-08
9.74857938419e-06
-1.66626181106e-08
9.75811517205e-06
-1.42784954317e-08
9.76775898818e-06
-1.19878290321e-08
9.77748641302e-06
-9.81391501164e-09
9.78727023898e-06
-7.77410493832e-09
9.79708183439e-06
-5.883494779e-09
9.80689231329e-06
-4.1561234359e-09
-2.6056605029e-09
9.81667580904e-06
8.41283561471e-06
-2.56238913999e-08
8.42178879978e-06
-3.74577425077e-08
8.42972048514e-06
-3.90372832877e-08
8.43741451762e-06
-3.86435320304e-08
8.4452327187e-06
-3.78410649237e-08
8.45311844146e-06
-3.63450134117e-08
8.46105573146e-06
-3.43215707855e-08
8.46907644513e-06
-3.20581727365e-08
8.47720296553e-06
-2.97106966648e-08
8.48543937508e-06
-2.73461785817e-08
8.4937806169e-06
-2.50029233011e-08
8.50221541275e-06
-2.27125078797e-08
8.51072766292e-06
-2.04995102989e-08
8.51929622729e-06
-1.83816180815e-08
8.52789540457e-06
-1.63724417974e-08
8.53649795081e-06
-1.44849252826e-08
8.54508271694e-06
-1.27396345674e-08
-1.11731292395e-08
8.5536506568e-06
7.32700154024e-06
-3.5339906297e-08
7.33632840517e-06
-4.67835079177e-08
7.34365708137e-06
-4.63648476193e-08
7.35071178757e-06
-4.56971523942e-08
7.35778975081e-06
-4.49179418608e-08
7.36482811228e-06
-4.33820737669e-08
7.37186883274e-06
-4.13612280908e-08
7.37896754529e-06
-3.91558611746e-08
7.38614851018e-06
-3.68909773782e-08
7.39341661788e-06
-3.46133664931e-08
7.40076824977e-06
-3.2354041436e-08
7.40819496148e-06
-3.01386186863e-08
7.41568301709e-06
-2.79865982976e-08
7.42321227583e-06
-2.59101259741e-08
7.43075531191e-06
-2.39146205417e-08
7.43827436776e-06
-2.20035469756e-08
7.44572261872e-06
-2.01871014497e-08
-1.85043742116e-08
7.45305446062e-06
6.38291999982e-06
-4.81927557966e-08
6.39205284322e-06
-5.59153414153e-08
6.39878434156e-06
-5.30954778623e-08
6.40533522224e-06
-5.22473462213e-08
6.41173860011e-06
-5.13199433073e-08
6.41798870826e-06
-4.96312628104e-08
6.4241934554e-06
-4.75648711657e-08
6.43042220838e-06
-4.53837105098e-08
6.43670174966e-06
-4.31698654023e-08
6.44304094323e-06
-4.09521381471e-08
6.44944122025e-06
-3.87537289807e-08
6.45589825666e-06
-3.65949656429e-08
6.46240240497e-06
-3.44901015705e-08
6.46893832113e-06
-3.24451919998e-08
6.4754817138e-06
-3.04574958848e-08
6.4819927915e-06
-2.85142781525e-08
6.4884081387e-06
-2.66022261042e-08
-2.47406243303e-08
6.49464430317e-06
5.56202018002e-06
-6.47471954935e-08
5.56963887149e-06
-6.35329870504e-08
5.57554768106e-06
-5.90036785835e-08
5.58128954176e-06
-5.79881568922e-08
5.58665256486e-06
-5.66814834988e-08
5.59174958481e-06
-5.47270097443e-08
5.59671648154e-06
-5.25306025138e-08
5.60161574953e-06
-5.02820876041e-08
5.60647607313e-06
-4.80295722932e-08
5.61131555767e-06
-4.57913108687e-08
5.61614658145e-06
-4.35841845084e-08
5.62097559675e-06
-4.14232668962e-08
5.6258045765e-06
-3.93181719447e-08
5.63063127063e-06
-3.727108134e-08
5.63544654555e-06
-3.52722625577e-08
5.64022062446e-06
-3.32880667075e-08
5.64485897561e-06
-3.12410226809e-08
-2.8915711267e-08
5.64903437939e-06
4.84607679838e-06
-8.32153760805e-08
4.84776639763e-06
-6.52214725485e-08
4.8485989513e-06
-5.9835417892e-08
4.84815193856e-06
-5.75399013521e-08
4.84653235075e-06
-5.50601803967e-08
4.84417113492e-06
-5.23643179644e-08
4.8413280604e-06
-4.96862020598e-08
4.83815322133e-06
-4.71061944294e-08
4.83475902232e-06
-4.46347272376e-08
4.83123867774e-06
-4.22705262275e-08
4.82766820599e-06
-4.00129905308e-08
4.82410754349e-06
-3.78616811342e-08
4.82060436634e-06
-3.58139766305e-08
4.81719841135e-06
-3.386419703e-08
4.81392697068e-06
-3.20001639467e-08
4.8108273185e-06
-3.01883688166e-08
4.80792763899e-06
-2.83414415128e-08
-2.5654302923e-08
4.80466609926e-06
4.11946094336e-06
4.05423953443e-06
3.99440422051e-06
3.93686448598e-06
3.88180445968e-06
3.82944029379e-06
3.77975422458e-06
3.7326481224e-06
3.68801345169e-06
3.64574303088e-06
3.60573018699e-06
3.5678686848e-06
3.5320548934e-06
3.49819084291e-06
3.46619072325e-06
3.43600231388e-06
3.40766083461e-06
3.38200666353e-06
6.16122496718e-08
-6.15933461878e-08
9.88899857543e-08
-3.72520235078e-08
9.75504293636e-08
1.3451833801e-09
6.01078124072e-08
3.74616585356e-08
-2.22102252859e-08
8.23168566522e-08
-1.44856254082e-07
1.2265756016e-07
-2.78677987005e-07
1.33815485629e-07
-4.20896479576e-07
1.42225042185e-07
-5.70766079919e-07
1.49864073708e-07
-7.27384126016e-07
1.56622864211e-07
-8.89884911999e-07
1.62496285242e-07
-1.05742919035e-06
1.67547997172e-07
-1.2292902309e-06
1.71857413676e-07
-1.40479313323e-06
1.75505903352e-07
-1.58336545736e-06
1.78569329034e-07
-1.76448128454e-06
1.81118630404e-07
-1.94770149777e-06
1.83217512223e-07
-2.13262286311e-06
1.84924364868e-07
-2.31891538391e-06
1.86290436474e-07
-2.50627424661e-06
1.87361995578e-07
-2.69445455357e-06
1.88178531749e-07
-2.88322627479e-06
1.88774815404e-07
-3.07240679632e-06
1.89179141685e-07
-3.26181945707e-06
1.89415536601e-07
-3.4513224807e-06
1.89501937353e-07
-3.64077251807e-06
1.89452325808e-07
-3.83004890358e-06
1.89275091524e-07
-4.01902226222e-06
1.88975021986e-07
-4.20757506792e-06
1.88551663142e-07
-4.39557500063e-06
1.88001120088e-07
-4.58289083783e-06
1.87314673896e-07
-4.76937036327e-06
1.86480353262e-07
-4.95485282636e-06
1.85481660288e-07
-5.13915117087e-06
1.84299013871e-07
-5.32206070995e-06
1.82908907834e-07
-5.50334549573e-06
1.81285304188e-07
-5.68274493683e-06
1.79399151617e-07
-5.85996451883e-06
1.77219971949e-07
-6.03468055457e-06
1.74716015965e-07
-6.2065363747e-06
1.7185593042e-07
-6.37514583055e-06
1.68609619683e-07
-6.54009631046e-06
1.64949942177e-07
-6.70095033111e-06
1.60854310824e-07
-6.85725766915e-06
1.56305884681e-07
-7.00855276038e-06
1.51295762003e-07
-7.15437802713e-06
1.45822826871e-07
-7.29427366352e-06
1.39896517113e-07
-7.42781135349e-06
1.3353442268e-07
-7.55457489595e-06
1.26765147694e-07
-7.67420219543e-06
1.19623476213e-07
-7.7863533123e-06
1.12153609128e-07
-7.89075807013e-06
1.04400849198e-07
-7.98717225302e-06
9.6416647288e-08
-8.07542451427e-06
8.82487818363e-08
-8.15536708977e-06
7.99468359828e-08
-8.22692183674e-06
7.15522995696e-08
-8.29002435087e-06
6.31074072413e-08
-8.34467093177e-06
5.46455279289e-08
-8.39086590035e-06
4.62015582934e-08
-8.42866512931e-06
3.78000288536e-08
-8.45812791712e-06
2.94698622602e-08
-8.47936358503e-06
2.12379991964e-08
-8.49248868151e-06
1.31335425323e-08
-8.497664441e-06
5.17986698818e-09
-8.49506138774e-06
-2.59430979747e-09
-8.48498521384e-06
-1.00708647986e-08
-8.4678633117e-06
-1.71132929494e-08
-8.44417928676e-06
-2.36782768395e-08
-8.41441721711e-06
-2.97541411986e-08
-8.3790498798e-06
-3.53616540804e-08
-8.33849469519e-06
-4.05479072976e-08
-8.29309886094e-06
-4.53900394586e-08
-8.24310045768e-06
-4.99914053363e-08
-8.18860981686e-06
-5.44839258597e-08
-8.12957853156e-06
-5.90238276811e-08
-8.06577834057e-06
-6.37915386087e-08
-7.99678187027e-06
-6.89880744191e-08
-7.92194018191e-06
-7.48314360084e-08
-7.84037948294e-06
-8.15525004016e-08
-7.75098133857e-06
-8.9386572869e-08
-7.65240571453e-06
-9.85672432799e-08
-7.54308598757e-06
-1.09307305977e-07
-7.42129388429e-06
-1.21784794512e-07
-7.28516768483e-06
-1.36111516219e-07
-7.13284431373e-06
-1.52314301903e-07
-6.9625319837e-06
-1.70293382076e-07
-6.77270826831e-06
-1.89812488876e-07
-6.56222714198e-06
-2.10469575035e-07
-6.33051823259e-06
-2.31723412591e-07
-6.07765178627e-06
-2.52914485376e-07
-5.80439446714e-06
-2.73308379275e-07
-5.51225746792e-06
-2.92183784746e-07
-5.20341805459e-06
-3.08882620975e-07
-4.88059766092e-06
-3.22866167349e-07
-4.54690128581e-06
-3.33742002362e-07
-4.2056543919e-06
-3.41299818275e-07
-3.86023830211e-06
-3.45468071428e-07
-3.51398832663e-06
-3.46308712318e-07
-3.17004488744e-06
-3.43997549435e-07
-2.83134024464e-06
-3.38761091514e-07
-2.50051952778e-06
-3.3086643602e-07
-2.17977748868e-06
-3.20777937643e-07
-1.87095161979e-06
-3.08843236834e-07
-1.57568032513e-06
-2.95268125633e-07
-1.29461170065e-06
-2.81051152772e-07
-1.02858004288e-06
-2.65993803586e-07
-7.75532590028e-07
-2.53003377444e-07
-5.43031693936e-07
-2.32438018288e-07
-3.23915113744e-07
-2.19047127644e-07
-7.77465930679e-08
-2.46094402042e-07
1.75396759458e-07
-2.53083064051e-07
4.02349460324e-07
-2.2691577539e-07
5.99099985032e-07
-1.96728365969e-07
7.7216813478e-07
-1.73051788656e-07
9.25974767459e-07
-1.53800595853e-07
1.06318861699e-06
-1.37211583723e-07
1.18562495782e-06
-1.22440618129e-07
1.29467984782e-06
-1.09059566342e-07
1.39150341437e-06
-9.68271232019e-08
1.47709387421e-06
-8.55852447356e-08
1.55233257734e-06
-7.52226827906e-08
1.61801460398e-06
-6.5651844882e-08
1.67485432355e-06
-5.68057799501e-08
1.72351440608e-06
-4.8622290621e-08
1.76459641206e-06
-4.10541002952e-08
1.79867154466e-06
-3.40510083867e-08
1.82625877556e-06
-2.75766432997e-08
1.84785839724e-06
-2.15930194274e-08
1.86393237313e-06
-1.60791626535e-08
1.87494729809e-06
-1.10224777355e-08
1.8813862866e-06
-6.45605295636e-09
1.88390018253e-06
-2.53235061436e-09
1.88315936586e-06
7.14529518176e-10
1.87957386043e-06
3.55789598875e-09
1.87333806876e-06
6.20166348039e-09
1.86465807707e-06
8.64410130369e-09
1.85376755977e-06
1.08495676948e-08
1.84089373863e-06
1.28305951148e-08
1.82624077044e-06
1.46079391516e-08
1.80999575257e-06
1.6200436803e-08
1.79232867895e-06
1.76263572153e-08
1.77339172186e-06
1.88996800219e-08
1.75332492185e-06
2.00348477216e-08
1.73225336292e-06
2.10429699187e-08
1.71029336219e-06
2.19355081218e-08
1.68754925989e-06
2.27216760052e-08
1.66411816918e-06
2.3411227321e-08
1.64008725298e-06
2.40119781352e-08
1.61553729595e-06
2.45324967251e-08
1.59054037752e-06
2.497971785e-08
1.56516309543e-06
2.53609614223e-08
1.53946421889e-06
2.56825247564e-08
1.51349757226e-06
2.59509522782e-08
1.4873099973e-06
2.61718181252e-08
1.46094347097e-06
2.63514711229e-08
1.43443345728e-06
2.64950241598e-08
1.40781180874e-06
2.66075391656e-08
1.38110461663e-06
2.6693338564e-08
1.35433349975e-06
2.6758315524e-08
1.32751413752e-06
2.68070034985e-08
1.30065879488e-06
2.68441039898e-08
1.27377370154e-06
2.68744728981e-08
1.24686033572e-06
2.69037925584e-08
1.2199149163e-06
2.69366498914e-08
1.19292762176e-06
2.69793363747e-08
1.16588193146e-06
2.70387253453e-08
1.13875125388e-06
2.71240708875e-08
1.11149955443e-06
2.72462419931e-08
1.08407785994e-06
2.74159256112e-08
1.05642428423e-06
2.76491272049e-08
1.02845245176e-06
2.79664643151e-08
1.00005165949e-06
2.83969993743e-08
9.71069863164e-07
2.89768886984e-08
9.41304491984e-07
2.9762169307e-08
9.1046118074e-07
3.08388064736e-08
8.78107325955e-07
3.23508832496e-08
8.43541449698e-07
3.45612167771e-08
8.05428431603e-07
3.81108347457e-08
7.61728291304e-07
4.36984726375e-08
7.1161520173e-08
6.90568718628e-07
-2.39967093872e-08
-3.7577612482e-08
-9.70731856348e-08
3.58415133375e-08
-2.02626867014e-07
1.06903897826e-07
-3.17783419322e-07
1.5262375164e-07
-4.29460658984e-07
1.93994770473e-07
-5.3773789957e-07
2.30938372574e-07
-6.61794992674e-07
2.57871984625e-07
-7.9845395033e-07
2.78887063288e-07
-9.44628184976e-07
2.96037378825e-07
-1.09830047747e-06
3.10297787733e-07
-1.25805231325e-06
3.22247168963e-07
-1.42278089334e-06
3.32278805708e-07
-1.59160933164e-06
3.40684923169e-07
-1.76379911984e-06
3.47697605122e-07
-1.93874027192e-06
3.53509527562e-07
-2.11590531511e-06
3.58285414999e-07
-2.29485686795e-06
3.62168125136e-07
-2.47521332137e-06
3.65282490429e-07
-2.65666105784e-06
3.67737356592e-07
-2.83892444419e-06
3.69627171493e-07
-3.02177946295e-06
3.71032808799e-07
-3.20502577785e-06
3.72022674052e-07
-3.38850026706e-06
3.7265304058e-07
-3.57205236463e-06
3.72969055009e-07
-3.75555602677e-06
3.73005040336e-07
-3.93888816676e-06
3.7278543804e-07
-4.12193869906e-06
3.72325005962e-07
-4.30459250988e-06
3.716295986e-07
-4.4867376501e-06
3.70696258585e-07
-4.66824990925e-06
3.69513898089e-07
-4.848998885e-06
3.68063234655e-07
-5.02883533886e-06
3.66317321731e-07
-5.20759536268e-06
3.64241512076e-07
-5.38508991096e-06
3.61794055047e-07
-5.56110724551e-06
3.58926294356e-07
-5.73540496906e-06
3.55583535958e-07
-5.90771146171e-06
3.51705875139e-07
-6.0777206812e-06
3.47229671558e-07
-6.24509353977e-06
3.42089220081e-07
-6.40945634532e-06
3.36219036124e-07
-6.57040293147e-06
3.29556504076e-07
-6.72749799575e-06
3.2204487189e-07
-6.8802803209e-06
3.13636725564e-07
-7.02827230636e-06
3.04297094777e-07
-7.17098340065e-06
2.9400681908e-07
-7.30792639595e-06
2.82764567081e-07
-7.43861931542e-06
2.70589219715e-07
-7.5626066363e-06
2.57519744781e-07
-7.67945700025e-06
2.43615352362e-07
-7.78878688094e-06
2.28951783657e-07
-7.89025281137e-06
2.13619362475e-07
-7.98357073579e-06
1.97717035859e-07
-8.0685020268e-06
1.81348291859e-07
-8.14486887037e-06
1.64614807762e-07
-8.212534326e-06
1.47613496309e-07
-8.27141473149e-06
1.30432777817e-07
-8.32145864494e-06
1.13153506447e-07
-8.36265687272e-06
9.58454904186e-08
-8.39502333087e-06
7.85716606151e-08
-8.41861235301e-06
6.13921304133e-08
-8.4335105579e-06
4.43729631683e-08
-8.43984541994e-06
2.75775246268e-08
-8.43777291017e-06
1.10672707062e-08
-8.42752254691e-06
-5.06449423481e-09
-8.40961021017e-06
-2.04994021276e-08
-8.38469444227e-06
-3.49798278068e-08
-8.35330921966e-06
-4.84909970145e-08
-8.31596770982e-06
-6.10128391923e-08
-8.27315498544e-06
-7.25596707747e-08
-8.22531781535e-06
-8.31921948191e-08
-8.17283772974e-06
-9.30212484483e-08
-8.11601033426e-06
-1.02210900702e-07
-8.05501877572e-06
-1.10976293359e-07
-7.98991396962e-06
-1.19581739158e-07
-7.92059477e-06
-1.28335451457e-07
-7.84679193633e-06
-1.37585862357e-07
-7.76805471641e-06
-1.47716611806e-07
-7.68373527286e-06
-1.59141516797e-07
-7.59298091098e-06
-1.7229760412e-07
-7.49472105703e-06
-1.87636070344e-07
-7.38766968768e-06
-2.05609144559e-07
-7.27032208826e-06
-2.26644601568e-07
-7.14098533621e-06
-2.51111759865e-07
-6.99781316013e-06
-2.79271357088e-07
-6.83889787896e-06
-3.11217270713e-07
-6.6623684218e-06
-3.46807334525e-07
-6.46655807152e-06
-3.85605464392e-07
-6.2501715896e-06
-4.26842813039e-07
-6.01247969903e-06
-4.69435673554e-07
-5.75341349938e-06
-5.12021212289e-07
-5.47367907476e-06