/*--------------------------------*- C++ -*----------------------------------*\
| =========                 |                                                 |
| \\      /  F ield         | OpenFOAM: The Open Source CFD Toolbox           |
|  \\    /   O peration     | Version:  v1806                                 |
|   \\  /    A nd           | Web:      www.OpenFOAM.com                      |
|    \\/     M anipulation  |                                                 |
\*---------------------------------------------------------------------------*/
FoamFile
{
    version     2.0;
    format      ascii;
    class       surfaceScalarField;
    location    "16";
    object      phia;
}
// * * * * * * * * * * * * * * * * * * * * * * * * * * * * * * * * * * * * * //

dimensions      [0 3 -1 0 0 0 0];
oriented        oriented;


internalField   nonuniform List<scalar> 
24170
(
1.57428497235e-07
1.66359510717e-07
2.30906317e-07
-6.872882744e-08
2.4375104311e-07
-1.07228837804e-08
2.47056826031e-07
-1.2111382325e-09
2.58487274136e-07
-9.88089193728e-09
2.70346530623e-07
-8.98558935297e-09
2.83326179762e-07
-1.02314704934e-08
2.97042629459e-07
-1.07631122524e-08
3.11451335061e-07
-1.16720536661e-08
3.26668670998e-07
-1.36019221252e-08
3.4422530015e-07
-1.64154525264e-08
3.66765218211e-07
-2.2597019626e-08
3.99601895611e-07
-3.32130017864e-08
4.46629537783e-07
-4.78204371271e-08
5.0343196292e-07
-5.76128306451e-08
5.49086395855e-07
-4.64021569826e-08
6.1012489419e-07
-6.15389489333e-08
-5.42045170611e-07
1.15186349446e-06
6.62195152014e-07
-1.39698037356e-07
3.37629477245e-07
2.64812685564e-07
3.93409558328e-07
-6.21074605034e-08
4.01978097678e-07
-6.12844883339e-09
4.2086767697e-07
-2.55539216682e-08
4.38887175596e-07
-2.2629493231e-08
4.58598677606e-07
-2.54920279268e-08
4.7886901174e-07
-2.64184242385e-08
5.00298973893e-07
-2.90171704056e-08
5.22958712805e-07
-3.3423492973e-08
5.48359438872e-07
-4.00894824872e-08
5.78057926358e-07
-5.19407325478e-08
6.14393346442e-07
-6.98928024965e-08
6.56623648563e-07
-9.08287859112e-08
6.9722560309e-07
-9.90590235939e-08
7.33646281948e-07
-8.35846823453e-08
8.24962796058e-07
-1.53435137809e-07
-6.61929387205e-07
9.44153660558e-07
-6.20558490995e-08
2.89100242699e-07
4.32901802135e-07
-2.29761408096e-07
3.1171895067e-07
5.89855992788e-08
3.41229536579e-07
-3.5332287764e-08
3.39367074245e-07
-2.35392541511e-08
3.4890413228e-07
-3.12702798015e-08
3.55999904932e-07
-3.17925159925e-08
3.64630838688e-07
-3.42550930338e-08
3.73815860301e-07
-3.7603812046e-08
3.84066074367e-07
-4.36165993914e-08
3.97012969089e-07
-5.31622036203e-08
4.14447867223e-07
-6.99116728724e-08
4.37999400923e-07
-9.40411125346e-08
4.6620990847e-07
-1.19755015129e-07
4.97445813734e-07
-1.30987183777e-07
5.50054409631e-07
-1.3682600823e-07
6.63144541986e-07
-2.67055269774e-07
-6.82603477175e-07
6.83203599868e-07
7.58783624808e-07
-6.83924847509e-08
3.1359894575e-07
2.19774490057e-07
4.02049607324e-07
-2.76236183417e-08
4.0528777446e-07
-3.69823661198e-08
4.16424640295e-07
-3.31483278835e-08
4.26726671161e-07
-3.93333853859e-08
4.37776557075e-07
-4.05428742394e-08
4.49254715643e-07
-4.34660035483e-08
4.60942333602e-07
-4.75014668067e-08
4.72851327197e-07
-5.44959068863e-08
4.85877087292e-07
-6.58412457302e-08
5.00272106502e-07
-8.46153012726e-08
5.15403628867e-07
-1.09832855726e-07
5.28778372026e-07
-1.33985006666e-07
5.43790308901e-07
-1.46885291657e-07
5.82734172335e-07
-1.76587185539e-07
6.45188981018e-07
-3.30233220965e-07
-6.31497061419e-07
5.93291989515e-07
-2.30192554155e-08
3.71976419987e-07
4.23881327776e-07
-2.29413800039e-07
3.92400190938e-07
2.3952805842e-09
3.94178626109e-07
-3.93692599395e-08
4.02688102677e-07
-4.2145201936e-08
4.12257440725e-07
-4.89720646332e-08
4.23306350118e-07
-5.17422923355e-08
4.35773179011e-07
-5.61508106367e-08
4.49802487473e-07
-6.19042496959e-08
4.6562589422e-07
-7.09025562736e-08
4.8391011426e-07
-8.47463273245e-08
5.04100978818e-07
-1.05497262107e-07
5.24413073572e-07
-1.3081501506e-07
5.42998789341e-07
-1.53254963535e-07
5.65988475212e-07
-1.70535447218e-07
6.06677416752e-07
-2.17893530684e-07
6.37465177167e-07
-3.61597476893e-07
-5.64557656104e-07
5.69935563728e-07
6.59244222769e-07
1.63564354861e-07
4.18881372488e-07
1.03329654312e-08
4.37663056597e-07
-1.67435050911e-08
4.4820622476e-07
-4.97543929532e-08
4.53840889084e-07
-4.73748555046e-08
4.61775138697e-07
-5.61684074466e-08
4.70137295336e-07
-5.93878736635e-08
4.79610954523e-07
-6.50473553578e-08
4.90265600584e-07
-7.23047692299e-08
5.02585739424e-07
-8.33181453576e-08
5.17003262203e-07
-9.95389048955e-08
5.32742607521e-07
-1.21812773046e-07
5.48218703844e-07
-1.46978858681e-07
5.63769558717e-07
-1.69547954842e-07
5.86365640926e-07
-1.93877223896e-07
6.18924848718e-07
-2.51151826692e-07
6.27772509686e-07
-3.7108994852e-07
-5.04712965812e-07
5.67241699505e-07
3.67209606139e-07
2.74697842352e-07
4.67269299317e-07
-9.33444301532e-08
4.67307339055e-07
-1.88741856355e-08
4.73285622855e-07
-5.68077701479e-08
4.81192527971e-07
-5.601356646e-08
4.89860891872e-07
-6.5365491244e-08
4.99544608228e-07
-6.96604526007e-08
5.1018674093e-07
-7.63568290761e-08
5.21903942772e-07
-8.47725105974e-08
5.34863464437e-07
-9.70500863132e-08
5.48929561805e-07
-1.14321772456e-07
5.62997110723e-07
-1.36540364238e-07
5.7597421776e-07
-1.60561148018e-07
5.8958716692e-07
-1.83741343791e-07
6.08933029299e-07
-2.1377651485e-07
6.29639723842e-07
-2.72386272749e-07
6.24223341289e-07
-3.66196190497e-07
-4.54850888668e-07
5.73916682775e-07
5.22458139486e-07
2.65760022039e-07
4.98415580493e-07
-7.24185127568e-08
5.06006711449e-07
-2.80426958857e-08
5.11602211576e-07
-6.29800200812e-08
5.18627630687e-07
-6.32297398911e-08
5.26307003766e-07
-7.30741240302e-08
5.3518006059e-07
-7.86463485293e-08
5.45121759592e-07
-8.65570305812e-08
5.56259178881e-07
-9.63372159102e-08
5.68516986196e-07
-1.09847416017e-07
5.81348639213e-07
-1.27746062449e-07
5.93593004763e-07
-1.49382454808e-07
6.0472735058e-07
-1.7229061838e-07
6.16671120903e-07
-1.96265588458e-07
6.31452754142e-07
-2.29123050048e-07
6.41453406513e-07
-2.82915812945e-07
6.28303598061e-07
-3.53515744341e-07
-4.13661256124e-07
5.86561008267e-07
5.3953272988e-07
2.76874893778e-07
5.40846188123e-07
-7.71071182163e-08
5.46821850662e-07
-3.60986160033e-08
5.51889012414e-07
-6.9215879618e-08
5.58589297738e-07
-7.07250735504e-08
5.65706577956e-07
-8.08461692951e-08
5.73960447194e-07
-8.75894535421e-08
5.83196688798e-07
-9.65274413079e-08
5.93490338047e-07
-1.07383994019e-07
6.04560510376e-07
-1.21627795674e-07
6.15676487528e-07
-1.39495601958e-07
6.2588000789e-07
-1.60151278369e-07
6.3511831098e-07
-1.82035329604e-07
6.44736038788e-07
-2.06358787114e-07
6.54233518246e-07
-2.39062867038e-07
6.55968081112e-07
-2.85068170764e-07
6.39190865233e-07
-3.3722071168e-07
-3.78652051006e-07
6.03862503754e-07
5.86167757515e-07
2.81345132343e-07
5.83622756406e-07
-7.76622258939e-08
5.91071867453e-07
-4.51833015584e-08
5.95277366299e-07
-7.41648465538e-08
6.01534693393e-07
-7.73148488712e-08
6.07994999947e-07
-8.75548180904e-08
6.15527825108e-07
-9.54382456705e-08
6.23903576802e-07
-1.05335960773e-07
6.33101817036e-07
-1.17104283572e-07
6.42674153881e-07
-1.31768412019e-07
6.5186199391e-07
-1.4925475482e-07
6.59983960531e-07
-1.68804269195e-07
6.6714344353e-07
-1.89705236349e-07
6.73821626755e-07
-2.13516298347e-07
6.78115347245e-07
-2.4381584976e-07
6.73944254999e-07
-2.81334771275e-07
6.55777910039e-07
-3.1941189209e-07
-3.48438528629e-07
6.2504074605e-07
6.32609656829e-07
2.82935664192e-07
6.30058893735e-07
-7.78442521758e-08
6.38260615895e-07
-5.51983771688e-08
6.4170860335e-07
-7.86980875591e-08
6.47363184987e-07
-8.37300761793e-08
6.53085675057e-07
-9.38870850574e-08
6.59761247672e-07
-1.02737829819e-07
6.67098792719e-07
-1.13311564731e-07
6.74964678484e-07
-1.25623275196e-07
6.82822354141e-07
-1.40252429157e-07
6.8998587496e-07
-1.56990278742e-07
6.95988287789e-07
-1.7534836847e-07
7.00847262746e-07
-1.95060603056e-07
7.04263629258e-07
-2.17410528382e-07
7.03956975779e-07
-2.4395145142e-07
6.95771100518e-07
-2.73563011158e-07
6.77126982775e-07
-3.01276321009e-07
-3.21458549977e-07
6.49798302419e-07
5.71706060219e-07
2.82454441008e-07
5.70118392029e-07
-7.85302010422e-08
5.76810396064e-07
-6.34366204135e-08
5.7931040132e-07
-8.21514101234e-08
5.83512559558e-07
-8.86482725262e-08
5.87722083549e-07
-9.86942688584e-08
5.92595775772e-07
-1.08221827839e-07
5.97857370791e-07
-1.19195880405e-07
6.03323825827e-07
-1.31702842011e-07
6.0852850342e-07
-1.46044155996e-07
6.12980668833e-07
-1.62023909289e-07
6.1639999922e-07
-1.79170884444e-07
6.18599687735e-07
-1.97647928915e-07
6.1900848448e-07
-2.18143029854e-07
6.15882946244e-07
-2.41127396951e-07
6.06960915841e-07
-2.64934988938e-07
5.91358532999e-07
-2.8587019993e-07
-3.00763512508e-07
5.70273016921e-07
7.00009964039e-07
2.801730451e-07
6.98513275661e-07
-7.87173920459e-08
7.0489562407e-07
-7.10114153507e-08
7.07497518566e-07
-8.57141872205e-08
7.11558554346e-07
-9.34262659411e-08
7.15636298126e-07
-1.03453767884e-07
7.20266711185e-07
-1.13488874975e-07
7.25131650936e-07
-1.2469261555e-07
7.29954960942e-07
-1.37144393687e-07
7.34218528389e-07
-1.50949312091e-07
7.37519055506e-07
-1.6572500773e-07
7.39455495573e-07
-1.81523725133e-07
7.39746399497e-07
-1.98198573685e-07
7.37524938402e-07
-2.16153921686e-07
7.31257245925e-07
-2.35037504318e-07
7.19484508108e-07
-2.53253219573e-07
7.018083911e-07
-2.6847162773e-07
-2.78654673262e-07
6.79582171459e-07
8.56643071681e-07
2.75142978279e-07
8.55351626046e-07
-7.86984761646e-08
8.60487721256e-07
-7.75621578791e-08
8.62966738361e-07
-8.90254737404e-08
8.6646216636e-07
-9.78729712478e-08
8.70039455513e-07
-1.07690331814e-07
8.73919825019e-07
-1.18081019953e-07
8.77817284659e-07
-1.29189005062e-07
8.81312833147e-07
-1.41262987474e-07
8.83998990953e-07
-1.54038369861e-07
8.85329298608e-07
-1.67529595646e-07
8.85038575568e-07
-1.81471272806e-07
8.82528527839e-07
-1.95937560742e-07
8.76976555874e-07
-2.10760109156e-07
8.67237245926e-07
-2.25403451006e-07
8.52431651737e-07
-2.38601551415e-07
8.32844335898e-07
-2.48902922015e-07
-2.55412902534e-07
8.09330812384e-07
1.04878737469e-06
2.65008258412e-07
1.04661053227e-06
-7.82149371744e-08
1.05021586758e-06
-8.22652361026e-08
1.051642818e-06
-9.16974135132e-08
1.05405747134e-06
-1.01014777381e-07
1.0563209523e-06
-1.10770827352e-07
1.05872981855e-06
-1.2103522215e-07
1.06073953942e-06
-1.31766565204e-07
1.06208945247e-06
-1.4297519477e-07
1.06216256244e-06
-1.54563175551e-07
1.06070197744e-06
-1.66277670246e-07
1.05712023372e-06
-1.78183570936e-07
1.05099420701e-06
-1.89998677626e-07
1.04151199574e-06
-2.01507705581e-07
1.02805843617e-06
-2.12081479506e-07
1.01027762758e-06
-2.20982423674e-07
9.8858587863e-07
-2.27372857972e-07
-2.30925408081e-07
9.63954264068e-07
1.28492641112e-06
2.45610068079e-07
1.28052668352e-06
-7.54168359392e-08
1.28137006383e-06
-8.47215762435e-08
1.28109230059e-06
-9.25088852259e-08
1.28135142881e-06
-1.02140949065e-07
1.28146547216e-06
-1.11494834791e-07
1.28128112613e-06
-1.21325684835e-07
1.28042250622e-06
-1.31255093344e-07
1.2784311395e-06
-1.41305754948e-07
1.27496198787e-06
-1.51276856983e-07
1.2695108751e-06
-1.61092366443e-07
1.26177686904e-06
-1.70649560786e-07
1.25118255072e-06
-1.79711130924e-07
1.23744230747e-06
-1.87944733186e-07
1.22004671486e-06
-1.95007002776e-07
1.19934158079e-06
-2.00384088242e-07
1.17543548215e-06
-2.03829061625e-07
-2.05128159776e-07
1.14959378349e-06
1.56997496874e-06
2.19332428889e-07
1.56390589732e-06
-7.14823562356e-08
1.56100719895e-06
-8.33346004268e-08
1.55775384643e-06
-9.02792098507e-08
1.5547413561e-06
-9.98296874498e-08
1.55147775166e-06
-1.08611427942e-07
1.5475088045e-06
-1.17668723462e-07
1.54255874233e-06
-1.26452249045e-07
1.53612224682e-06
-1.35022925813e-07
1.52792001059e-06
-1.43201552706e-07
1.51756168388e-06
-1.50895572268e-07
1.50475390189e-06
-1.58041361766e-07
1.48926289949e-06
-1.64398250755e-07
1.47084222586e-06
-1.6977203944e-07
1.44961338147e-06
-1.73931054239e-07
1.42566738736e-06
-1.76706495103e-07
1.39971355115e-06
-1.77986685565e-07
-1.7780690481e-07
1.37206274911e-06
1.91440152533e-06
1.84818111705e-07
1.90619852012e-06
-6.57077377879e-08
1.89773534086e-06
-7.68868463255e-08
1.89023684563e-06
-8.36435047161e-08
1.88251753802e-06
-9.26031402318e-08
1.87449095063e-06
-1.00685123412e-07
1.86546048675e-06
-1.08638513456e-07
1.85514449485e-06
-1.16071218033e-07
1.84314725904e-06
-1.22972103214e-07
1.82918910962e-06
-1.29230358399e-07
1.81307673242e-06
-1.3480303838e-07
1.79462328266e-06
-1.39659869229e-07
1.77382850794e-06
-1.43666277475e-07
1.75065946886e-06
-1.4670596605e-07
1.72541899371e-06
-1.48721569366e-07
1.69826810621e-06
-1.4967554814e-07
1.66995143141e-06
-1.49612641016e-07
-1.48697683045e-07
1.64069332364e-06
2.34474834844e-06
1.31428238436e-07
2.32066316524e-06
-4.61331095802e-08
2.30421225328e-06
-6.30702918199e-08
2.29063402525e-06
-7.1609703005e-08
2.27678586463e-06
-7.96661568548e-08
2.26277469941e-06
-8.65607948514e-08
2.24747445803e-06
-9.31309179126e-08
2.23073848219e-06
-9.88284797648e-08
2.21220876526e-06
-1.03969037366e-07
2.19158606872e-06
-1.08280091086e-07
2.16903362226e-06
-1.11933645086e-07
2.14431401612e-06
-1.14809046405e-07
2.11779950315e-06
-1.16973653874e-07
2.08942472989e-06
-1.1828473457e-07
2.05970191239e-06
-1.18868904941e-07
2.02864974888e-06
-1.18644720319e-07
1.99685771801e-06
-1.1769898908e-07
-1.15692054345e-07
1.96367214175e-06
1.6667560386e-06
1.36660387552e-07
1.69199147711e-06
-7.82620702355e-08
1.68240934914e-06
-5.93794447599e-08
1.67114640969e-06
-6.42581375437e-08
1.66005858732e-06
-6.9742472926e-08
1.64761179622e-06
-7.54637142659e-08
1.63528068015e-06
-8.02750024687e-08
1.62127095813e-06
-8.48392373217e-08
1.60672269476e-06
-8.85304788605e-08
1.59048385691e-06
-9.181239793e-08
1.57358343619e-06
-9.42279229097e-08
1.55512129505e-06
-9.61990474124e-08
1.53627933266e-06
-9.73579121796e-08
1.51616893494e-06
-9.80086187299e-08
1.49600337434e-06
-9.79054197696e-08
1.47503559371e-06
-9.7395895104e-08
1.45477053438e-06
-9.65626451201e-08
-9.70405740787e-08
1.43662816248e-06
1.6113872398e-06
-1.60453537311e-08
1.48072220202e-06
4.54300248768e-08
1.46138060218e-06
-4.27812912501e-08
1.4501746647e-06
-5.73659378756e-08
1.439398409e-06
-6.17650278474e-08
1.42801992617e-06
-6.58722690849e-08
1.41577920334e-06
-6.89671454493e-08
1.40281355138e-06
-7.18541120908e-08
1.38857674936e-06
-7.44790883941e-08
1.37365231365e-06
-7.64243842342e-08
1.35754045227e-06
-7.80307850712e-08
1.3409662017e-06
-7.90744898539e-08
1.32349808249e-06
-7.97090314217e-08
1.30583556574e-06
-7.97068484007e-08
1.28756351023e-06
-7.9328940639e-08
1.26931349364e-06
-7.84815708488e-08
1.25012697344e-06
-7.69537610738e-08
-7.13437111623e-08
1.22510924814e-06
9.74706424813e-07
2.76376606054e-07
1.28095813828e-06
-2.63852002934e-07
1.28872714006e-06
-5.69628839816e-08
1.28002013178e-06
-5.06094885366e-08
1.2701257815e-06
-5.40440847873e-08
1.26006151376e-06
-5.6500350883e-08
1.24886594218e-06
-5.87737609705e-08
1.23710474953e-06
-6.08085937658e-08
1.22504442426e-06
-6.24759627433e-08
1.21234927692e-06
-6.41366141352e-08
1.19953160752e-06
-6.51093281363e-08
1.18624594711e-06
-6.57363386828e-08
1.1727782425e-06
-6.58417478214e-08
1.1590136508e-06
-6.56488162752e-08
1.1450904109e-06
-6.49845505273e-08
1.13067976945e-06
-6.36634619007e-08
1.11624352654e-06
-6.21105723163e-08
-6.6860826312e-08
1.11216412914e-06
1.79919200939e-06
-4.11207220945e-07
1.12292652826e-06
4.12200774383e-07
1.09434707044e-06
-2.59792776469e-08
1.09276865144e-06
-4.997678166e-08
1.08561016121e-06
-4.71010227661e-08
1.07634475521e-06
-4.84079474707e-08
1.06632969995e-06
-4.89471271234e-08
1.05559158024e-06
-5.00694458318e-08
1.04408239176e-06
-5.12909251642e-08
1.03235701932e-06
-5.20833080332e-08
1.02010276376e-06
-5.28148431659e-08
1.00783439906e-06
-5.31702608491e-08
9.95433184933e-07
-5.3284847037e-08
9.83113506339e-07
-5.29602449472e-08
9.71071619202e-07
-5.25945491239e-08
9.60533541029e-07
-5.28230075774e-08
9.52720344587e-07
-5.39375505546e-08
-4.71776093982e-08
9.33360486867e-07
-1.50468664656e-07
7.08199999566e-07
1.00982419386e-06
-7.4461699413e-07
1.01771930018e-06
-3.40468063528e-08
9.98662457133e-07
-2.91321319382e-08
9.91044248214e-07
-3.86373257309e-08
9.81954654643e-07
-3.81599752408e-08
9.7216889263e-07
-3.87819878065e-08
9.61653185268e-07
-3.92090048564e-08
9.50787757278e-07
-3.97076108849e-08
9.39323286529e-07
-4.02794796308e-08
9.2752480502e-07
-4.04189668327e-08
9.15103970854e-07
-4.03135295398e-08
9.02278251588e-07
-3.98202783492e-08
8.88867866865e-07
-3.91420847774e-08
8.74616113448e-07
-3.79972074694e-08
8.57666130454e-07
-3.55397724232e-08
8.34609460057e-07
-3.0555226762e-08
-3.35664565343e-08
8.21246542669e-07
2.47258082133e-06
-9.14926574747e-07
7.63546548276e-07
9.70383025795e-07
8.03684885891e-07
-6.92586660778e-08
8.29135187123e-07
-5.19349095781e-08
8.23366236006e-07
-3.14770875403e-08
8.17432010695e-07
-3.16053681506e-08
8.10374679948e-07
-3.07930922306e-08
8.03718899048e-07
-3.17589410263e-08
7.97427639136e-07
-3.2725505386e-08
7.91915337054e-07
-3.37806550266e-08
7.87123291551e-07
-3.47187697992e-08
7.82966745506e-07
-3.52406277323e-08
7.7922496098e-07
-3.54358350103e-08
7.75967884353e-07
-3.52940578783e-08
7.7331334555e-07
-3.48656547842e-08
7.73165597571e-07
-3.5011745377e-08
7.80185721695e-07
-3.72737753233e-08
-2.88026556813e-08
7.75788099097e-07
-1.21503615408e-06
1.04146376415e-06
9.23478816711e-07
-1.16130534168e-06
7.971023463e-07
6.08865802759e-08
7.69448635331e-07
-2.1176034766e-08
7.59715790549e-07
-1.93075333402e-08
7.50182888442e-07
-2.05877902398e-08
7.40106687312e-07
-1.98577528443e-08
7.28723315725e-07
-1.96258893871e-08
7.16598426058e-07
-1.97220920052e-08
7.0363642166e-07
-1.9901268759e-08
6.90035040721e-07
-2.00500830564e-08
6.75797123628e-07
-2.00945646518e-08
6.6099049802e-07
-1.97935398823e-08
6.45781837874e-07
-1.94399474116e-08
6.30539417329e-07
-1.91092073022e-08
6.14069422469e-07
-1.80660097226e-08
5.91588705897e-07
-1.45058455946e-08
-2.48535435866e-08
5.87932607796e-07
2.38226984381e-06
-6.94795688681e-07
3.73639246612e-07
8.53812654684e-07
6.71815251757e-07
-2.32962250504e-07
6.54025188185e-07
2.22563142052e-09
6.62405802445e-07
-2.75146918823e-08
6.55876708427e-07
-1.2976859213e-08
6.5277753095e-07
-1.57930630334e-08
6.49074538775e-07
-1.51461908683e-08
6.45583281282e-07
-1.54573919e-08
6.42269283887e-07
-1.56739930934e-08
6.3908877833e-07
-1.5982064043e-08
6.36073296508e-07
-1.61499661262e-08
6.33216730454e-07
-1.62634411078e-08
6.30631149898e-07
-1.62457107751e-08
6.28323647216e-07
-1.62903356542e-08
6.27995721884e-07
-1.7340034025e-08
6.36195756945e-07
-2.23061927902e-08
-1.15363240112e-08
6.22939442253e-07
-7.37498774869e-07
6.06777581515e-07
8.90622720481e-07
-7.67609181932e-07
5.20720686879e-07
1.42419183759e-07
5.77002833614e-07
-4.84259158177e-08
5.46328478316e-07
4.80868750492e-09
5.45002203171e-07
-1.05863746969e-08
5.35329244532e-07
-5.090395967e-09
5.27760412412e-07
-6.793639601e-09
5.19595879521e-07
-6.53104548084e-09
5.1167564385e-07
-7.001736931e-09
5.04005746599e-07
-7.30288500336e-09
4.96472041333e-07
-7.70259975934e-09
4.88999162144e-07
-8.06197206171e-09
4.8156887778e-07
-8.22648148745e-09
4.74055636844e-07
-8.27594554659e-09
4.64698221448e-07
-7.50691428824e-09
4.44237146375e-07
-1.71504694682e-09
-1.59935294344e-08
4.49071625799e-07
1.31188496963e-06
-2.11830182273e-07
4.32501643362e-07
1.19461647715e-07
6.07997226164e-07
-2.65941310099e-08
5.66219486445e-07
-1.65557981429e-10
5.76170577996e-07
-2.97380332573e-09
5.68652892459e-07
-1.76511544783e-09
5.66834328928e-07
-2.10999877138e-09
5.62989635339e-07
-2.03702643946e-09
5.59540319146e-07
-2.24444163179e-09
5.55815855464e-07
-2.32991675146e-09
5.52058398493e-07
-2.38959482481e-09
5.4795683082e-07
-2.53158620242e-09
5.43493656204e-07
-2.75272299349e-09
5.38654719717e-07
-2.69559442054e-09
5.33130441343e-07
-2.14717690907e-09
5.285982867e-07
-2.53748507993e-09
5.35578921318e-07
-8.28939996399e-09
9.96041516047e-09
5.09908767331e-07
2.0903034244e-07
3.29010713431e-07
3.03034338949e-07
3.03087392102e-07
3.00249431458e-07
2.98618477136e-07
2.96619965808e-07
2.94692366385e-07
2.92575414151e-07
2.9042127741e-07
2.8821285834e-07
2.8583521113e-07
2.83217031784e-07
2.80645602916e-07
2.78606206914e-07
2.76157764753e-07
2.67943643442e-07
2.78073372131e-07
-8.75266938424e-08
1.11081850726e-07
-1.59055217553e-07
9.54143594397e-08
-2.18195652477e-07
7.86777977737e-08
-2.49265751416e-07
5.28308348842e-08
-2.51261384798e-07
1.90156942572e-08
-2.36391224735e-07
-2.91104134824e-09
-2.22016750505e-07
-8.21327259113e-09
-2.08223321572e-07
-8.15691120941e-09
-1.9966969724e-07
-5.02946612862e-09
-1.9448614478e-07
-9.90211431178e-10
-1.94940326996e-07
2.81375364319e-09
-1.97326506005e-07
5.91970336362e-09
-2.03932666998e-07
8.1065832464e-09
-2.10619586844e-07
9.52430073545e-09
-2.20101862055e-07
1.01832773244e-08
-2.28388896122e-07
1.03471432624e-08
-2.38417238234e-07
1.00003713031e-08
-2.46496916097e-07
9.3896439983e-09
-2.55466899804e-07
8.44475512886e-09
-2.62227623606e-07
7.38058190675e-09
-2.69269039936e-07
6.13096175692e-09
-2.74095296474e-07
4.87453453057e-09
-2.78805582398e-07
3.53879346751e-09
-2.81521180657e-07
2.28288738652e-09
-2.83854272523e-07
1.03768411457e-09
-2.84600665926e-07
-9.25374340523e-11
-2.84880378374e-07
-1.15316331696e-09
-2.83925463409e-07
-2.07085859425e-09
-2.82444568009e-07
-2.89002944071e-09
-2.80094708168e-07
-3.57944665025e-09
-2.77228242751e-07
-4.16927138674e-09
-2.73765736073e-07
-4.65363270158e-09
-2.69810306591e-07
-5.05784269853e-09
-2.6546480938e-07
-5.39238026675e-09
-2.60662208208e-07
-5.66933330162e-09
-2.55579057098e-07
-5.9159466139e-09
-2.50103281985e-07
-6.13433236678e-09
-2.44361053204e-07
-6.34485368324e-09
-2.38277773529e-07
-6.55386609303e-09
-2.31898878174e-07
-6.77463102243e-09
-2.25224712273e-07
-7.01071025831e-09
-2.18187022944e-07
-7.26504914505e-09
-2.10904340573e-07
-7.54668258084e-09
-2.03176057471e-07
-7.84399480516e-09
-1.95264803016e-07
-8.17626115279e-09
-1.86832603589e-07
-8.51298274689e-09
-1.78262055616e-07
-8.89026235903e-09
-1.69159083251e-07
-9.26250270249e-09
-1.59942722879e-07
-9.66399725202e-09
-1.50209304726e-07
-1.00496481733e-08
-1.40388439998e-07
-1.04624496041e-08
-1.30095836952e-07
-1.08349237608e-08
-1.19672660544e-07
-1.12162359224e-08
-1.08893438241e-07
-1.15636855366e-08
-9.79615475397e-08
-1.18985970654e-08
-8.67429603213e-08
-1.21898902627e-08
-7.53340334537e-08
-1.24585229485e-08
-6.371635424e-08
-1.26890049195e-08
-5.18780385307e-08
-1.28890962236e-08
-3.98836643101e-08
-1.30635320127e-08
-2.76490958867e-08
-1.32159722257e-08
-1.52886939833e-08
-1.33458367182e-08
-2.76736942592e-09
-1.33549575604e-08
9.45879323699e-09
-1.30672212543e-08
2.16093536291e-08
-1.28718895153e-08
3.36852832081e-08
-1.27683151431e-08
4.57764761117e-08
-1.26891907954e-08
5.78289229062e-08
-1.26346995137e-08
6.99042610743e-08
-1.25872895914e-08
8.19333589983e-08
-1.25437582262e-08
9.39624597579e-08
-1.24903309819e-08
1.05911102818e-07
-1.24298445091e-08
1.17823156448e-07
-1.23541642729e-08
1.29615208582e-07
-1.22629161318e-08
1.41349985219e-07
-1.21549582817e-08
1.52930975439e-07
-1.20444300875e-08
1.64438488902e-07
-1.19258547789e-08
1.75824662037e-07
-1.1820797896e-08
1.87182229655e-07
-1.17500328902e-08
1.98529687997e-07
-1.17521071165e-08
2.10012066251e-07
-1.18657042796e-08
2.21752348634e-07
-1.21397848795e-08
2.33972120373e-07
-1.2621127821e-08
2.46905254475e-07
-1.33584171806e-08
2.60826619135e-07
-1.43776860215e-08
2.76012161008e-07
-1.56861033157e-08
2.92697139733e-07
-1.72611035842e-08
3.10936732608e-07
-1.90655256758e-08
3.30933190278e-07
-2.08717824375e-08
3.52188963135e-07
-2.2878516779e-08
3.75072664632e-07
-2.47016885012e-08
3.9951866533e-07
-2.65343044995e-08
4.25800147609e-07
-2.83604863146e-08
4.54127578077e-07
-3.03057230169e-08
4.84791371125e-07
-3.23782000505e-08
5.18024847979e-07
-3.44928296302e-08
5.53997298652e-07
-3.6709169565e-08
5.93190198118e-07
-3.90590159133e-08
6.35339286081e-07
-4.12368293636e-08
6.79447017215e-07
-4.19197301206e-08
7.20868640778e-07
-3.83391429837e-08
7.51967525334e-07
-2.71376098727e-08
7.67428924587e-07
-1.08077387884e-08
7.71351122606e-07
1.26701718044e-09
7.77914695958e-07
-1.58047648901e-10
7.99916857037e-07
-1.46192868432e-08
8.80035061165e-07
-7.04149653182e-08
1.0126747616e-06
-1.19588714721e-07
1.17903072039e-06
-1.49633067979e-07
1.04909915824e-06
1.49091386643e-07
7.26143951759e-07
3.38506508601e-07
5.72322914296e-07
1.63009282515e-07
4.88550916312e-07
8.96453538923e-08
4.375176584e-07
5.53494335348e-08
4.03338513825e-07
3.69878983159e-08
3.78907905363e-07
2.66153410106e-08
3.60067594139e-07
2.0189457231e-08
3.45080864662e-07
1.60732660804e-08
3.32623938591e-07
1.31068765229e-08
3.22442193904e-07
1.09460517035e-08
3.1407798257e-07
9.17357683372e-09
3.07522431334e-07
7.77438224625e-09
3.02234542041e-07
6.48498313694e-09
2.98159239162e-07
5.38867551409e-09
2.94841461228e-07
4.27979845266e-09
2.9241368311e-07
3.32485171363e-09
2.90536150442e-07
2.39266624372e-09
2.89356256265e-07
1.63910605106e-09
2.88535057937e-07
9.37968494235e-10
2.88129266982e-07
4.61451493425e-10
2.87709911134e-07
1.02554728296e-10
2.8724722996e-07
-2.52329234447e-12
2.86120678935e-07
1.65729963304e-10
2.84340338901e-07
4.7361737732e-10
2.81504993435e-07
8.47473337998e-10
2.7781880353e-07
1.05389683167e-09
2.73375052191e-07
1.09672421617e-09
2.6844816231e-07
1.07850084375e-09
2.6352092797e-07
1.18010021961e-09
2.58644291021e-07
1.24644095762e-09
2.53876069922e-07
1.48887323601e-09
2.48833184257e-07
1.68245093206e-09
2.43679194446e-07
1.9831383307e-09
2.38209066469e-07
2.12385631899e-09
2.32834680557e-07
2.40373758897e-09
2.2723154734e-07
2.4758180101e-09
2.21900050935e-07
2.72907198622e-09
2.16479702944e-07
2.72913977003e-09
2.11672694015e-07
2.94402825095e-09
2.07110928563e-07
2.82669351522e-09
2.03724157598e-07
2.9937231571e-09
2.01004117609e-07
2.76647468948e-09
2.00138096015e-07
2.96598111816e-09
2.00387091219e-07
2.67312270451e-09
2.03370722099e-07
2.95985464013e-09
2.08066749327e-07
2.6039402795e-09
2.16707187847e-07
3.04595902477e-09
2.27906566892e-07
2.65635291115e-09
2.44760736528e-07
3.28389670143e-09
2.65420793784e-07
2.7826093539e-09
2.94039235286e-07
3.54979664523e-09
3.28024928688e-07
2.84810776152e-09
3.72765786111e-07
3.7221885687e-09
4.24714459141e-07
2.67527664016e-09
4.90925295531e-07
3.40663789117e-09
5.66945838483e-07
1.55890020589e-09
6.61860293533e-07
1.71859599974e-09
7.70188000178e-07
-1.19758456376e-09
9.03017536572e-07
-1.6580486753e-09
1.05328315265e-06
-5.09018181918e-09
1.23354666282e-06
-5.32988266363e-09
1.4351966538e-06
-8.24993938624e-09
1.67130965578e-06
-6.88868650795e-09
1.93481830011e-06
-1.05848760781e-08
2.24695177973e-06
-1.73513984233e-08
2.60950558769e-06
-3.81461049792e-08
3.05582209126e-06
-7.376711383e-08
3.59123687702e-06
-1.29038527979e-07
4.25444962699e-06
-2.05864371384e-07
-3.1531638384e-07
5.0569037391e-06
-7.62485343829e-09
1.39689647138e-07
4.92102213711e-09
9.91640246734e-08
4.33425313375e-08
4.90924917335e-08
7.47727164434e-08
2.72955476538e-08
7.90368162663e-08
1.83461893224e-08
6.4277620442e-08
1.493047682e-08
4.48761767726e-08
1.33683244544e-08
2.63072584308e-08
1.27357360388e-08
1.03600758728e-08
1.25861822702e-08
-9.42461723489e-10
1.2535864182e-08
-8.95146482992e-09
1.22753096404e-08
-1.26444691021e-08
1.16943165255e-08
-1.42066126325e-08
1.07744425953e-08
-1.25732081265e-08
9.63555443846e-09
-1.00861522343e-08
8.33837543352e-09
-5.4936458277e-09
7.01461805747e-09
-1.00577563729e-09
5.66954018863e-09
4.72375439586e-09
4.38344155809e-09
9.79340887874e-09
3.1177259224e-09
1.5531879196e-08
1.91486153452e-09
2.037240898e-08
7.14317490787e-10
2.55275902779e-08
-4.42340986607e-10
2.98781279243e-08
-1.60525830834e-09
3.44232699459e-08
-2.75095182469e-09
3.84010327442e-08
-3.90983367993e-09
4.25965556391e-08
-5.05744789036e-09
4.65774700951e-08
-6.2120182607e-09
5.09173631753e-08
-7.35389677624e-09
5.54227491949e-08
-8.48925282424e-09
6.04444724267e-08
-9.60742683586e-09
6.59579915949e-08
-1.07079884795e-08
7.2119553314e-08
-1.17869835973e-08
7.90087470698e-08
-1.28358034887e-08
8.66369270091e-08
-1.38618961789e-08
9.50942596725e-08
-1.48583840049e-08
1.04322756375e-07
-1.58256345861e-08
1.14387971807e-07
-1.67630780926e-08
1.25200925101e-07
-1.76733687802e-08
1.36775524635e-07
-1.8552348477e-08
1.49043264275e-07
-1.94008011505e-08
1.61941508455e-07
-2.02212315802e-08
1.75450032671e-07
-2.10086614276e-08
1.89428047453e-07
-2.17694916058e-08
2.03916440785e-07
-2.24942331101e-08
2.18702095887e-07
-2.31935223063e-08
2.3388311998e-07
-2.38538691249e-08
2.49203814526e-07
-2.44861797679e-08
2.64802436547e-07
-2.50752620092e-08
2.8039166223e-07
-2.56387216302e-08
2.96117139524e-07
-2.61475563516e-08
3.11750335042e-07
-2.66129245462e-08
3.27392433473e-07
-2.70240875329e-08
3.42871594791e-07
-2.73799320704e-08
3.58252652369e-07
-2.76672853908e-08
3.73426626214e-07
-2.78912686986e-08
3.88412024499e-07
-2.8042392852e-08
4.03174166661e-07
-2.81196157564e-08
4.17676497736e-07
-2.8126316284e-08
4.31934054215e-07
-2.80603462752e-08
4.45862338732e-07
-2.79318564198e-08
4.59524795992e-07
-2.77352712581e-08
4.72850405563e-07
-2.75267106008e-08
4.86174476987e-07
-2.74530474625e-08
4.99657488146e-07
-2.73021824045e-08
5.12900157579e-07
-2.6776506633e-08
5.25682657148e-07
-2.62050544737e-08
5.37932373923e-07
-2.55174735269e-08
5.49460508265e-07
-2.47257969706e-08
5.60190355733e-07
-2.38278756181e-08
5.6998638619e-07
-2.28413122729e-08
5.78793738084e-07
-2.17668734622e-08
5.8651456929e-07
-2.06213013163e-08
5.93138319732e-07
-1.9411652009e-08
5.9859776902e-07
-1.81683615019e-08
6.02920901794e-07
-1.69000902737e-08
6.0608626321e-07
-1.56328563652e-08
6.08147489818e-07
-1.43881341837e-08
6.09114918822e-07
-1.3188042787e-08
6.09040415774e-07
-1.20546213542e-08
6.07924674119e-07
-1.10131688102e-08
6.05778609261e-07
-1.00937506356e-08
6.02581240701e-07
-9.31713367932e-09
5.98281548764e-07
-8.72180823437e-09