/*--------------------------------*- C++ -*----------------------------------*\
| =========                 |                                                 |
| \\      /  F ield         | OpenFOAM: The Open Source CFD Toolbox           |
|  \\    /   O peration     | Version:  v1806                                 |
|   \\  /    A nd           | Web:      www.OpenFOAM.com                      |
|    \\/     M anipulation  |                                                 |
\*---------------------------------------------------------------------------*/
FoamFile
{
    version     2.0;
    format      ascii;
    class       volScalarField;
    location    "16";
    object      rho;
}
// * * * * * * * * * * * * * * * * * * * * * * * * * * * * * * * * * * * * * //

dimensions      [0 0 0 0 0 0 0];


internalField   nonuniform List<scalar> 
12225
(
0.584683821834
0.647437198032
0.627218110287
0.627299817658
0.615350415831
0.611041434463
0.605086637958
0.601053468387
0.598911446683
0.599833080021
0.605293121731
0.613926441151
0.620905842291
0.632791472932
0.656358193114
0.687029045315
0.726586912129
0.760139111671
0.755550217314
0.696712243913
0.663757286446
0.668493776901
0.659280306537
0.656864934929
0.653070925325
0.65070047381
0.649373911554
0.649776894321
0.653277997671
0.659656268398
0.666365122159
0.67634950515
0.694096763539
0.716948438187
0.741967785103
0.744612342638
0.607452977502
0.677689358742
0.659584529511
0.661214244154
0.651480000985
0.64812053857
0.643599386673
0.640563960672
0.638479962781
0.63785024504
0.639378572734
0.643213947047
0.648870849389
0.657950899135
0.672762671763
0.691233977536
0.708218037916
0.703367944396
0.667845039677
0.690855348188
0.663473429372
0.669532200651
0.660633721618
0.658914921959
0.655710794014
0.65379223567
0.65249867899
0.652249212537
0.653379047015
0.656075722146
0.660493643464
0.667564253425
0.678148867205
0.690114898597
0.697830890745
0.688416596988
0.640021435685
0.689778958597
0.665180681462
0.672029665354
0.664083592702
0.663290578281
0.660996911787
0.66000478414
0.659660679809
0.660286643152
0.66202272698
0.664972889442
0.669370685203
0.675645243459
0.683702357872
0.6912369239
0.693330415223
0.683047072602
0.648899979867
0.693807051197
0.668311671137
0.67663926088
0.669232061505
0.669180143415
0.667442193303
0.666967546544
0.667081687158
0.668048594284
0.669923383146
0.672753735528
0.676698192891
0.681843406524
0.687580113759
0.691680911668
0.690494942666
0.680750712938
0.647436177453
0.69527697783
0.6709088443
0.680112398189
0.673379275829
0.673984836232
0.672764918709
0.672737691613
0.673208891877
0.674393717215
0.676294453638
0.678909920295
0.682267054312
0.686221312409
0.689941207555
0.691515145028
0.688510171141
0.679598192788
0.648990154165
0.696727153771
0.673119686773
0.683082175733
0.676915097157
0.678059773477
0.677239336099
0.677533928948
0.678204317203
0.679447761443
0.681241048131
0.683536497517
0.686237624157
0.689055029292
0.691109818866
0.690908897344
0.686942542911
0.678881166022
0.650045415318
0.69753310165
0.674904669136
0.685404787406
0.679769970252
0.681374975199
0.680885626889
0.681404778982
0.682157677734
0.683348735912
0.684941901049
0.686837821353
0.688850273646
0.690617788769
0.691343993922
0.689914525664
0.685487159977
0.67815071876
0.650883903627
0.697875176416
0.676127691409
0.687017375732
0.681830905345
0.683814220387
0.683568308852
0.684218761546
0.684981844396
0.686069445268
0.687409254681
0.688852418303
0.690163692824
0.690985515561
0.690662314599
0.688411356351
0.683811396464
0.677153422091
0.650794963985
0.697958963868
0.676493501425
0.687736218736
0.682806659021
0.685006754876
0.684844429155
0.685522918948
0.686235854689
0.687166491998
0.688204793405
0.689196910465
0.689906663342
0.690021686712
0.689027610978
0.686400678846
0.68197801944
0.676074562719
0.646745528472
0.697843367785
0.67499333865
0.686822249375
0.68183105003
0.684129767189
0.683985668262
0.684664558443
0.685282722843
0.686052740968
0.686922215667
0.687716312606
0.688188913551
0.688043064463
0.686885297693
0.684356888345
0.680392018951
0.675297218251
0.643407789522
0.69715929255
0.673481010835
0.685725019589
0.680911945905
0.683384077733
0.683342192016
0.684100092617
0.684810337434
0.68566305778
0.686545689524
0.687278557009
0.687581805582
0.687240709816
0.685932799131
0.683444840189
0.679809317562
0.675295969205
0.6393488766
0.696303082885
0.671755512968
0.684542108172
0.679943562833
0.682773717951
0.683041963616
0.684023968112
0.684847574118
0.685705533739
0.686478134712
0.68697078936
0.686940636219
0.686238863578
0.68469573709
0.68218354668
0.678846962595
0.674837095882
0.634061629278
0.695364211053
0.669586373146
0.683105249044
0.678727127615
0.681980093875
0.682600458571
0.683847138694
0.684802426494
0.685623606431
0.686225681321
0.686404968881
0.685981781733
0.684933806831
0.683178414715
0.680690309123
0.677628016374
0.674134652212
0.628491856572
0.6943558025
0.66710569731
0.681347352694
0.67708255218
0.680698624918
0.681580154798
0.683020958353
0.684032353367
0.684805923586
0.685212641165
0.685136292777
0.684414758833
0.683154191811
0.681311775708
0.678939853974
0.676175835068
0.673118712869
0.623449735196
0.693429515028
0.664585415988
0.679412606539
0.675109674403
0.678941428995
0.679931057279
0.681431092056
0.682416199842
0.683072910153
0.683331214505
0.68306406774
0.682188117267
0.680837949252
0.679042785712
0.676833716746
0.674381802044
0.671682761976
0.618680608057
0.692716142859
0.662176972211
0.677480146762
0.672993729838
0.676892613806
0.677841749594
0.67930105102
0.68019617297
0.680735370298
0.680867717134
0.680485314152
0.67954004771
0.678199006057
0.676503489766
0.674479964044
0.672294003639
0.669909164238
0.616047959552
0.692612702644
0.660892110136
0.676379701373
0.671596543733
0.67534861812
0.676069148312
0.677321761142
0.678000312348
0.678334276616
0.678288430737
0.677777447922
0.676767477265
0.675440584288
0.673831264525
0.671953869451
0.669962408684
0.667811441572
0.621492730469
0.693272902287
0.66249774207
0.677117218093
0.671851251796
0.674925296437
0.675000127503
0.675592607031
0.675676932896
0.675482505624
0.675004961502
0.674176460004
0.672959018832
0.671520707959
0.669891059215
0.668074318219
0.666208810977
0.664259115119
0.625824848973
0.694359120027
0.664405123762
0.67839394211
0.6727554639
0.675289472048
0.674853930187
0.674968810697
0.67459862447
0.674029873676
0.673250220738
0.672215753667
0.670854609764
0.66935890753
0.667718619686
0.665957525838
0.664170007563
0.662346126976
0.628859867611
0.695389063532
0.66627896949
0.679726166872
0.673801906159
0.675863613793
0.675013664429
0.674713464096
0.673989392191
0.673121748124
0.672099237116
0.670901248132
0.669442460387
0.667891989232
0.66625234434
0.664522584234
0.662803323108
0.661051178813
0.633942038895
0.696919553823
0.66807928142
0.681042589493
0.674817024483
0.676423926311
0.675174958812
0.674495882092
0.673441471965
0.672282319073
0.67105055409
0.669681473758
0.668108874806
0.666479652085
0.66481942188
0.663078003449
0.661378406481
0.659665969243
0.633645605079
0.697557600261
0.670324654034
0.682615717946
0.676135527519
0.677289262693
0.675665215713
0.67461796315
0.673261450878
0.67186055302
0.670425803493
0.668915620841
0.667242648107
0.665559126868
0.663846932904
0.662093860321
0.660387072213
0.658721879121
0.648829032441
0.700136539503
0.671732250133
0.683542059818
0.676744861579
0.677462908545
0.675479976247
0.674124862089
0.672497648761
0.670864538194
0.669238832558
0.667601045494
0.6658307179
0.664074641133
0.662324122968
0.660522639117
0.658752790035
0.657020957584
0.624644371184
0.69893224089
0.675420490975
0.686011724659
0.679211661339
0.679505549696
0.677292059384
0.675668666597
0.673815201721
0.671964741567
0.670162144244
0.668380379412
0.666507982657
0.664653509647
0.662814009616
0.660950743337
0.659137319359
0.657519180573
0.696660731087
0.704912545256
0.676733754128
0.686627658659
0.679464420113
0.67925500428
0.676654541939
0.674684645764
0.672505874854
0.670334583846
0.668195090164
0.666222521223
0.664235838126
0.66227361322
0.660384819457
0.658472875301
0.656541505664
0.65442511976
0.572391692203
0.696881305625
0.686046442705
0.692520352451
0.685962818008
0.685470310369
0.683033746956
0.681240785316
0.679319198395
0.67740766661
0.675644742621
0.674003064287
0.672289314668
0.670587674199
0.668906278699
0.667094137818
0.665180193817
0.663657731061
0.826139232456
0.71874888649
0.692174575214
0.699004936408
0.69245951857
0.691413206729
0.688356526911
0.685625361808
0.682511987506
0.679149814221
0.675650511068
0.672375287268
0.669059168631
0.665608247073
0.662109304248
0.658549544755
0.654883894658
0.651327243714
0.649019409155
0.680718097892
0.676530758653
0.678085513585
0.670373062107
0.669385218636
0.666762917056
0.664740214736
0.662686673238
0.660887313709
0.659441638708
0.658093688141
0.656681848713
0.655598770628
0.654840981626
0.654209501598
0.653895106633
0.653139204477
0.500152344761
0.499792566811
0.499608207425
0.49962652598
0.499839537732
0.500207177274
0.500633083795
0.50108367367
0.501533306351
0.501963955873
0.502363540264
0.502724740223
0.503043683582
0.503319040439
0.50355127099
0.503742204236
0.503894354249
0.504011087968
0.504095578992
0.504150900236
0.504180453142
0.504186528356
0.504172507975
0.504139145919
0.504088424903
0.504019924943
0.503935318491
0.503834304147
0.50371753834
0.503584168822
0.503434450052
0.50326781363
0.50308463555
0.50288408311
0.50266634422
0.502431530781
0.502180763993
0.501913310558
0.501630350196
0.501331975757
0.501019580206
0.500693974429
0.500356875201
0.500010001306
0.499655499246
0.499295965575
0.498934016945
0.498572799938
0.498215574332
0.497865289281
0.497524786822
0.497195401735
0.496880273802
0.496583557105
0.496310586867
0.496066417674
0.49585641415
0.495685886394
0.495560309355
0.495484861351
0.495463552377
0.495497508105
0.495587563411
0.49573637275
0.495944809851
0.496209792412
0.496529302998
0.496901268135
0.497322349818
0.497789721914
0.498299043521
0.498846381953
0.499426892173
0.500036269396
0.500669777137
0.501323364907
0.501992992656
0.502674046987
0.50336266431
0.504056158484
0.504752425016
0.505448134011
0.506141209072
0.506828993733
0.507512332223
0.508188664982
0.508858059356
0.509526861249
0.510191425008
0.510855158432
0.511518633047
0.51218187935
0.512846659328
0.513485959944
0.51408468447
0.514680519662
0.515305085235
0.515943402086
0.516593371031
0.517248887513
0.518015667874
0.51887234359
0.518993590197
0.519011843831
0.519193010862
0.519593988551
0.520180446363
0.520476325351
0.520841141495
0.521166908787
0.52142555733
0.521669099071
0.521886046502
0.522083579076
0.522264777523
0.522432573859
0.522590021263
0.522740461649
0.522884886926
0.523022365138
0.523149564458
0.523265278738
0.523370869472
0.523467494832
0.523558055626
0.523643844999
0.523725649528
0.52380401845
0.523879382425
0.523952205762
0.524022930763
0.524091839322
0.524159149798
0.52422482077
0.524288868145
0.524351148294
0.524411579127
0.524470466051
0.524527274148
0.524581746118
0.52463195832
0.524679181381
0.524722523371
0.524760466769
0.524791332494
0.524813324461
0.524825348916
0.524826617532
0.524816449012
0.524794319951
0.524759163586
0.524709468508
0.52464352543
0.52455970658
0.52445625033
0.524331344562
0.524182946572
0.524008816687
0.523806000725
0.523570901028
0.523298152145
0.522982019382
0.522614403255
0.522183932325
0.521675077792
0.52107078136
0.520350019935
0.519496169891
0.51849604056
0.517326910528
0.515975976102
0.514446907317
0.512757613959
0.510949308447
0.509081304744
0.507097421095
0.505048511056
0.503011447047
0.501095233947
0.499593936048
0.500054136298
0.499813864053
0.499909273652
0.500196573215
0.500547059243
0.500906146528
0.501251837896
0.501574262559
0.501869189308
0.502134339487
0.502369012705
0.502572229481
0.502744555898
0.502886229944
0.502998591732
0.503082826402
0.503140893454
0.50317474709
0.50318702502
0.503179355148
0.503154408293
0.503113688618
0.50305962093
0.50299243682
0.502913579994
0.502822205827
0.502719206431
0.502603747815
0.502475671299
0.50233368555
0.502177684418
0.502006724595
0.501820298564
0.501617287181
0.501398106095
0.50116211928
0.500909712392
0.500640682406
0.500355606527
0.500054423737
0.499738162008
0.499407645218
0.499064383201
0.498710149553
0.498347194061
0.497978274322
0.497606724697
0.497236113055
0.496871006478
0.496516476559
0.496180030219
0.495866586273
0.495578926328
0.495319872401
0.495093189744
0.49490258538
0.494751737598
0.494646208968
0.494591809616
0.494590490993
0.494643592811
0.494753282292
0.494919238091
0.49513763737
0.4954092385
0.495736191364
0.496118282938
0.496554922488
0.497044959535
0.497587192623
0.498179539609
0.498819753296
0.499504417604
0.500229915795
0.500992117141
0.501786375355
0.502607607285
0.503450532005
0.504309675599
0.505181037123
0.506061483966
0.506947086992
0.507833488094
0.508718567238
0.509603630021
0.510482951626
0.511349323841
0.512211947516
0.513091317318
0.513968814691
0.514813975683
0.515660799531
0.516550132992
0.517452573518
0.518283784041
0.519039541625
0.519829561261
0.520471710397
0.521110274263
0.521784244625
0.522432872183
0.52321285175
0.523779000752
0.524394228107
0.524958179207
0.525495875585
0.52579837814
0.526028459977
0.526214385155
0.52640380982
0.526632550912
0.526878618733
0.527121191106
0.527361771608
0.527599646158
0.527835215513
0.528070014181
0.52830595959
0.528543761233
0.528780672576
0.52901282161
0.52923833544
0.529457111738
0.529670809598
0.529881318008
0.530089514647
0.530296040773
0.530501270386
0.530705627538
0.53090923222
0.531112116883
0.531314249467
0.53151571292
0.531716606379
0.53191718931
0.532117715878
0.532318789477
0.532521244758
0.532725780225
0.53293199158
0.533139511449
0.533349456717
0.53356216196
0.533777332888
0.533994110222
0.534212072852
0.534431628119
0.534653774159
0.534879750502
0.535110585656
0.535347409885
0.53559144727
0.535843936746
0.536105590705
0.536376297307
0.536655246172
0.536940475717
0.537229405098
0.537518477041
0.537804419446
0.538082226132
0.538346309485
0.538591213477
0.538812813755
0.539007311556
0.539171611479
0.53930923805
0.539412378277
0.539481836788
0.539519252224
0.539523056301
0.539486329298
0.539399113569
0.539257945213
0.538993392677
0.538696992456
0.538346317954
0.537949757261
0.537550906002
0.537130420784
0.500414993934
0.500340900552
0.500379899769
0.50050022324
0.50062734501
0.50073260941
0.500825581805
0.500913483726
0.50100039981
0.501086301275
0.501170165761
0.501249960032
0.501323709278
0.501389349962
0.501445396224
0.501490609658
0.501524495701
0.501546738661
0.501557772333
0.501558065846
0.501548572082
0.501529331886
0.501501938372
0.501466046443
0.501422085161
0.501369327194
0.501307996448
0.501236844333
0.501155465948
0.501062517582
0.50095744875
0.500838812799
0.50070625693
0.500558744931
0.500395946724
0.500217335103
0.500023356657
0.499813431094
0.499588107737
0.499347651266
0.499092957623
0.49882502894
0.49854540753
0.498255965434
0.497959023668
0.497657278565
0.49735398199
0.49705268057
0.496757371998
0.496472346913
0.496203727424
0.495957869026
0.495741654
0.495559544772
0.495415012421
0.495310825697
0.495249297754
0.495230321917
0.49525298926
0.495318793296
0.495430377437
0.495589874225
0.495802444408
0.496072133071
0.496397528899
0.496779706663
0.497219963335
0.497718510165
0.498273898607
0.49888379174
0.499544531276
0.500251733029
0.501000331059
0.501784950372
0.502600106079
0.503440291506
0.504300191539
0.505174496566
0.506058182163
0.506946376277
0.507836744539
0.508726093984
0.509609683605
0.510484355661
0.511353490881
0.512218190361
0.513063640977
0.513886268099
0.514709267577
0.515541723923
0.516349150801
0.517103357918
0.517879635561
0.518654120138
0.519391627728
0.520094565651
0.520737687847
0.521224421095
0.521785666936
0.52253687459
0.52335899502
0.523937839743
0.524233919576
0.524547078545
0.524707850569
0.524923105341
0.525296762107
0.525820067561
0.526315708369
0.526760637613
0.52717539361
0.527552349911
0.527895352568
0.528215661141
0.528518937339
0.528809262285
0.529090097931
0.529364079484
0.529632088356
0.529891904464
0.530141106218
0.530379094494
0.530607190953
0.530827639103
0.531041581627
0.531249750549
0.531452627973
0.531650589829
0.531843953136
0.532033190016
0.532218963417
0.532401946161
0.532582592657
0.532761213428
0.532938125937
0.533113741885
0.533288678172
0.533463352473
0.533637842935
0.53381085136
0.533982148123
0.534152610549
0.534323415594
0.534494276338
0.53466376237
0.534830784011
0.534994907712
0.535156206879
0.535314630801
0.535470083626
0.535622433026
0.535771738638
0.535917905009
0.536060968335
0.536201178034
0.536339036425
0.536475249281
0.536610941423
0.536747261647
0.536885854121
0.537028361002
0.537176405108
0.537331615315
0.537495753232
0.537670065363
0.537856054823
0.538056291526
0.538271188192
0.538497582041
0.538732588783
0.538971280899
0.539203730792
0.539417428163
0.539587346598
0.539686924414
0.539698168498
0.539602554909
0.539394854816
0.539122114154
0.538937907664
0.500885241605
0.500776328097
0.500523152033
0.500388504014
0.500317241938
0.500262081546
0.500229615506
0.500220864953
0.500234263433
0.500266565043
0.500314047422
0.500372292637
0.500437678119
0.500506540448
0.500576063723
0.500643715122
0.500707769022
0.50076685111
0.500820466118
0.50086760245
0.50090863889
0.500943270414
0.500971687141
0.500993255854
0.501008379
0.50101566608
0.50101481399
0.501004516841
0.500983997628
0.500951613787
0.500906488673
0.500847284938
0.500773148008
0.500682720578
0.500576059894
0.500452223377
0.500311266092
0.500153040947
0.49997811818
0.499786765166
0.499580157513
0.499359544311
0.499126825505
0.498884279319
0.498634657761
0.498381168197
0.498127580281
0.49787774021
0.497636115334
0.497407505466
0.497196551547
0.497006791689
0.496843918759
0.496712779137
0.496617859475
0.496562913819
0.496551394791
0.496584976036
0.496662282547
0.496780622527
0.496939396336
0.497139800564
0.497384662091
0.497679034699
0.498029064278
0.498438568841
0.498909515425
0.499442858342
0.500038181626
0.500693494524
0.501405309487
0.502168521088
0.502976628938
0.503822755827
0.504699614156
0.505599027516
0.506513756595
0.50743832725
0.508365726644
0.50928930198
0.510206871882
0.511119141204
0.512017997531
0.512894027133
0.513755349444
0.514609635669
0.515442486008
0.51622026361
0.516988928405
0.517758539749
0.51849450337
0.51917951681
0.519825284336
0.520452498096
0.521029813314
0.521607624257
0.522246392138
0.522939057195
0.523733608914
0.52448704767
0.525006274994
0.525219670538
0.525368244759
0.525560098433
0.525730132785
0.526046309924
0.526557685368
0.527199852288
0.527830790231
0.528395523309
0.528889932424
0.529319093731
0.529697663762
0.53004038512
0.530356168284
0.53065135503
0.530930675375
0.531197673544
0.531453434092
0.531696920952
0.531927069615
0.532144940301
0.532353574283
0.53255527238
0.532751182873
0.532941925502
0.533128045694
0.533310070679
0.533488574555
0.533664101025
0.533837440015
0.534009097502
0.534179251212
0.534348218103
0.53451640764
0.53468451801
0.53485307472
0.535022107373
0.535190759096
0.535357564727
0.535522070582
0.535685825343
0.535850691983
0.536016655485
0.536182598969
0.536347615827
0.536511461101
0.536674313851
0.536836440447
0.536998138077
0.53715962506
0.537321123615
0.537482522555
0.53764371488
0.53780459791
0.537965041874
0.538124765392
0.538283245373
0.538439814061
0.538593744755
0.538744601918
0.538891889861
0.539035173971
0.539174617626
0.539310817867
0.539445120694
0.539580883995
0.539720297673
0.539865258969
0.540018899038
0.540182981099
0.54035599959
0.54053430424
0.540709963794
0.540864497116
0.540990869013
0.541077775412
0.54112601717
0.541189663692
0.541398664747
0.501427242359
0.500798380764
0.500153938832
0.499911552847
0.499824107706
0.499766659533
0.499732951781
0.499721068154
0.499731646032
0.499762719992
0.499812401389
0.499877613577
0.499955323242
0.500041986311
0.500134784564
0.500230755705
0.500327969372
0.500424221619
0.500518435055
0.500609532087
0.500697047781
0.500779804506
0.500858177488
0.500931005213
0.500997857831
0.501057697518
0.501109939458
0.501152910316
0.501185694611
0.50120664969
0.501214758153
0.501208263563
0.501186510715
0.501148311751
0.501093093154
0.501020099737
0.500929632767
0.500821123068
0.500695155679
0.500552111802
0.500393099812
0.500219305793
0.500032611729
0.499835156847
0.499629645782
0.499419010204
0.499206824002
0.498996833589
0.498793053468
0.498600078451
0.498424028037
0.498269205141
0.498140906158
0.498044241042
0.497983231686
0.497961354626
0.497982426756
0.498048962046
0.498161422655
0.498321246358
0.498529567084
0.498786915115
0.499093823992
0.499449887218
0.499856313647
0.500315939535
0.500831324194
0.501404308499
0.502034927299
0.502722049726
0.503462862938
0.504252971919
0.505085415614
0.505954283336
0.506852769831
0.507772177807
0.508703685054
0.509643755506
0.510588536924
0.511525104191
0.5124470331
0.513364280474
0.514270294101
0.515146495253
0.516004213829
0.516857362025
0.517685242028
0.518467815333
0.519196380209
0.519905540985
0.520612264588
0.521264355614
0.521900838006
0.5225052322
0.523131647242
0.523865867703
0.524656618414
0.525425077169
0.526086672072
0.526506848366
0.526672983616
0.52671187463
0.526818923729
0.527011075111
0.527271755489
0.527669945918
0.528188938389
0.528772866106
0.529343812977
0.52986305639
0.530319502215
0.530717146771
0.53106772799
0.53138303113
0.531671446842
0.531939398256
0.532191833908
0.532432124907
0.532661268867
0.532878651975
0.533084025575
0.53327939241
0.533467867612
0.533651255143
0.533830119212
0.534004575262
0.534174748385
0.534340869742
0.534503305382
0.534662456025
0.534818623671
0.534972128664
0.535123433292
0.535272968595
0.535421322044
0.535569173616
0.535716849565
0.535863948621
0.536008817084
0.536149950776
0.536287018873
0.536422461786
0.536558581808
0.536695809634
0.536833438118
0.536970647861
0.537107188252
0.537243136439
0.537378736881
0.537514275306
0.53764993195
0.537785852159
0.5379221951
0.538059059033
0.538196512893
0.53833448474
0.538472932843
0.538611831452
0.538751025358
0.538890327793
0.539029840576
0.539169643554
0.53930990219
0.539451159187
0.539593936854
0.53973922968
0.539889285257
0.54004511671
0.54020702598
0.540376424778
0.540552740017
0.540733171851
0.540914634111
0.541091421887
0.541253134918
0.541397572736
0.541528097022
0.541662049171
0.541863906169
0.542247867541
0.50191672186
0.500170566625
0.499307284671
0.499287982841
0.499379046006
0.499420121689
0.49943898432
0.49945477439
0.499480785026
0.499522479474
0.499582091326
0.499657875127
0.499748144514
0.49984962476
0.499959993297
0.500076227121
0.500196429027
0.500318362268
0.500440935184
0.500562214855
0.500681906048
0.500798910952
0.500912581561
0.501021839966
0.501126496864
0.50122482731
0.501316053983
0.501398603013
0.501471351941
0.501532492716
0.50158086291
0.501614952667
0.50163375447
0.501635862861
0.501621158213
0.501588699078
0.501538508221
0.501470468411
0.501385266055
0.501283298045
0.501165962416
0.501034575478
0.500891252714
0.500738233685
0.500578332846
0.50041446312
0.50025016891
0.500088802444
0.499934288773
0.499791119169
0.499665187065
0.499560745581
0.499483571052
0.499438921497
0.499431511731
0.499465531318
0.499544824921
0.499668776329
0.499835926758
0.500045403545
0.50029727003
0.500591719891
0.500930683386
0.501315494871
0.501751038199
0.502240833307
0.502788477021
0.503396250617
0.504063934252
0.504788767555
0.505568466878
0.50639730295
0.507266443401
0.508167419517
0.509096250183
0.510043148339
0.510994385262
0.511944457993
0.512897144069
0.513843012123
0.514757391959
0.515675655524
0.516581040351
0.517459971277
0.518300804772
0.51909900929
0.519876608305
0.520626906123
0.521349611942
0.522062614311
0.52272383346
0.523377632241
0.524100260896
0.52483220867
0.52557979234
0.526310286955
0.526956681886
0.527475253829
0.527842632874
0.528024322666
0.528088735192
0.528161566201
0.528328395651
0.528576188833
0.528899865774
0.529317194937
0.529799464517
0.530308195032
0.53080229717
0.531259487511
0.531670763264
0.532037367405
0.532365757947
0.532663467573
0.532936767204
0.533190903551
0.53343008581
0.533656789925
0.533871633893
0.534073963614
0.534264026493
0.534444303231
0.534617511469
0.53478515504
0.534947627887
0.535104970984
0.53525724323
0.535404676821
0.535547665526
0.535686729162
0.535822477339
0.535955726595
0.536087143691
0.536217330673
0.536347010974
0.536476942153
0.536607298887
0.536737005698
0.536864072693
0.536986567732
0.537104647073
0.537220892543
0.537337605699
0.537455476553
0.53757396343
0.537692445531
0.537810641806
0.537928565914
0.538046368241
0.538164053247
0.538281706575
0.53839939659
0.538517204446
0.538635285282
0.538753725768
0.538872627052
0.538992039241
0.539112039569
0.539232619186
0.539353811591
0.539475875571
0.539599053144
0.539723754346
0.53985073886
0.539980910826
0.540115500663
0.540256704906
0.540405665885
0.540562992361
0.540730126836
0.540906304341
0.541088889682
0.541275501197
0.541462071023
0.54164020141
0.541809572117
0.541977152599
0.542165763239
0.542437140209
0.542880948936
0.502179203238
0.498851574118
0.498233442011
0.498762719432
0.499086044792
0.499226990356
0.499298768483
0.499352093404
0.499412089087
0.499485819183
0.499576675347
0.499683089423
0.499803826085
0.499935702797
0.500076903997
0.500224454439
0.500376903959
0.500531765565
0.500688076465
0.50084439349
0.500999962687
0.501153239025
0.501304226087
0.501451434441
0.501594149716
0.501731176616
0.50186167426
0.501983860278
0.502096706459
0.502198484619
0.502288094894
0.502363791992
0.502424861643
0.502470160339
0.502499115259
0.502511091694
0.502506408329
0.50248472032
0.502446832671
0.502393358662
0.502325721622
0.502245274646
0.502154121582
0.50205434013
0.50194852918
0.501839057659
0.501728956297
0.501620958273
0.50151793739
0.50142333597
0.501343763656
0.501282807343
0.501246890288
0.501243318384
0.501278574301
0.501358624529
0.50148675934
0.50165979446
0.501875977284
0.502133385043
0.50243101949
0.502766418262
0.503139423926
0.5035525129
0.504013111664
0.504525333116
0.505094809181
0.505725923893
0.506418362497
0.507168049303
0.507971866116
0.508826973275
0.509720566582
0.510638537436
0.511577936779
0.512532876322
0.513488328742
0.514438434056
0.515392795195
0.51633416978
0.517253815421
0.518137599901
0.518981942966
0.51981287056
0.52062042131
0.521393298386
0.522130013862
0.52283081262
0.523532551974
0.52425910268
0.524966973873
0.525690156503
0.526418338209
0.527106332947
0.527750481162
0.52830588547
0.528745025551
0.529061889094
0.529276772954
0.529400869993
0.52950871852
0.529670200106
0.529901275942
0.530187637984
0.530531181413
0.53093055844
0.531361843867
0.531801093987
0.532226273116
0.532624597712
0.532989829738
0.533321529165
0.533622469183
0.533896912985
0.534149071049
0.534383013747
0.534601988721
0.534807912158
0.535001126985
0.535181365244
0.53534960198
0.53550839863
0.535660373392
0.535806970858
0.535948737979
0.536085851115
0.53621849422
0.536346965227
0.536471721646
0.536593330051
0.536712365394
0.536829318621
0.536944612813
0.537058812839
0.537172668608
0.537286890394
0.537401394857
0.537514743671
0.537624703215
0.5377294092
0.537829537006
0.537927623736
0.538025953043
0.538125195155
0.538224980458
0.538324899238
0.538424803171
0.538524828392
0.538625004589
0.538725418847
0.538826082543
0.538927061524
0.539028416455
0.539130194981
0.539232499835
0.53933545984
0.539439152925
0.539543663876
0.5396490143
0.539755333298
0.5398629523
0.539972232435
0.540083642797
0.540198112827
0.54031668711
0.540440647916
0.540572049566
0.54071207958
0.540861493269
0.541021736838
0.541192284096
0.541370945651
0.541556353611
0.54174626133
0.541934740698
0.542123444937
0.54232173656
0.542555150839
0.542879162705
0.543361693914
0.502096226075
0.497039991316
0.497263134804
0.498467173339
0.498926333998
0.499132797456
0.499259469764
0.499370654025
0.49948869603
0.499618049224
0.499761802155
0.499917362579
0.500084503981
0.500260169789
0.50044346524
0.500631658002
0.500823824357
0.50101780811
0.501213077155
0.501407685558
0.501601445445
0.501793001509
0.501981707937
0.502166488435
0.502347133434
0.502521958729
0.502690341815
0.502850838698
0.503002508422
0.503143730078
0.503273582992
0.50339077051
0.50349449818
0.503583661365
0.503658242315
0.503717538328
0.50376173881
0.503790942112
0.503805956541
0.50380734108
0.503796589994
0.503774961508
0.503744350541
0.503706481436
0.503663317065
0.503616473949
0.503567627964
0.503518165703
0.503469646804
0.503423858307
0.503386085109
0.503362472336
0.503361092726
0.503393604429
0.503471723103
0.503605723206
0.503796041541
0.504035862024
0.504320932637
0.504646011026
0.505004080417
0.505387616212
0.50579103227
0.506224734981
0.506697172109
0.507216243928
0.507789700737
0.508426404466
0.509129562816
0.509890907617
0.510702724497
0.511565674013
0.512469323008
0.51338706324
0.514333418808
0.515294313919
0.51624703858
0.517183797153
0.518092963705
0.518969761172
0.519835562372
0.520678599274
0.521487383087
0.522262899898
0.523002181167
0.523710178957
0.524409118972
0.525118711796
0.525841230462
0.526560366438
0.527243946313
0.527913678517
0.528532903706
0.529089349407
0.529580965009
0.529986911476
0.530301778424
0.530530846695
0.530704738431
0.530850812477
0.531019080619
0.531234133272
0.531492372158
0.531787754884
0.532120731712
0.532483592986
0.532860433929
0.533237506818
0.53360275221
0.533948330544
0.534269710547
0.534565553829
0.534836665456
0.535085253164
0.535314158339
0.535526482334
0.535724743101
0.535910384743
0.536083629689
0.536244482763
0.536394213275
0.536535205875
0.536669680497
0.536798919008
0.53692346046
0.537043482742
0.537159127194
0.537270615452
0.537378314205
0.537482693804
0.537584267981
0.537683526908
0.537781060942
0.537877587783
0.537974044732
0.53807112595
0.538168469937
0.538264386737
0.538356464581
0.538443253355
0.538525653494
0.538606076316
0.538686557597
0.538767694483
0.538849287784
0.538931063419
0.539013046644
0.53909533713
0.539178040925
0.539261198984
0.539344789758
0.539428850019
0.539513421966
0.539598596193
0.53968449266
0.539771271611
0.539859064239
0.539948026934