/*--------------------------------*- C++ -*----------------------------------*\
| =========                 |                                                 |
| \\      /  F ield         | OpenFOAM: The Open Source CFD Toolbox           |
|  \\    /   O peration     | Version:  v1806                                 |
|   \\  /    A nd           | Web:      www.OpenFOAM.com                      |
|    \\/     M anipulation  |                                                 |
\*---------------------------------------------------------------------------*/
FoamFile
{
    version     2.0;
    format      ascii;
    class       volScalarField;
    location    "16";
    object      sensitivity;
}
// * * * * * * * * * * * * * * * * * * * * * * * * * * * * * * * * * * * * * //

dimensions      [0 2 -3 0 0 0 0];


internalField   nonuniform List<scalar> 
12225
(
-2.36288553775
-8.61862168738
-6.52376274373
-7.26316317592
-6.94453758314
-7.1009538057
-7.16084150195
-7.40530260757
-7.75656858722
-8.22242994623
-8.71705336513
-9.09637033681
-9.20648355031
-9.05539327821
-9.24008110166
-11.2321585453
-15.9389286259
-18.7535306146
-19.4900113591
-9.22210601542
-10.6284348173
-10.4662496584
-10.9465560565
-11.3515462801
-11.8975057504
-12.5325108161
-13.2617522116
-14.0401227082
-14.7944096815
-15.3928014155
-15.7431218773
-15.9827188353
-16.7915738149
-19.3284172412
-23.3750701833
-23.6569518124
9.37615895967
-12.84056592
-7.61519305887
-9.3299161142
-8.87161384401
-9.23729314999
-9.44624986081
-9.83481504802
-10.2718782484
-10.7432267541
-11.1555482886
-11.4056246883
-11.4467381737
-11.485722119
-12.2036199371
-14.4809762231
-17.7224491281
-18.0823267643
-25.361392312
-7.72867169357
-10.0829764336
-9.55870220799
-9.89259737082
-10.1364643384
-10.4922917568
-10.9417673646
-11.4500593296
-11.9657587576
-12.3943414525
-12.6287633201
-12.6309417783
-12.5914086994
-13.0333090725
-14.4167779737
-15.9505526345
-15.3393865824
4.61412576187
-9.81815988866
-8.41864907121
-9.04629318658
-9.0039341108
-9.27596377286
-9.55916077758
-9.96464918131
-10.4351007718
-10.9383695963
-11.3969853308
-11.7325266014
-11.940023887
-12.1929384771
-12.8298868733
-13.938029481
-14.6913685306
-13.8194055607
-12.4747678113
-9.95133610364
-9.06307653755
-9.49380812779
-9.50547422364
-9.72650244896
-9.94750619709
-10.25363944
-10.5944199519
-10.9464011657
-11.2530584867
-11.4727561018
-11.6376377902
-11.9070861479
-12.4815721586
-13.256749217
-13.5588798828
-12.7419949044
-6.34564915593
-9.35716491588
-9.04939499735
-9.35723097279
-9.45099401741
-9.66953294039
-9.90659506961
-10.2018306816
-10.5164838508
-10.8231099492
-11.0784099671
-11.2621498154
-11.4208848434
-11.6786548626
-12.1277412868
-12.5979913732
-12.626563768
-11.926490868
-8.2638991112
-9.57219559976
-9.13264715035
-9.43988549376
-9.52477194651
-9.71841762412
-9.92675118873
-10.1802040213
-10.4448738526
-10.6963034194
-10.9032421146
-11.059862126
-11.2115858076
-11.438296089
-11.7567290158
-11.9979752889
-11.8778185173
-11.2904090047
-8.42191866982
-9.46827783325
-9.2768228202
-9.49130233023
-9.60140238806
-9.7672085
-9.95235077601
-10.1656179787
-10.383113468
-10.5836584734
-10.7474908973
-10.8774695943
-11.0104433164
-11.1880637215
-11.3865671518
-11.4697244765
-11.2777995273
-10.7853433252
-8.80356392565
-9.44083693221
-9.40560077249
-9.55071461142
-9.67268038603
-9.81209582836
-9.97296087811
-10.1484001809
-10.322752256
-10.4786322018
-10.6050231038
-10.7082105863
-10.8132541972
-10.9343364689
-11.0332435703
-11.0134554758
-10.7926920802
-10.3758648933
-9.15516425217
-9.4124962852
-9.53186328257
-9.60532819482
-9.7350263483
-9.84754779189
-9.98440728972
-10.1247488306
-10.2605833886
-10.3779673504
-10.4717406779
-10.5477621177
-10.6198112103
-10.685622153
-10.7076030255
-10.623606805
-10.3954322427
-10.0379544045
-9.41693556393
-9.39882257335
-9.6179358271
-9.63615321331
-9.76597367088
-9.85523975685
-9.97004964285
-10.080893709
-10.1853930779
-10.2721980142
-10.3390020077
-10.3898218593
-10.4303618471
-10.4515587986
-10.4228215894
-10.305221275
-10.0822856489
-9.76922750569
-9.63794840428
-9.40659587394
-9.68471989443
-9.65985306925
-9.78417729704
-9.85249615976
-9.94636484803
-10.030944417
-10.1076010041
-10.1672165586
-10.209303984
-10.2352187319
-10.2457029452
-10.229887171
-10.1647473756
-10.0277146411
-9.81373336132
-9.5373867544
-9.83870663475
-9.41973323105
-9.73891168271
-9.67419551207
-9.78751298808
-9.83347561713
-9.90407715185
-9.96151335289
-10.0101153035
-10.0426297096
-10.0586951468
-10.0582960902
-10.0393100526
-9.99149363961
-9.89991769775
-9.75269650191
-9.5517749416
-9.30950367878
-10.0295493873
-9.43532412495
-9.78560339431
-9.68412290244
-9.78075345281
-9.80280912132
-9.84783105357
-9.87755485273
-9.89780445583
-9.90257078019
-9.89207659959
-9.86494613454
-9.81854831112
-9.74555771086
-9.63678644716
-9.48735314291
-9.30170891162
-9.09076943563
-10.1763655015
-9.46460485996
-9.82000593856
-9.6916092815
-9.76651144689
-9.76491349816
-9.78363215823
-9.78614228965
-9.77870424381
-9.75692413356
-9.72053460523
-9.66863293459
-9.59938940323
-9.50822580512
-9.39021049285
-9.2440903674
-9.07485810409
-8.89183272692
-10.2318624675
-9.49299715057
-9.82691380742
-9.68209618935
-9.73199223475
-9.70785405868
-9.70097049438
-9.67820670994
-9.64565669354
-9.59994177393
-9.54133087421
-9.46939489712
-9.38352975256
-9.28127594499
-9.1603791852
-9.02106710006
-8.8682071498
-8.70939219176
-10.2338498014
-9.51789216395
-9.80454223037
-9.65261676532
-9.67470150697
-9.63053468576
-9.59989098934
-9.55500283881
-9.5010237418
-9.43599559489
-9.36039316913
-9.27456179662
-9.1787193202
-9.07181948915
-8.95281682618
-8.8225417018
-8.68528942915
-8.54785481477
-10.2204207171
-9.54158260915
-9.76357069534
-9.6088633184
-9.60470399688
-9.54455206492
-9.49463964701
-9.43271648642
-9.36275127385
-9.2839222789
-9.19695742739
-9.10280954815
-9.00219721585
-8.89471579524
-8.77968272204
-8.65794487655
-8.53293592246
-8.41077972834
-10.0627845682
-9.49016331948
-9.73445698542
-9.57662119083
-9.5640799
-9.49520988607
-9.43692356601
-9.36755836888
-9.29142088862
-9.20824927668
-9.11899686345
-9.02477675942
-8.92638587228
-8.82386473863
-8.71654058844
-8.60528110904
-8.49349116317
-8.38791929151
-10.571933409
-9.64539711091
-9.71200228638
-9.55251175565
-9.53067858984
-9.45709736184
-9.3928204113
-9.317463562
-9.23554255515
-9.14681366286
-9.05181296162
-8.95279309819
-8.85094630172
-8.74580518888
-8.6367039233
-8.52401720205
-8.40992814404
-8.30122568018
-8.80192102043
-9.20684489831
-9.84946739326
-9.6633505307
-9.66526567798
-9.58344189717
-9.51776555769
-9.43917823372
-9.35804093966
-9.27244411583
-9.18521532206
-9.09545611349
-9.00404168493
-8.91125878387
-8.81648431385
-8.72000698637
-8.62507417506
-8.52965605938
-14.398647477
-10.1518747865
-9.61052463906
-9.49411064583
-9.45997299558
-9.39001887595
-9.31976532053
-9.2403477832
-9.15558696969
-9.06627701091
-8.9726735128
-8.8785678823
-8.78442797502
-8.69028880294
-8.59533580244
-8.50049251402
-8.40745065207
-8.34650277909
0.121095144285
-8.76216046808
-10.1377117039
-9.96873049691
-10.0027146514
-9.89154041157
-9.8163613591
-9.71819464511
-9.61914116044
-9.51325740787
-9.40245446132
-9.28617257406
-9.16609725941
-9.04090275445
-8.90988045845
-8.77382591581
-8.63568527758
-8.45908559328
-31.2995269479
-9.72093549691
-9.83309579113
-9.40093500955
-9.45305395551
-9.38519699543
-9.32230716918
-9.26340991885
-9.2079249225
-9.16046106978
-9.12098518573
-9.08637620995
-9.0559649889
-9.0306262117
-9.00946853526
-8.99125106897
-8.97362789366
-9.00385868857
26.6144362512
-11.5539509796
-9.3018323255
-10.4322662771
-10.0792141201
-10.0154332866
-9.89024889018
-9.75719865693
-9.61743170539
-9.46628926732
-9.30512711641
-9.13326379715
-8.94983823219
-8.75679771963
-8.55890582612
-8.36646110442
-8.19434678448
-8.01015470325
-57.0514209412
-3.76058356029
-12.2845951335
-9.25984579183
-10.1373744459
-9.85039747332
-9.8722171948
-9.81602807204
-9.78133100462
-9.74510706463
-9.71016266264
-9.67361617256
-9.63676057884
-9.60335142362
-9.57952118622
-9.57072706861
-9.57216819707
-9.61692743508
32.7973274148
-17.5876631941
-7.54398118213
-10.7398330364
-9.6040192079
-9.77092907332
-9.5531633248
-9.44398237621
-9.30327046863
-9.17153626526
-9.03869441856
-8.90702612487
-8.77686820266
-8.64853871484
-8.52148489085
-8.39499654853
-8.2649310607
-8.07197182697
-35.0797378063
-6.27498589032
-12.8503198221
-10.643889095
-11.3005841156
-11.0327347136
-11.0485728814
-10.969526518
-10.9151935978
-10.8507137451
-10.7879198017
-10.7202600975
-10.6488033154
-10.572507692
-10.4868435755
-10.3847182464
-10.2498300537
-10.1426580857
-1.85874951303
-8.58617611049
-6.59419683529
-6.90853096901
-6.67429806813
-6.56087556953
-6.42310718562
-6.28710253018
-6.1533774209
-6.02197926253
-5.89619722338
-5.77700613731
-5.66567230427
-5.55915737769
-5.45136990245
-5.34431870924
-5.26664992492
-5.22585716705
0.0133828753648
0.0210281853293
0.0267895903829
0.0213413278895
0.00762603386801
-0.0220056417676
-0.0442987908076
-0.0727439392328
-0.104315510417
-0.135805262449
-0.165608745938
-0.19365532613
-0.221092204904
-0.24942030599
-0.280304398682
-0.314829582973
-0.35378560856
-0.397222069849
-0.444872168094
-0.496060405977
-0.549950212543
-0.605579111782
-0.661934673419
-0.718148435549
-0.773247600309
-0.826611911814
-0.8775371336
-0.925625427708
-0.970314425159
-1.01141635834
-1.04859748377
-1.08180348363
-1.11085132392
-1.13577754135
-1.15652680328
-1.17312182402
-1.1856219101
-1.19400027859
-1.19829268092
-1.1984141372
-1.19439928577
-1.18608971412
-1.17350417318
-1.15644982699
-1.13495504523
-1.10887324421
-1.07821267727
-1.04295703241
-1.0031481074
-0.958850854299
-0.910146489802
-0.857234673152
-0.800126003029
-0.739107904219
-0.674323605619
-0.60605641192
-0.534455130805
-0.45985108488
-0.382483738584
-0.302698415708
-0.220758333072
-0.137069226263
-0.0522371831394
0.0322404293933
0.114333105852
0.195420391414
0.275926650937
0.356095664838
0.436035392376
0.515583748368
0.594541972443
0.672584143468
0.749387624642
0.824576631924
0.897754031052
0.968508479445
1.03635662042
1.10094691477
1.16193621932
1.21904003306
1.27195237336
1.32051538217
1.36470036979
1.40464171646
1.44051041538
1.47260910104
1.50116871512
1.52627735236
1.5479945135
1.5662188646
1.5804109949
1.58972091072
1.59260997104
1.5874039835
1.5720539633
1.54439908146
1.50239374908
1.44507102312
1.37301956781
1.28760788229
1.18934126108
1.07467894195
0.932781575212
0.777009357438
0.631414066696
0.48253406221
0.327940404674
0.207747268002
0.0554573487729
-0.132606450941
-0.101582095004
-0.136821489401
-0.172797429207
-0.216242505118
-0.256202281677
-0.292350438202
-0.324596882755
-0.353270074696
-0.378888929127
-0.402061096345
-0.423311919177
-0.442987798677
-0.461230691904
-0.478141643702
-0.493788998806
-0.50823985349
-0.521470361811
-0.533426065407
-0.543994420845
-0.553053743671
-0.560397154297
-0.565797693389
-0.569462225215
-0.571429877191
-0.571777174249
-0.570590549992
-0.567933484568
-0.56386225734
-0.55868517904
-0.552874913075
-0.546864923283
-0.540780019812
-0.534559492609
-0.528063870611
-0.52125196151
-0.514111731652
-0.506647910277
-0.498866464698
-0.490830911686
-0.482628293362
-0.474367721095
-0.466098319192
-0.457872086538
-0.449679964349
-0.441556043171
-0.433429097854
-0.425232920237
-0.416785359034
-0.407998554593
-0.398744002588
-0.38907615873
-0.378913938979
-0.368276106647
-0.357097445903
-0.345530697007
-0.333813062852
-0.321923746094
-0.309380523245
-0.29603363338
-0.281645203038
-0.265674948092
-0.248023044154
-0.223430754489
-0.197622528337
-0.174606456903
-0.150394282188
-0.116757100402
-0.0801852505296
-0.043529881749
-0.0989969577991
0.00725700309532
8.75761136198e-05
0.00206528485921
0.0100270847269
0.0151895548419
0.0150588476269
0.0119648571092
0.00828327248369
0.00629036828285
0.00770949858059
0.0133815625738
0.0233404675643
0.0370613943723
0.0538895026914
0.07302745665
0.0938170454044
0.115576239452
0.137768020175
0.15990070354
0.18160715433
0.202621057814
0.22272035696
0.241929738405
0.260294242196
0.278101963611
0.295622573573
0.313407770116
0.331947285523
0.351982433025
0.374134270939
0.399193029551
0.427782964594
0.460610933615
0.498243390952
0.541182168052
0.589811820934
0.644415657089
0.705194365786
0.77219180961
0.845436496119
0.924772167687
1.01005432657
1.10096213669
1.19720577324
1.29834357098
1.40394741129
1.51349666345
1.6264744342
1.7423196253
1.86039240481
1.98017276274
2.1010728464
2.22260399946
2.34419758216
2.46538002275
2.58559425703
2.70441350501
2.82135612524
2.93603064481
3.04801446162
3.15693790588
3.26268697408
3.36565311583
3.46783164853
3.56875157334
3.66511978432
3.75513755431
3.83768003723
3.91190232017
3.97712850269
4.03284316835
4.07867094816
4.11440991933
4.14002307917
4.15558244015
4.1612899886
4.1574029139
4.14424545434
4.12204266377
4.09079808022
4.05014803025
3.99937771289
3.93732480432
3.86247579364
3.7730668411
3.6673339524
3.54390425334
3.40212797274
3.24245823332
3.06745585771
2.88106549641
2.68734042004
2.48996202585
2.2918702582
2.09588034692
1.90541447298
1.7240109136
1.55341298048
1.38851473674
1.22086499698
1.04599280541
0.878714541176
0.736127652677
0.588552117591
0.418893339975
0.288302447349
0.178215050502
-0.0302950975692
-0.273967211759
-0.272343769042
-0.314981050394
-0.431554588506
-0.530173829349
-0.629094998537
-0.720572549611
-0.805269194052
-0.883336693008
-0.955084928265
-1.02095735608
-1.08144088584
-1.13695443023
-1.18771611252
-1.23376350914
-1.27503350649
-1.31150501413
-1.34323053306
-1.37036116724
-1.39310516198
-1.41171502892
-1.42644916624
-1.43760406693
-1.44550957033
-1.45017369742
-1.45216600204
-1.45201735372
-1.44974296697
-1.44513113216
-1.43809254002
-1.42889470387
-1.41798026599
-1.4057208613
-1.3922084118
-1.37736432186
-1.3610893757
-1.34336301247
-1.32421251827
-1.30374102161
-1.28211823794
-1.25954073177
-1.23616935671
-1.21215979126
-1.1876808537
-1.16295512818
-1.13816872816
-1.11344679139
-1.08877811883
-1.06413667697
-1.03943476032
-1.01460187103
-0.989435213803
-0.96370228536
-0.937060984508
-0.909298556604
-0.880112369809
-0.849164941438
-0.81594430225
-0.779433012277
-0.738980154249
-0.694385758886
-0.646171300621
-0.594636902874
-0.541945587744
-0.489747180471
-0.450012925556
-0.414944355617
-0.378295602893
-0.318553599775
-0.239285257454
-0.130294904037
-0.014686758299
0.00338140671336
0.0213947587525
0.0286441385649
0.0327427314899
0.0382417648411
0.0457541510161
0.0565259151387
0.0725666463938
0.0954228818383
0.124847114481
0.159353819132
0.197071609999
0.236304450594
0.275851580199
0.314873743556
0.352920075481
0.389705470639
0.425135932674
0.459201329776
0.49193476103
0.523451185699
0.553852282135
0.583306744389
0.611927100191
0.63993876548
0.667457446304
0.694708747767
0.721829806162
0.749072027097
0.776581929194
0.804594041805
0.833266232171
0.862801881798
0.893319440986
0.924975949753
0.957880655649
0.992098697971
1.0277144431
1.06475623461
1.10326176736
1.1431858158
1.18451074436
1.22711432481
1.27089846557
1.31566127257
1.36121003581
1.4072928284
1.45362013103
1.49990977906
1.54586045845
1.59117428451
1.63554065977
1.67875221429
1.72052697399
1.76064091526
1.79883524204
1.83490942888
1.86864136878
1.89984751718
1.92833217242
1.95388454902
1.97616772886
1.99371303844
2.00650449666
2.01792083598
2.0298017639
2.0430258423
2.05818447364
2.07595649259
2.0970245455
2.12194499782
2.1510713514
2.1844779845
2.22197134466
2.26308216405
2.30708200737
2.35304652275
2.39991995296
2.44649237659
2.49138951937
2.5330517746
2.56975190763
2.59958019642
2.62042534792
2.62991129562
2.62550449455
2.60462829831
2.56476001976
2.50425524918
2.42238365272
2.31886389957
2.19381188563
2.04929292988
1.89051129006
1.72402060461
1.55477063221
1.38602040396
1.21844656202
1.05015521659
0.888581086079
0.752012362482
0.643454833203
0.529110642954
0.403605442458
0.33140387174
0.283837553052
0.053656027432
-0.161015084455
-0.216216134422
-0.255060182261
-0.410107961326
-0.560056851283
-0.665182549465
-0.750571135316
-0.820055044967
-0.879180385746
-0.930787073544
-0.976644976764
-1.01794292249
-1.05554054064
-1.08999492725
-1.12156956225
-1.15033665448
-1.17634328693
-1.199757658
-1.22088485486
-1.2400895764
-1.25770501199
-1.27399041422
-1.2892113215
-1.3035879183
-1.31726860007
-1.33018373738
-1.34201899135
-1.35235477461
-1.36105143717
-1.36770514989
-1.37257379056
-1.37611234434
-1.37893595802
-1.38152018949
-1.3840336603
-1.38638486974
-1.38839985111
-1.38991050408
-1.39077312805
-1.39085859581
-1.38999230248
-1.38795644643
-1.38449284605
-1.37937574451
-1.37238497706
-1.36332976928
-1.35199466255
-1.33823316905
-1.32190017871
-1.30292288949
-1.28120046549
-1.25674322654
-1.22957621774
-1.19986073078
-1.16775312768
-1.13357912095
-1.09757465076
-1.05996307358
-1.02084444634
-0.979929927751
-0.936744939128
-0.891187364802
-0.843088279652
-0.792636210798
-0.742380895016
-0.694228167672
-0.657984001605
-0.633270783844
-0.616499707793
-0.601732452515
-0.574143899211
-0.506416734914
-0.415417586664
-0.0139200103626
0.0089971433356
0.0391318714159
0.0617904920518
0.0824763152556
0.0996818805168
0.11546536604
0.134744568494
0.160874219386
0.194116158632
0.232917439505
0.275351398619
0.319820676844
0.365281303837
0.411081291752
0.456876936282
0.502471529171
0.547752095662
0.592663310669
0.637171506617
0.681293673402
0.725013028157
0.768414607395
0.81155067531
0.854550790887
0.897529892878
0.940693489976
0.9842127379
1.02832879059
1.07324879015
1.11922120688
1.16641849812
1.21503105858
1.26519246429
1.31698471953
1.37043298011
1.42553865174
1.48223744308
1.54041114483
1.59992667048
1.66058177479
1.72216583168
1.78440389253
1.84702192977
1.90970508883
1.97214018522
2.03400828913
2.09502410462
2.1549265522
2.21346039373
2.27048360676
2.32586773793
2.37954786263
2.43150285431
2.48178742853
2.53045000245
2.57760659829
2.62336360411
2.66785872928
2.71120172986
2.75364520866
2.79540871331
2.83758183955
2.87785090635
2.91410687069
2.94488988496
2.96970984388
2.98805475731
2.99949907624
3.00385180235
3.00117113576
2.99178216185
2.97623141588
2.95523795156
2.92958601797
2.90010291352
2.86755863042
2.83262216179
2.79579666211
2.7573569002
2.71729742278
2.67531478223
2.63077931552
2.58275966959
2.53004472922
2.47120572289
2.40473209462
2.32878765295
2.24160219733
2.1418955719
2.02870732484
1.90140169915
1.76041077276
1.60712123173
1.44298258031
1.26791396246
1.08345467309
0.89624664936
0.71952648265
0.569551271425
0.443636183959
0.323122472328
0.206296879873
0.166090843219
0.158873037937
0.0578610918785
-0.0982181809008
-0.181629113748
-0.233574334038
-0.369790694396
-0.566333480153
-0.727947473497
-0.847568194633
-0.946169475031
-1.030088452
-1.10462035159
-1.17215817488
-1.23388302947
-1.29042929801
-1.34222038874
-1.38947407983
-1.43222988022
-1.47040043073
-1.50394228443
-1.53292064329
-1.55751553582
-1.57796809531
-1.59456565364
-1.60764024574
-1.61744862024
-1.62427178328
-1.62827951352
-1.62957536322
-1.6282789345
-1.62448137093
-1.61837646697
-1.61049691104
-1.60119195997
-1.59098161057
-1.58050348131
-1.57020585863
-1.56020913886
-1.55038256174
-1.54052532024
-1.53045608018
-1.52004912394
-1.50921419504
-1.49787501079
-1.48596243657
-1.47342084666
-1.46020104982
-1.4462577098
-1.4315494691
-1.41601124125
-1.39955726374
-1.38207519256
-1.36347316292
-1.34362599448
-1.3224449143
-1.29982451322
-1.2757390087
-1.25016917405
-1.22329288029
-1.19532827619
-1.16651204857
-1.13699555996
-1.10660196726
-1.07482706752
-1.0413409302
-1.00487684278
-0.964898912375
-0.923403607343
-0.881287675269
-0.847153549213
-0.823236025979
-0.81159590553
-0.830027007987
-0.860034213325
-0.867827049445
-0.87641386046
-0.0702287362877
0.0516606456492
0.115984582048
0.128902748612
0.138048384504
0.145838376942
0.154315114857
0.168247000969
0.19017006091
0.219446192091
0.254097189507
0.292188746936
0.332322007891
0.373659107563
0.415741489805
0.458356228392
0.501421231284
0.544907590454
0.588835897745
0.633185644364
0.67798468843
0.723226681562
0.768933084165
0.815098164328
0.861778380805
0.909002906471
0.956845892712
1.0053855464
1.0547356864
1.10499956653
1.15629013729
1.20871195567
1.26234583257
1.31721388294
1.37333719755
1.43066532937
1.48909803629
1.54849062013
1.60865589583
1.66934346089
1.7302546531
1.79104266059
1.85130978603
1.91062054349
1.96850829061
2.02449092644
2.07809811523
2.12885447731
2.17634968023
2.22022849659
2.26018330151
2.29597955268
2.32748657762
2.35460184087
2.37728943109
2.39553351129
2.40935501822
2.41876153494
2.42374801281
2.42436888168
2.42067734214
2.41219897857
2.4002643344
2.38824511903
2.37777710269
2.37007291228
2.36581887303
2.36533433521
2.36860765185
2.37528508135
2.38469990424
2.39596265149
2.40803050459
2.41985934532
2.43048733328
2.43910552873
2.44508101898
2.44794745523
2.44729478784
2.44267719903
2.43347089269
2.41878713446
2.39746049884
2.36805912131
2.32891570179
2.27838114332
2.21480297059
2.13718442534
2.04516379104
1.93964780303
1.82186793287
1.69211000487
1.54957896765
1.39284243568
1.2211045945
1.03557367026
0.844742289902
0.662068024294
0.493014157558
0.338380274673
0.17871843781
0.0449962374334
-0.0277681147132
-0.0319446366349
-0.0755960771555
-0.175243563332
-0.247512532956
-0.306166950857
-0.407854097389
-0.575571702786
-0.756862622413
-0.902542908315
-1.01359637487
-1.10267812122
-1.17496693812
-1.23502744857
-1.28572451026
-1.3290807849
-1.36664685252
-1.39964501942
-1.42895056901
-1.45510193269
-1.47839628105
-1.49906405182
-1.51736617802
-1.53360601523
-1.5480892679
-1.56108833636
-1.57279099792
-1.58335214415
-1.59278007908
-1.60103951798
-1.60809360836
-1.61379511114
-1.61798696818
-1.62067066076
-1.62145737867
-1.62056151559
-1.61845589456
-1.6156989602
-1.61269947839
-1.60954300611
-1.60614588506
-1.60238987866
-1.59819544207
-1.59349528533
-1.58821684339
-1.58227452868
-1.57557552324
-1.56802099431
-1.55950323715
-1.54990135251
-1.53909822471
-1.52696602653
-1.51336136974
-1.498136844
-1.48119638186
-1.46248186255
-1.44198531144
-1.41971978839
-1.39581873072
-1.37046525485
-1.34400259113
-1.3168256268
-1.28932661678
-1.2618645951
-1.23451630647
-1.20701055846
-1.17911509009
-1.14925070128
-1.11635221997
-1.08182457033
-1.04523078086
-1.01435774018
-0.990683253796
-0.977971216908
-1.00565051686
-1.06363589052
-1.11744494841
-1.20087341292
-0.120809003183
0.24359594195
0.276618219848
0.216713060595
0.189319401191
0.180434616628
0.181850497139
0.191876198295
0.210205722472
0.235258151372
0.26516928939
0.298517890096
0.334349702024
0.372092696121
0.411396427307
0.452052995004
0.493939287497
0.536960639607
0.581063717675
0.626199460954
0.672347755478
0.719467854661
0.767568474268
0.816645889755
0.866713835953
0.91780124388
0.969957401313
1.0232381994
1.07770159184
1.13341399629
1.19042691344
1.24875875228
1.30840900455
1.36933627281
1.43144230867
1.49456819651
1.55853359781
1.62306983747
1.68787797092
1.75259667617
1.81683419821
1.88013983239
1.94204452736
2.00203797602
2.05962219919
2.11428966108
2.16558248926
2.21308948509
2.25648433324
2.29551473071
2.33005556132
2.36008223029
2.38565619006
2.40693283977
2.42411649884
2.43743679855
2.44714785638
2.45344196762
2.45677033416
2.45750958932
2.45623439577
2.45368113867
2.44874408172
2.44099723657
2.42899518453
2.41295075892
2.39318408874
2.37032009353
2.3452021348
2.31877970139
2.29196470683
2.26552312431
2.24000611286
2.21572775604
2.19277341
2.17109404225
2.15054547992
2.13093110073
2.11199108314
2.09338218139
2.07459405354
2.05479724413
2.03272154767
2.00653641034
1.97385844231
1.93185794779
1.87798940198
1.81011125361
1.7275434542
1.63126805162
1.5217086784
1.39843053481
1.26039622488
1.10782588049
0.945153705954
0.778728778469
0.613925315854
0.454690312488
0.281419976603
0.105455499969
-0.0633256057403
-0.158418160793
-0.198212562455
-0.24311723272
-0.304957912705
-0.373348378198
-0.43525943504
-0.5232816842
-0.651319073638
-0.807955453161
-0.959023973496
-1.08430367792
-1.18556830059
-1.26984226768
-1.34105419001
-1.40283055313
-1.45770953743
-1.50741477148
-1.55309246531
-1.59539447982
-1.63457199344
-1.67052039981
-1.70299437936
-1.73175177845
-1.75665313134
-1.77764742513
-1.79478752146
-1.80819789504
-1.81810465794
-1.8247551041
-1.82849381654
-1.82970910909
-1.82869581528
-1.8255975461
-1.82053752536
-1.81351152704
-1.80483675875
-1.79486886339
-1.78416102629
-1.77330283425
-1.76266830304
-1.75233313703
-1.74222387605
-1.73223646488
-1.72227858818
-1.71223981284
-1.70198776974
-1.69137635794
-1.68026833991
-1.66853912877
-1.65608140126
-1.64279970802
-1.62862079948
-1.61349117054
-1.59736526495
-1.58017735566
-1.56186062979
-1.54238935052
-1.52178697399
-1.50011882026
-1.47750423437
-1.45409778228
-1.4301725129
-1.40609189348
-1.38218134418
-1.3587862703
-1.33593946906
-1.3134909779
-1.29140002558
-1.26849317042
-1.24376176207
-1.2184331169
-1.19115647856
-1.16930981478
-1.15219196135
-1.14137388559
-1.16407088643
-1.22095617078
-1.28143896292
-1.39189648757
-0.0986289920546
0.602204589349
0.465751398244
0.291466286531
0.236658364075
0.221568603531
0.22203866456
0.228552589702
0.240968915578
0.258481314073
0.280206942192
0.305515257807
0.333882796945
0.36494663633
0.398396469911
0.433993696693
0.471530087548
0.510839687341
0.551785066115
0.594244240132
0.638130102494
0.68337847765
0.729930393459
0.777746894506
0.826807183269
0.877101409933
0.92861994087
0.981376155779
1.03537364678
1.09061742198
1.14708993742
1.20476388296
1.26357097591
1.3233877517
1.38407381331
1.44541102799
1.50714228147
1.56894309198
1.63046285964
1.69127083069
1.7509182036
1.8088903028
1.86466425147
1.91767368338
1.96737606734
2.01323388317
2.05477978186
2.09159424294
2.12338220656
2.14996319521
2.17125281202
2.18729495197
2.19825113145
2.2043790216
2.20593749633
2.20319178901
2.19636210803
2.18564557346
2.17138557328
2.1540102546
2.13356266206
2.11104126152
2.08987408367
2.06839444839
2.04718305204
2.02627373813
2.00545771241
1.98446451073
1.96303651186
1.94099286986
1.9182729439
1.89494720444
1.8712020125
1.84732813658
1.82368739902
1.80066480684
1.77863535616
1.7578987771
1.73855744121
1.72042900338
1.70290362805
1.68484946252
1.66456763011
1.63987970756
1.60825908115
1.5672009594
1.51439008835
1.44807600654
1.36727361932
1.27142298327
1.16142897959
1.03876745995
0.905858849934
0.766639930857
0.629114567716
0.491038975327
0.33739044481
0.173465105524
-0.0155400288485
-0.176931828231
-0.284901568648
-0.353346818493
-0.402269601471
-0.449254604101
-0.503018342768
-0.573804593087
-0.65882807336
-0.767212659588
-0.893173265702
-1.02480833748
-1.14691525902
-1.25216485972
-1.34118213339
-1.41706009932
-1.48183551177
-1.53754850174
-1.58578016313
-1.62774604596
-1.66438676443
-1.69640026377
-1.72425349634
-1.74824194407
-1.7686097111
-1.78563687681
-1.79966007827
-1.81105812176
-1.82022700107
-1.82756459165
-1.83343086765
-1.8381305522
-1.84185582455
-1.84462095878
-1.84626590261
-1.84660323955
-1.8455956709
-1.84303505469
-1.83891325769
-1.83364029314
-1.82773149009
-1.82168662203
-1.81574225701
-1.80988803885
-1.80398241075
-1.79788605991
-1.79148624128
-1.78468306378
-1.77737396005
-1.76945715951
-1.76084089532
-1.75144252805
-1.74118767104
-1.73000530026
-1.71782788467
-1.70458639661
-1.69022686974
-1.6746857131
-1.65790362751
-1.63983887777
-1.62050391477
-1.59996675885
-1.57836591125
-1.55587495302
-1.53276006198
-1.5093471119
-1.48590314977
-1.46276784853
-1.43994497993
-1.417398416
-1.39534900189
-1.3733690231
-1.35091161305
-1.32929229926
-1.30657041805
-1.29026351393
-1.27752811029
-1.26700514976
-1.27645950543
-1.31427604096
-1.35773342283
-1.46396256704
0.0327304714991
1.06205945636
0.621043851573
0.352611657968
0.297488746921
0.280053114063
0.275953630311
0.272228188316
0.274224039596
0.281625125206
0.294027038227
0.310955841959
0.331768298114
0.356005492383
0.383202274589
0.413007184148
0.445099258996
0.47923797801
0.515206680083
0.55286336346
0.592075499806
0.632752452233
0.674812075143
0.718201482438
0.762849067141
0.808716770549
0.855748758316
0.903901946241
0.953112329745
1.00331947308
1.05444012347
1.10636157243
1.15895614003
1.21205368109
1.26545297497
1.31889637521
1.37211703195
1.42477150517
1.47650695199
1.526909263
1.57555993148
1.62198883162
1.66573610254
1.70631625196
1.7432882809
1.7762404655
1.80484941901
1.82887244563
1.84819218194
1.86279776812
1.87277474794
1.87832383334
1.87980401247
1.87764950345
1.87226978273
1.86399640415
1.85286511771
1.83932686705
1.82349181627
1.80582168108
1.78667020407
1.76638809904
1.74415609976
1.71913389761
1.6919311961
1.66266842672
1.63168076486
1.59941772755
1.56635546895
1.53292469459
1.49948856187
1.46636201453
1.43387531124
1.40247248396
1.37271329894
1.34527995117
1.32089675256
1.30026771975
1.28386917913
1.27175092748
1.26318614288
1.25640998732
1.2485631569
1.23585721103
1.21416168599
1.17980427105
1.13013679541
1.06356547295
0.979269259987
0.877721703544
0.761908843475
0.639071675164
0.514260465586
0.384870540748
0.252321671681
0.108398962075
-0.062376110312
-0.222562545069
-0.362245376697
-0.465387520021
-0.530410078724
-0.572552738083
-0.603778859421
-0.643944959637
-0.70874686949
-0.797777744624
-0.898691663495
-1.00813564539
-1.11972144304
-1.2281635475
-1.32828787623
-1.41744253135
-1.49541882913
-1.56332163069
-1.62214869688
-1.67318134105
-1.7176596689
-1.75676292676
-1.79148522713
-1.82260640503
-1.85060070492
-1.87572718666
-1.89810036401
-1.91779467059
-1.93486018746
-1.94935420213
-1.96133497101
-1.97089790102
-1.9781451766
-1.98320968024
-1.9862093736
-1.98721804059
-1.98628639424
-1.98358868097
-1.97914198653
-1.97316057115
-1.96586455771
-1.95762569433
-1.94891284244
-1.94014077206
-1.93151072903
-1.92302353985
-1.91457169725
-1.90604180906
-1.89733732712
-1.88837419253
-1.87906436251
-1.86931990095
-1.85905663016
-1.848200778
-1.83669063666
-1.82447851271
-1.81152187854
-1.79776955236
-1.78317011305
-1.76766800175
-1.75122787093
-1.73383004493
-1.71549393075
-1.6962744489
-1.67630148493
-1.65572698819
-1.63476852704
-1.61365837107
-1.59257401313
-1.57179676355
-1.55126997787
-1.53095457419
-1.5112069081