/*--------------------------------*- C++ -*----------------------------------*\
| =========                 |                                                 |
| \\      /  F ield         | OpenFOAM: The Open Source CFD Toolbox           |
|  \\    /   O peration     | Version:  v1806                                 |
|   \\  /    A nd           | Web:      www.OpenFOAM.com                      |
|    \\/     M anipulation  |                                                 |
\*---------------------------------------------------------------------------*/
FoamFile
{
    version     2.0;
    format      ascii;
    class       volScalarField;
    location    "25";
    object      alpha;
}
// * * * * * * * * * * * * * * * * * * * * * * * * * * * * * * * * * * * * * //

dimensions      [0 0 -1 0 0 0 0];


internalField   nonuniform List<scalar> 
12225
(
0.391692795712
0.328760350259
0.349014089496
0.348739023968
0.360466968751
0.364655395862
0.370488784945
0.374416248093
0.376470351985
0.37548737214
0.370035876316
0.361491250558
0.354620200267
0.343054551837
0.320134283419
0.290042493303
0.250946468919
0.218296375095
0.221997466969
0.281132022538
0.312506195039
0.307974170168
0.31677785965
0.319037255884
0.322606013686
0.324774977011
0.32590121291
0.325322499906
0.321727465545
0.315369764249
0.308757317426
0.299041961312
0.281771331992
0.259257102879
0.234382614078
0.231786890036
0.372110386783
0.298773024054
0.317267362725
0.315350460474
0.324884805168
0.328086278225
0.332452766153
0.335336616999
0.337274442533
0.337772141583
0.33616422391
0.332338630194
0.326801015948
0.317978213595
0.303496181889
0.285154271495
0.268045081671
0.272596002783
0.304954270878
0.287332055837
0.312914846616
0.307272458168
0.315778541488
0.317418479311
0.320460234717
0.322239044689
0.323386603174
0.323503272263
0.322283578483
0.319578922067
0.315267197106
0.30842262869
0.298098854669
0.28623943198
0.278444456743
0.287646887046
0.339966871552
0.287494684859
0.311805004117
0.304958365209
0.312681461898
0.313397023067
0.315573916828
0.316459358998
0.316693995477
0.315967045841
0.31416073768
0.311199924015
0.306874328346
0.300741117745
0.292813149764
0.285284639326
0.283082369966
0.293196582384
0.325772129717
0.283860129829
0.308546000926
0.300441222816
0.307588791836
0.307604032717
0.309246899971
0.309648155151
0.309464612825
0.308443703273
0.306546368673
0.303742670765
0.299881744222
0.294847860091
0.289177865366
0.285035723124
0.286097002681
0.295682078654
0.329707820363
0.282531796363
0.30609716132
0.297141848305
0.303625096633
0.302998443342
0.30413083714
0.304095187791
0.303567312085
0.302344363273
0.300436599687
0.297855568827
0.294570898313
0.290694176894
0.287000126799
0.285365364907
0.288245391536
0.29700221039
0.327334962644
0.281075265202
0.303953243758
0.294269143285
0.300207003528
0.299064739937
0.299815491322
0.299476221849
0.298766132752
0.297500149919
0.295710780157
0.293449876534
0.290803812211
0.288032183379
0.285973595634
0.286103490093
0.28994708932
0.297858450794
0.326422663056
0.280344873335
0.30220751878
0.292032152006
0.297446818504
0.295865916894
0.296299567364
0.295750864675
0.294971244845
0.293768830877
0.29218560534
0.29031980254
0.288344309208
0.286596325436
0.285845663158
0.287197090525
0.2915037359
0.29869466205
0.325540830633
0.280024632902
0.301011057378
0.290475363896
0.295453356521
0.293512823923
0.293715167768
0.29304713222
0.292267243465
0.2911760459
0.289847973774
0.288426950184
0.287134602007
0.286310775483
0.286594299839
0.288762357671
0.293243996502
0.29976397102
0.32557934704
0.279956263293
0.300639148058
0.289779013568
0.294506048093
0.292362077359
0.292487808192
0.291799973515
0.291077257752
0.290147236916
0.28911877626
0.28813986288
0.287435091416
0.287305012657
0.28825329253
0.290800134079
0.295114544583
0.30089394654
0.329469163614
0.280076378403
0.302073665571
0.29065787931
0.295443935717
0.293209271417
0.293321556783
0.292639599138
0.292015466516
0.291247921284
0.290389266374
0.289607742825
0.289139246824
0.289271410735
0.290390345855
0.29285179703
0.296725341346
0.301715015742
0.332669853821
0.280738551412
0.303521876597
0.291713269907
0.296328589633
0.293931012878
0.293949105204
0.293197025801
0.292491066781
0.291651093253
0.290786634027
0.290070856922
0.289773184209
0.290102766086
0.291375640902
0.293803510875
0.297357974659
0.301777957421
0.336574208745
0.28156563916
0.305178064038
0.292852975362
0.297263588501
0.294525697897
0.294250014438
0.29328852062
0.292480477363
0.291642783468
0.290891390613
0.290413983664
0.290445028335
0.291130143611
0.292636635398
0.295091113128
0.298355098111
0.302281603623
0.341674959481
0.2824723011
0.307264396405
0.294238669399
0.298440251716
0.295299886684
0.294690625786
0.293480873605
0.292553237634
0.291758270416
0.291178207565
0.291009601672
0.291426235453
0.292451460739
0.294167326262
0.296600060064
0.299596772662
0.303018076457
0.347056881081
0.283442323628
0.309654046766
0.295934051936
0.300031419505
0.296545847917
0.295690878045
0.294300664593
0.293325902239
0.292583719326
0.29219854074
0.29228265835
0.292992779401
0.29422795699
0.296030842527
0.298351861173
0.301057981392
0.304052379501
0.351946749543
0.284331219278
0.31208829365
0.297803157087
0.301943895316
0.298254673629
0.297301438849
0.295860151253
0.294917002424
0.294293549562
0.294057228801
0.294330630306
0.295194359549
0.29651951291
0.298278681646
0.300442230006
0.302844507618
0.305488456094
0.356588172026
0.285017583859
0.314420471776
0.299674213959
0.303999480318
0.300249201748
0.299340545681
0.297943682844
0.297092563532
0.296587355185
0.296476992126
0.29686547375
0.297799254094
0.299117675465
0.300781335122
0.302764799841
0.304907637588
0.307243884571
0.359120459256
0.285105273271
0.31567097329
0.300747200892
0.305366194472
0.301760912582
0.301077640167
0.299884395544
0.299246441208
0.298943118094
0.299008183014
0.299523725878
0.300522316787
0.301828605237
0.303409612954
0.305251522057
0.307205113708
0.309313077464
0.353966394914
0.284516443519
0.314124949117
0.300040032933
0.305124617037
0.302175324635
0.302116740316
0.301561727981
0.301498273746
0.301705609349
0.30218767533
0.303009913043
0.30420881252
0.30562234485
0.307222187753
0.309004267571
0.310834332468
0.312745983361
0.349273739403
0.283366219502
0.312287220743
0.298820534379
0.304268084116
0.301840991571
0.302276695846
0.302184377973
0.302561490635
0.303132112244
0.303908012495
0.304931023179
0.306270318763
0.307740549238
0.309351592702
0.31108045065
0.31283539146
0.314622871856
0.347623618576
0.282581245804
0.310445405442
0.297496720189
0.303211316851
0.301244140479
0.302080768265
0.302390981906
0.303110662286
0.303970474628
0.304980746826
0.306161777077
0.307595713915
0.309119449459
0.31073075637
0.312430571097
0.314121203492
0.315848106672
0.33952696714
0.280816590913
0.308728719709
0.296279528491
0.302284757732
0.300749590717
0.301968695868
0.302640197284
0.303674794091
0.304811314076
0.306018541105
0.307358689649
0.308895589384
0.310487275824
0.312109108373
0.313809636755
0.315469472268
0.317132512594
0.346424646578
0.280406328483
0.306561779778
0.294640670405
0.300911619352
0.299825347654
0.301416312763
0.302456812185
0.303796836397
0.305182523625
0.306603062607
0.308098268651
0.309752217412
0.311418143506
0.313113458048
0.314849220185
0.316539838522
0.318197439089
0.319734721057
0.278162750668
0.304988197456
0.293892598668
0.300364849849
0.299699318014
0.301616339175
0.30293323542
0.304510906828
0.306093407278
0.307667879115
0.309254006069
0.310968322487
0.312669526759
0.314366558959
0.316114873246
0.317835553654
0.319512616676
0.362129619141
0.277993058068
0.302027553912
0.291245288322
0.297988084101
0.297695611001
0.299875120026
0.301475822755
0.303303050724
0.305128562138
0.306909574307
0.30867258953
0.310525520101
0.312363389958
0.314188292114
0.316035552044
0.317830490968
0.319440401243
0.269107451321
0.275101892272
0.299545339833
0.290944220121
0.297547956984
0.29784765252
0.300337298104
0.302254255197
0.304363878748
0.306469581618
0.308544758011
0.310460153285
0.312390200647
0.314297001844
0.316131842542
0.31798668163
0.319858620746
0.32189947054
0.412551948423
0.279131571686
0.291995553966
0.284972367967
0.291571401515
0.291998038776
0.294400720162
0.296153473591
0.298040596563
0.299915651491
0.301648627637
0.30326506062
0.304951585007
0.306626757408
0.308282669107
0.310065289012
0.311947583831
0.313467392675
0.152053744889
0.260703265111
0.284699635219
0.278657373059
0.284793943347
0.28586363375
0.288799705809
0.291446842485
0.294458034307
0.297713640762
0.301103543578
0.304280770753
0.307500389591
0.310853721736
0.314258433023
0.317728969329
0.321313065511
0.324787495196
0.329275330863
0.296683015392
0.301424296393
0.299784789311
0.307310157764
0.308283188169
0.310851675661
0.312838321013
0.314856356278
0.316629051259
0.318059595461
0.319395194343
0.32079153611
0.321868572832
0.322630397063
0.323269348618
0.323594137143
0.324337939028
0.476040509677
0.476400412311
0.476586517227
0.476568371273
0.476354518696
0.475979254488
0.475545309677
0.475086140809
0.474628341526
0.474190379714
0.4737842209
0.473416810169
0.473091445311
0.472808990216
0.472568585164
0.472368212061
0.472205265758
0.472076428871
0.471978640638
0.471908978921
0.471864225952
0.471842260718
0.471839905753
0.471856557354
0.471890437704
0.471942090391
0.472010014968
0.472094615829
0.472195402158
0.472313308814
0.472448212381
0.472600743674
0.472770630296
0.472958753189
0.473164996035
0.47338929584
0.473630573391
0.473889610701
0.474165261549
0.47445749027
0.474764925512
0.475086824591
0.475421484574
0.475767257712
0.476121999079
0.47648316585
0.476848142692
0.477213796021
0.477576855073
0.477934355206
0.478283431229
0.478622689856
0.478948993068
0.479258111234
0.47954467976
0.479803568143
0.480029383452
0.480216731888
0.480360096553
0.4804542187
0.480495030446
0.480481316288
0.480412128949
0.480284484423
0.480097431541
0.479854077951
0.47955648882
0.479206775969
0.478808244714
0.478363669888
0.477877307511
0.477353010543
0.476795528911
0.476209079963
0.475598311573
0.474967188593
0.474319658601
0.473660256209
0.472992761095
0.472319793613
0.471643385702
0.470966817725
0.470292130249
0.469622014221
0.46895569414
0.468295826584
0.467642502978
0.466989455928
0.466340420496
0.465691843821
0.465042969666
0.464393623007
0.463741647971
0.46311339625
0.462523393033
0.461933816378
0.461313036753
0.460675798597
0.460023985143
0.459363568748
0.458589192727
0.457722032747
0.457581213583
0.457535114173
0.457319337105
0.456880154481
0.45625094199
0.45590659996
0.455503787669
0.455140832066
0.454843913652
0.454587978039
0.454367851676
0.454161913693
0.453977288008
0.453805510766
0.453644523029
0.45348997218
0.453341281028
0.453199736171
0.453068304918
0.45294835054
0.452838612366
0.45273795615
0.452643613926
0.45255436268
0.45246945849
0.452388416754
0.452310885008
0.452236473361
0.452164822392
0.452095724943
0.452029004373
0.451964643193
0.451902579744
0.451842898852
0.451785614789
0.451730391374
0.451677693451
0.451627655577
0.451581996542
0.451539302248
0.451500381376
0.451466749911
0.451440108146
0.451422269367
0.451414348392
0.451417152966
0.451431389223
0.451457605385
0.451496892592
0.451550775207
0.451620972968
0.451709116627
0.451816974531
0.451946360092
0.452099320163
0.452278091213
0.452485629321
0.452725521266
0.4530031008
0.45332404732
0.453696380807
0.454131344813
0.454644302366
0.455252123703
0.45597566243
0.456831463853
0.457832762295
0.45900230694
0.460353053608
0.461881677154
0.463570758974
0.465378435584
0.467244772252
0.469225804318
0.471271128576
0.473303212009
0.475212885726
0.476699204863
0.476142475504
0.476375654389
0.476274427034
0.475987883081
0.475639918125
0.475283892409
0.474941245828
0.474622254689
0.47433142208
0.474070905034
0.473841007445
0.473642311562
0.473473906648
0.473335391237
0.473225377406
0.473142760064
0.473085717851
0.473052467872
0.473040557584
0.473048518005
0.473073835411
0.473115101873
0.473170004678
0.473238362755
0.473318804771
0.473412187684
0.473517673052
0.473636105599
0.473767704905
0.473913786893
0.474074530182
0.474250921562
0.474443549962
0.474653603071
0.4748807495
0.475125703402
0.475388160008
0.475668408376
0.475965940049
0.476280899793
0.476612311634
0.476959420314
0.477320741639
0.47769454227
0.47807856477
0.478470046663
0.478865609679
0.479261634488
0.479653474692
0.480035944412
0.480401442108
0.480744914561
0.481063455649
0.481354083829
0.481612895548
0.481836012484
0.482019619778
0.482157997903
0.482245204065
0.482279134916
0.48225832531
0.482180519628
0.482046107143
0.48185908659
0.481618428538
0.481321523043
0.480968196442
0.480558803869
0.480094295045
0.479575702872
0.479004955229
0.478384177369
0.477716695083
0.477006071202
0.476256411877
0.475472374977
0.474659073676
0.473821836843
0.472966182046
0.472096138753
0.471214809378
0.470326030299
0.469433967816
0.468540474019
0.467643878065
0.466749437748
0.465863830825
0.464977464872
0.464069533582
0.46315839101
0.46227461578
0.461384969443
0.460449825977
0.45949965587
0.458619548108
0.457814774442
0.456977234074
0.456288915026
0.455606992632
0.454893152865
0.454207197138
0.453390962501
0.452786553126
0.452135037745
0.451534332339
0.450955659233
0.450611430249
0.450346957087
0.450111182059
0.449866997041
0.449619404754
0.449363092064
0.44910091168
0.44883637769
0.448577900363
0.448321059007
0.44806614205
0.447811182096
0.447555938942
0.447303357746
0.447057098253
0.44681902166
0.446589210132
0.446366036962
0.446147623955
0.445933021142
0.445721511944
0.445512651603
0.445305942818
0.445101194746
0.444898314954
0.444697272246
0.444497922961
0.444300136308
0.444103511723
0.443907673889
0.443711995069
0.443515695365
0.443318050269
0.443119319432
0.442919662637
0.44271779993
0.442513323136
0.44230652768
0.442098294175
0.441889057503
0.441678424965
0.44146541168
0.441248797536
0.4410275692
0.440800614823
0.440566726257
0.440324689135
0.440073811677
0.439814227255
0.439546760399
0.439273392743
0.438996725353
0.438720335373
0.438447501225
0.438183211925
0.437933006058
0.437702276001
0.437495060781
0.437315046734
0.43716520276
0.437042001555
0.436953187389
0.436897977889
0.436874740862
0.436885098882
0.436936031098
0.437037051374
0.437190349137
0.437464944808
0.437769985791
0.438129928857
0.438536079962
0.438945153513
0.439374957185
0.475773677141
0.475848889714
0.475814210677
0.475699186772
0.475577627875
0.475477670424
0.475390130532
0.475308538312
0.475229163527
0.475151871077
0.475077211368
0.475006784323
0.474942232876
0.474885458222
0.474837866175
0.474800685602
0.474774424612
0.474759424107
0.474755293493
0.474761594918
0.47477743316
0.474802802713
0.474836177614
0.474877939843
0.474927730606
0.474986312167
0.475053524671
0.475130648273
0.47521814711
0.475317392091
0.475428979495
0.475554375693
0.475693964937
0.475848790173
0.476019195395
0.47620571029
0.476407883073
0.476626290831
0.476860371735
0.477109855328
0.477373821883
0.47765125976
0.477940592965
0.478239930346
0.47854690595
0.478858788285
0.479172275734
0.479483765909
0.479789206575
0.480084248859
0.480362714916
0.480618187036
0.480843748304
0.481034874167
0.481188048828
0.48130044823
0.481369726939
0.481395950605
0.48137999911
0.481320356866
0.481214348748
0.481059812915
0.480851361897
0.480585251126
0.480263240398
0.479884585435
0.479448160025
0.478953881331
0.4784033511
0.477799074551
0.477144857352
0.476445203876
0.475705257053
0.474930431115
0.474126214138
0.473298071138
0.472451240517
0.471590920939
0.470721988134
0.469849123451
0.468974427005
0.46810080189
0.467232633658
0.466372674343
0.465517088854
0.464664223672
0.463828212553
0.463011844872
0.462191188565
0.461356357563
0.460540891969
0.459772278908
0.458975255455
0.458173649769
0.457403080813
0.456662285919
0.455977996317
0.455448190518
0.454844935505
0.454054272141
0.453195002443
0.452580265671
0.452251426806
0.451909335474
0.451719159635
0.451480641573
0.451087523432
0.450523134957
0.449984241513
0.449514993412
0.449080328591
0.448677360648
0.448304909457
0.447960099294
0.447638592238
0.447332502197
0.447038565803
0.446753392339
0.446475761944
0.446207468862
0.445950523007
0.445705393105
0.445470702648
0.445244251192
0.445024930986
0.444812004537
0.444604973794
0.444403439043
0.444207053909
0.444015320564
0.443827542028
0.443643010323
0.443461256794
0.443281982749
0.443104934651
0.442929794394
0.442756005627
0.44258319156
0.442411197432
0.442241128542
0.442073034972
0.441905902272
0.441738536788
0.441571278235
0.44140563589
0.441242775198
0.441083205077
0.440926924139
0.440774052949
0.440624751816
0.44047920842
0.440337404593
0.440199461488
0.440065351509
0.439934821088
0.439807351588
0.439682215878
0.439558258126
0.439434285641
0.439308596476
0.439179483804
0.43904523644
0.438904115787
0.438754228418
0.438594184255
0.438422351944
0.438236112584
0.438035072785
0.437822472503
0.437601366402
0.437376854496
0.437158916154
0.436959728497
0.436803365275
0.436716100335
0.436714936904
0.436818676777
0.437034218215
0.437316499429
0.437513554054
0.475305273595
0.475424167439
0.475685639207
0.475826316673
0.475903061154
0.475962703581
0.475999396912
0.476013486672
0.476007187463
0.475983577705
0.475945820969
0.475897834104
0.47584289677
0.475784503879
0.475725396825
0.475668087745
0.475614310161
0.475565445627
0.475522017964
0.475485052588
0.475454211575
0.47542981629
0.475411721307
0.475400579279
0.475396030449
0.475399482174
0.475411275498
0.475432733472
0.475464664347
0.475508725524
0.475565818762
0.475637287627
0.475723998599
0.475827309122
0.475947159453
0.476084477515
0.476239195305
0.47641143796
0.476600606208
0.476806404598
0.477027617779
0.477262960255
0.477510481427
0.477767857542
0.478032279739
0.47830048754
0.47856865404
0.478832885229
0.47908866831
0.479331157154
0.479555688492
0.479758699444
0.479934488347
0.480078204894
0.480185380268
0.480252271463
0.48027545996
0.48025330361
0.480187218731
0.480079933894
0.479932121211
0.479742701296
0.479508981705
0.47922560857
0.478886074815
0.478486375407
0.478024433009
0.477499155739
0.476910812735
0.476261283571
0.475553979104
0.474793972793
0.473987777683
0.473142326315
0.472264993712
0.471364075301
0.470446947623
0.469519228774
0.46858805982
0.467660193346
0.466737879745
0.465820438974
0.464915903838
0.464033525073
0.463165021335
0.462302501752
0.461460008247
0.460670711845
0.459888515854
0.459103025755
0.458348247961
0.457640875249
0.456968716612
0.456310830593
0.455698350996
0.455081540852
0.454401010662
0.453664676901
0.452825757803
0.45202788922
0.451465819601
0.451212901502
0.451030190884
0.450809033373
0.450620250806
0.450300402386
0.449774349429
0.449107350875
0.448459715177
0.447876594307
0.447351473076
0.44688612539
0.446473156331
0.44610252406
0.44576424527
0.445449219717
0.445152432181
0.444869737613
0.444599880604
0.444343714525
0.444102178184
0.443874245811
0.443656953777
0.443448060393
0.443246414502
0.443051323566
0.44286213528
0.442678197609
0.442498816826
0.442323332452
0.442150852402
0.441980799919
0.441812962664
0.441647022453
0.441482585412
0.441318957365
0.441155567481
0.440992264729
0.440829804651
0.440669456148
0.440511479502
0.440354201192
0.440195736583
0.440036133211
0.439876556851
0.439717962015
0.439560639795
0.439404460627
0.439249210069
0.439094643877
0.438940593818
0.438786882821
0.438633656725
0.438481051813
0.438329194715
0.438178230353
0.438028443424
0.43788035124
0.437734604707
0.437591899808
0.437452624913
0.437317198722
0.437185944333
0.43705855989
0.436934295587
0.436811668846
0.43668724704
0.436558836084
0.436424664815
0.436281907613
0.436129099155
0.43596787905
0.435801766546
0.435638359319
0.435495966104
0.435380155321
0.435300735447
0.435259056584
0.435204628296
0.43500869535
0.474763620626
0.475427719015
0.476082739292
0.47632313009
0.47640855347
0.476464477647
0.476497950499
0.476512100638
0.476506583601
0.476482807977
0.476441879493
0.476386264328
0.476318608615
0.476242246385
0.476159894729
0.47607446433
0.475987877092
0.475902328353
0.475818918199
0.475738730919
0.475662267418
0.475590720985
0.475523758433
0.475462559922
0.475407594349
0.475359919764
0.475320151999
0.475289980078
0.475270341123
0.475262885716
0.475268637194
0.47528934708
0.475325660011
0.475378735301
0.47544911729
0.475537515661
0.47564357726
0.47576780775
0.475909555479
0.476068361235
0.476243032698
0.47643229358
0.476634164778
0.476846406796
0.477066211039
0.477290543481
0.477515733805
0.477737941056
0.477953071416
0.478156465782
0.478341950862
0.478505181329
0.478640839951
0.478743802544
0.478810045525
0.478836098751
0.478818164891
0.478753741702
0.478642400791
0.478482721441
0.478273584277
0.478014452741
0.477705171696
0.477346669062
0.476938042659
0.476476750462
0.475960433131
0.475387401299
0.474757712928
0.474072532913
0.473334645215
0.472548365317
0.471720520943
0.470856869462
0.469964050601
0.469050586452
0.468125130553
0.467191080251
0.466252151489
0.465321087994
0.46440412939
0.463491158708
0.462588431747
0.46171409279
0.460856439575
0.460001166192
0.459168392711
0.458377596382
0.457637048877
0.45691198595
0.456185364184
0.455509039232
0.45484432778
0.454207779685
0.45354576062
0.452773146319
0.451940985335
0.451127966622
0.450419366639
0.449950925393
0.44973778077
0.449653108471
0.449505715383
0.449287184475
0.449020283238
0.448619818864
0.448086558591
0.447491994836
0.446911656637
0.446369747591
0.445879764315
0.445447309044
0.445065814723
0.444725750787
0.444417629128
0.444133407407
0.443867638342
0.443616287281
0.443377898269
0.44315262855
0.442940383906
0.442738975554
0.442545201027
0.442357201078
0.442174361658
0.441996517414
0.44182350669
0.441655072955
0.441490837203
0.441330402553
0.441173487232
0.441019793628
0.440868873578
0.440720318311
0.440573565978
0.440427966793
0.440283188495
0.440139615215
0.439998812253
0.439862091192
0.439729597679
0.439598796255
0.439467379353
0.439334954702
0.439202283131
0.439070240739
0.438939138735
0.438808960721
0.438679521622
0.438550588377
0.438422025143
0.438293718026
0.438165525447
0.438037350199
0.437909118264
0.437780885269
0.437652667093
0.437524449811
0.437396341827
0.437268474539
0.437140682538
0.437012799735
0.436884550822
0.436755255946
0.436624238985
0.436490361311
0.436351277508
0.436205936883
0.436054130608
0.435894729219
0.435728598612
0.435558696872
0.435388088428
0.435222374788
0.435072105188
0.434938278741
0.43481559598
0.434688077129
0.434494842509
0.434122753145
0.474274456637
0.476111596398
0.476970904215
0.476966343526
0.476861815874
0.476813546184
0.476791716935
0.476776616166
0.476754453191
0.476718918352
0.476667013601
0.476599970601
0.476519173729
0.476427720651
0.476327839926
0.47622248626
0.47611352663
0.47600316128
0.47589247448
0.475783376685
0.475676169249
0.475571939196
0.475471346708
0.475375468833
0.475284510397
0.475200199788
0.475123328483
0.475055476746
0.474997774025
0.474952028908
0.474919399892
0.47490138002
0.47489895355
0.474913489007
0.474945059172
0.474994540286
0.475061842597
0.475146996177
0.475249224773
0.475368027637
0.475501902039
0.475649416171
0.47580834091
0.475976318072
0.476150422905
0.476327634869
0.476504318564
0.476677045779
0.476841836776
0.47699416607
0.477128137941
0.477239516782
0.477322560617
0.477372074147
0.477383414987
0.477352480145
0.477275521334
0.477153245005
0.476987234095
0.476778477634
0.47652706426
0.476232892543
0.475894036828
0.475508653316
0.475071774782
0.474579881099
0.474029415611
0.47341820226
0.472746615013
0.472017607557
0.471233677891
0.470400761224
0.469527867805
0.468623610335
0.467692082992
0.466743123719
0.465790448784
0.464839537306
0.463886594412
0.462940943432
0.46202702762
0.461109477971
0.460204735606
0.459325951727
0.458484232147
0.457683484749
0.456901137978
0.456143191389
0.455409251698
0.454681057263
0.454000188362
0.453322639546
0.452573081427
0.451810920043
0.451030002411
0.450263002229
0.449576618581
0.449014821219
0.448601953249
0.448371656513
0.448257447218
0.448135389679
0.447933998323
0.447674893697
0.447347952544
0.446921945276
0.446427058715
0.445909100561
0.44540083078
0.444918625923
0.444477484823
0.444082002035
0.443727981916
0.443408708145
0.443117151618
0.442847193299
0.442594196763
0.442355221105
0.442129344698
0.441917005123
0.441717877197
0.441529545115
0.44134939622
0.441176017591
0.441009049196
0.440848438192
0.440694068951
0.440545625958
0.440402610712
0.440264392768
0.440130245192
0.439999237864
0.439870617755
0.439743743184
0.439617890773
0.439492322103
0.439366820867
0.439242416227
0.439120989317
0.439004284608
0.438892018661
0.438781551
0.438670597648
0.438558510039
0.43844588245
0.438333382582
0.438221343064
0.438109800399
0.437998653939
0.437887940661
0.437777610648
0.437667620005
0.437557903453
0.437448309158
0.437338746689
0.43722910334
0.437119315461
0.437009281586
0.436898981921
0.436788344452
0.436677066034
0.436564836195
0.436451157401
0.436335154747
0.436215796881
0.436091727531
0.435960662144
0.435821408077
0.435673409685
0.435515419432
0.435348427147
0.43517521248
0.434998148679
0.434821162894
0.434652996418
0.434493367375
0.434333895871
0.434152304658
0.43388948597
0.433457560288
0.474023725673
0.477522319431
0.478089521889
0.477505866619
0.477160826748
0.477010335526
0.476934850831
0.476881092475
0.4768234603
0.476754164278
0.47666928508
0.476570037248
0.476457427804
0.476334478618
0.476202898411
0.476065569279
0.475923882512
0.475780262855
0.475635639832
0.475491415439
0.475348326087
0.475207890571
0.475070098953
0.474936424244
0.474807577775
0.474684746627
0.474568768431
0.474461417221
0.474363713634
0.474277370821
0.474203468542
0.474143722819
0.474098810606
0.474069820697
0.474057267671
0.474061708146
0.474082740722
0.474120609241
0.474174408438
0.474243407551
0.474326068937
0.474420913696
0.47452571883
0.474638282781
0.474755895815
0.474876084138
0.47499573502
0.475112048814
0.475222113135
0.47532247812
0.475406556824
0.475470805115
0.475508872578
0.475513545628
0.475478441273
0.475397699618
0.475268097672
0.475092924617
0.474873964978
0.474613167753
0.474311577982
0.47397192941
0.473594523028
0.473176839834
0.472711660608
0.472194989583
0.471621296925
0.470986276377
0.470290286054
0.469537419683
0.468730812619
0.467873330883
0.466977773897
0.466058248743
0.465117750988
0.464162199549
0.463206601969
0.462256823854
0.46130332335
0.460363249351
0.459445247495
0.458563248453
0.457720567316
0.456890917321
0.456083608217
0.455309106956
0.454568080593
0.453859515877
0.453146155606
0.452403844341
0.451675551006
0.450928041808
0.450172167338
0.449453198509
0.448775061556
0.448183448704
0.447705666919
0.447346584994
0.447086489587
0.44691197041
0.446755964293
0.446561330265
0.446316798315
0.446029557804
0.445680736525
0.445267498504
0.444820144994
0.44436542117
0.443920893272
0.443498783329
0.443109293263
0.442754958474
0.442433632933
0.44214137199
0.441873751306
0.441626459827
0.441396107798
0.441180547793
0.440979217395
0.440792176267
0.440618293529
0.440454912144
0.440299323031
0.440149976678
0.440006204618
0.439867712856
0.439734213204
0.439605327866
0.439480545391
0.439359267317
0.439240910551
0.439125008068
0.439011189909
0.43889895812
0.438787612725
0.438676475337
0.438565596678
0.438456394268
0.438350963749
0.438250983263
0.438155676317
0.438062457069
0.43796906019
0.437874851191
0.437780248396
0.437685702394
0.437591407138
0.43749727287
0.437403312797
0.437309478457
0.437215787042
0.437122191766
0.437028640101
0.43693508302
0.436841404185
0.436747453436
0.436653126438
0.436558309468
0.436462946494
0.43636686701
0.436269688962
0.436170984865
0.436070200514
0.435966303677
0.435858135753
0.435744307285
0.435622691656
0.435492067551
0.435351707737
0.435200289902
0.435038491228
0.434868631447
0.434692057594
0.434510762448
0.434331038982
0.434151128677
0.433961093701
0.433735518823
0.433420295137
0.432950430345
0.474140561603
0.4794485705
0.479094436601
0.477811065661
0.477329393564
0.477113102249
0.476982040778
0.47686843495
0.476750680641
0.476623665904
0.47648397582
0.47633389251
0.476173401588
0.476005374702
0.475830561985
0.475651571394
0.475469234655
0.47528562238
0.475101207746
0.474917878607
0.474735787234
0.474556250955
0.474379891625
0.474207761255
0.474040052986
0.473878431058
0.4737235025
0.473576692248
0.473438920519
0.473311781956
0.473196167386
0.473093331704
0.473004024218
0.472929289712
0.472869082035
0.472824021926
0.472793839738
0.472778338619
0.472776615432
0.472788003354
0.472810908274
0.472843964408
0.472885181443
0.472932740045
0.472984600602
0.473039081775
0.473094469464
0.473149363502
0.473202217833
0.473251289187
0.473291372178
0.473316425458
0.47331850231
0.473286097375
0.473207649215
0.473073009507
0.472881794621
0.472640810722
0.472354293588
0.472027456068
0.471667160133
0.471280956866
0.470873720569
0.470435184222
0.469957038535
0.469431546681
0.468851214476
0.4682074909
0.467497468856
0.466729645025
0.465911907343
0.465043745065
0.464135648261
0.463214169343
0.462264894264
0.461301879499
0.460347773399
0.459410392384
0.458501374575
0.457625539167
0.456761690257
0.455921500398
0.455116175185
0.454344231906
0.453607756894
0.452900674462
0.452199662227
0.451484097148
0.450750916875
0.450015757565
0.449310226399
0.448613638832
0.447963715645
0.447373740451
0.446845743491
0.446401747115
0.446046482218
0.445772637285
0.445553451232
0.445366970993
0.445171195013
0.444947833018
0.444693467992
0.444399656982
0.444055487438
0.443672226078
0.443273598536
0.442875718331
0.442489548481
0.442123276958
0.441782695133
0.441469213633
0.44118195547
0.440918810714
0.440676947851
0.440453226643
0.440245043118
0.440050757023
0.43986993685
0.439702387424
0.439546736254
0.4394005595
0.439261640231
0.439128703377
0.439001223014
0.438879025267
0.438761971524
0.438649829049
0.438542212278
0.438438615602
0.438338488278
0.438241301748
0.438146436019
0.438053145774
0.437960462743
0.437867665435
0.437775042144
0.437684227557
0.437597476447
0.437516099799
0.437439120504
0.437364101389
0.437289029667
0.437213351334
0.437137315708
0.437061243651
0.436985157654
0.436909004453
0.436832719783
0.436756298421
0.436679786106
0.436603160558
0.436526381341
0.436449352039
0.436371935295