/*--------------------------------*- C++ -*----------------------------------*\
| =========                 |                                                 |
| \\      /  F ield         | OpenFOAM: The Open Source CFD Toolbox           |
|  \\    /   O peration     | Version:  v1806                                 |
|   \\  /    A nd           | Web:      www.OpenFOAM.com                      |
|    \\/     M anipulation  |                                                 |
\*---------------------------------------------------------------------------*/
FoamFile
{
    version     2.0;
    format      ascii;
    class       volScalarField;
    location    "25";
    object      p;
}
// * * * * * * * * * * * * * * * * * * * * * * * * * * * * * * * * * * * * * //

dimensions      [0 2 -2 0 0 0 0];


internalField   nonuniform List<scalar> 
12225
(
-4.78186285136
-5.52979139496
-5.76424822639
-5.81982301441
-5.85962138002
-5.88985036726
-5.89804654271
-5.88220882983
-5.84349493528
-5.78147054149
-5.69415079259
-5.57852990681
-5.43054513245
-5.24450486125
-5.0122257136
-4.72147473475
-4.35119896268
-3.86382052073
-4.95576410279
-5.54049564805
-5.76989044721
-5.82909768627
-5.86730832745
-5.89602990391
-5.90359991419
-5.88754983167
-5.84886004005
-5.7871038586
-5.7003226786
-5.58556255367
-5.43886758422
-5.25476600681
-5.02552592979
-4.74010712171
-4.38171573983
-3.95901255728
-5.09874296222
-5.52770899171
-5.75762310308
-5.82938030731
-5.86955572166
-5.89862785856
-5.90728391405
-5.89260994689
-5.85545508856
-5.79557960121
-5.71123988378
-5.59975061577
-5.4575830647
-5.28003352914
-5.0608756071
-4.79243878539
-4.46686252157
-4.10352621514
-5.22386939512
-5.5406541646
-5.76231978316
-5.84345008917
-5.88379495105
-5.91136835524
-5.9198767073
-5.90591839559
-5.8700478471
-5.81218461772
-5.73083786835
-5.62366902294
-5.48772709467
-5.3193446304
-5.11420499359
-4.86824334523
-4.5803087884
-4.26998721041
-5.33553411743
-5.56867207182
-5.76940812673
-5.85474468579
-5.8951706837
-5.92142891261
-5.93019449109
-5.91772089326
-5.88413432399
-5.82945976078
-5.75250564106
-5.6513671849
-5.52379083857
-5.36728230427
-5.17948061764
-4.95942964205
-4.71030377841
-4.44996816574
-5.43598185824
-5.60730663256
-5.78259014732
-5.86969119445
-5.9115224247
-5.93735360813
-5.94679242519
-5.93627766665
-5.90557851305
-5.85483150509
-5.78321791109
-5.68935837205
-5.57177243626
-5.42915901099
-5.26094322799
-5.0685828661
-4.85779819963
-4.64470415186
-5.52730651089
-5.65350801636
-5.80249483076
-5.88796483242
-5.93076980079
-5.95608975569
-5.96600773697
-5.95755089901
-5.93019441907
-5.88413033105
-5.81891870793
-5.73373445561
-5.62787145725
-5.5011356992
-5.35444458283
-5.19096028158
-5.01766366502
-4.84880565823
-5.6113710458
-5.70491347855
-5.82908513318
-5.91020156756
-5.95360597879
-5.97896293832
-5.98987833508
-5.98413180358
-5.96100556015
-5.9207150626
-5.8631920047
-5.78817309424
-5.69569185625
-5.58651903856
-5.46272407081
-5.32854007669
-5.19133515945
-5.06343324494
-5.68976493376
-5.75983368444
-5.86199227034
-5.93693444466
-5.98037164516
-6.00616007841
-6.0184517523
-6.01582878877
-5.99755190912
-5.96387708188
-5.91508610203
-5.85145204741
-5.77366962887
-5.68328851319
-5.58317650228
-5.47810446276
-5.37523881528
-5.28494385281
-5.763835975
-5.81712859201
-5.9006495998
-5.96853024023
-6.01144473981
-6.03803430728
-6.0522258182
-6.05331277773
-6.04067163664
-6.01461090607
-5.9757083823
-5.92470174986
-5.8628299104
-5.79220809108
-5.71617003019
-5.63960443999
-5.5691227724
-5.51320674383
-5.83470042608
-5.87605568777
-5.94438406193
-6.00514797011
-6.0471649665
-6.07491060776
-6.09158679649
-6.09700615028
-6.09074395489
-6.07318164074
-6.04513610693
-6.0077222532
-5.9625896117
-5.91221046322
-5.86009835113
-5.81095255322
-5.77062577755
-5.74584809895
-5.89762327119
-5.93127949517
-5.98860030139
-6.04331881042
-6.08438149628
-6.11350999731
-6.13302646123
-6.14302227227
-6.14328223952
-6.13427096877
-6.11696823463
-6.0927361919
-6.06346336106
-6.03177037612
-6.00111976061
-5.97585131664
-5.96105709245
-5.96208649552
-5.95873364279
-5.98679105166
-6.03545382901
-6.08492748414
-6.12513988047
-6.1559295847
-6.17873824822
-6.1937834821
-6.2010440802
-6.20106925227
-6.19495128389
-6.18420598412
-6.17085771143
-6.15752969747
-6.14750856234
-6.14466156035
-6.15330034884
-6.17743751199
-6.02722089204
-6.05084999944
-6.09226632701
-6.13706438298
-6.1767213606
-6.20984655534
-6.23703013603
-6.25848886822
-6.27436963185
-6.28530198138
-6.29243676528
-6.29736632449
-6.30211531143
-6.30918253692
-6.32150319834
-6.34235351573
-6.37518249828
-6.42275418313
-6.10359054751
-6.12406367082
-6.16009841916
-6.20142471517
-6.24128476536
-6.27771888642
-6.31062424686
-6.34011705995
-6.36644209222
-6.39027296694
-6.41274827353
-6.43540920202
-6.46013999238
-6.48914947307
-6.52488253416
-6.56991617852
-6.62682518376
-6.69720026796
-6.18806251929
-6.20667366437
-6.23952886513
-6.27924576606
-6.32069055127
-6.36181896912
-6.40207452994
-6.44140877333
-6.48007763016
-6.51871551097
-6.5583567348
-6.60034394926
-6.64628244843
-6.69793247321
-6.75716307584
-6.82579604057
-6.90558723241
-6.99707749276
-6.27997993682
-6.29801028512
-6.33012218388
-6.37068972718
-6.4157560574
-6.46342866489
-6.51290209131
-6.56395737729
-6.61675128995
-6.67178753528
-6.72986997828
-6.79203466465
-6.85945877012
-6.93338942353
-7.01505178201
-7.10557220033
-7.20595680787
-7.31591643826
-6.37650216824
-6.39520716808
-6.42916430736
-6.47348396921
-6.52473871727
-6.58114684276
-6.64176996943
-6.70621737321
-6.77446161174
-6.84677112651
-6.92363104175
-7.00567903728
-7.09361485677
-7.1881448437
-7.28990290049
-7.39940865309
-7.51708672529
-7.64202717727
-6.46999416778
-6.49088958525
-6.52977486405
-6.58138433979
-6.64198160551
-6.70966475011
-6.78340058062
-6.8626369311
-6.94710790369
-7.0367808248
-7.13178081528
-7.23232935094
-7.33866500716
-7.45100313697
-7.56948244089
-7.69414249642
-7.82497754727
-7.96063923343
-6.52582755312
-6.55010317952
-6.59631723753
-6.65738281417
-6.72825337366
-6.80676125746
-6.89196015309
-6.98327102652
-7.0802558437
-7.18266941569
-7.29040432563
-7.40342872928
-7.5217061081
-7.64517372737
-7.77370659965
-7.90710714847
-8.04517766699
-8.18640633233
-6.5460410121
-6.57430942805
-6.628954085
-6.69978979876
-6.77992249467
-6.86720358799
-6.9611229155
-7.06119858538
-7.16691030182
-7.27790743595
-7.39399596036
-7.51501931595
-7.64080553169
-7.77114236427
-7.90577696171
-8.04439919714
-8.18673672259
-8.33122141321
-6.54151245198
-6.57568963945
-6.6415989373
-6.72360029207
-6.81266749
-6.90757445673
-7.00870520145
-7.11570849732
-7.22797867205
-7.34515274631
-7.46703335895
-7.59341993451
-7.72406257465
-7.85866784648
-7.99690283341
-8.13838453415
-8.28277078992
-8.42843286286
-6.51633649897
-6.55958587016
-6.64068921783
-6.73502475423
-6.8322189952
-6.93361885846
-7.04086075826
-7.15357437672
-7.27108470999
-7.39312068717
-7.51954243945
-7.6501335176
-7.78459251494
-7.92257409785
-8.06369497141
-8.20753397296
-8.35374220176
-8.50073506924
-6.47315313451
-6.53090222712
-6.63222891418
-6.73916810646
-6.8429144885
-6.94947852495
-7.06155003459
-7.17843007999
-7.29946783349
-7.42461519625
-7.55385051689
-7.6869652042
-7.82364963678
-7.96354289051
-8.10622797452
-8.25121898121
-8.39807220051
-8.54509420213
-6.41344110375
-6.49458876264
-6.62159743497
-6.73982201694
-6.8483385395
-6.95958067576
-7.07629848947
-7.1970563541
-7.32132951293
-7.44934637429
-7.58117063279
-7.71659273658
-7.8552960137
-7.9969231005
-8.14104496917
-8.28714577613
-8.43475154364
-8.58219341286
-6.33727569929
-6.45610488307
-6.61291135566
-6.73835876055
-6.84859289075
-6.96268163657
-7.08220189938
-7.20504347218
-7.33102666985
-7.46064516256
-7.59399395961
-7.7308391016
-7.87085693119
-8.01367421074
-8.15883086792
-8.30573704165
-8.45373987069
-8.60081669987
-6.24415150233
-6.42212012418
-6.60975542587
-6.73900021947
-6.85146168906
-6.96935568062
-7.09175749777
-7.21639768894
-7.3437275967
-7.47450743972
-7.60887046177
-7.74661229829
-7.88745115129
-8.03104523504
-8.17694767342
-8.32455866177
-8.47312541264
-8.6202906033
-6.13235117965
-6.39924709426
-6.60621097806
-6.72989084836
-6.84271525654
-6.96383638903
-7.08861018535
-7.21487099267
-7.34361474369
-7.47569418159
-7.61121199401
-7.74998231457
-7.89176724622
-8.03626493182
-8.18307670032
-8.33167100502
-8.48126253712
-8.62891552611
-6.00092639364
-6.40746282028
-6.62546782316
-6.73790016812
-6.84855325248
-6.97022876388
-7.0950290124
-7.22110179055
-7.34981136785
-7.4819861481
-7.61765618699
-7.75662324826
-7.8986617418
-8.04349024568
-8.19077368209
-8.34018161259
-8.49140577634
-8.64253693596
-5.83027513192
-6.3897478947
-6.62036106655
-6.72981494508
-6.84219146919
-6.96601644505
-7.09206969704
-7.21893915595
-7.34827870963
-7.48096620628
-7.61704520613
-7.75634685699
-7.89867438358
-8.0437703836
-8.19133990044
-8.3412001358
-8.49347625734
-8.65214077997
-0.869432569523
-0.880171205971
-0.892842195737
-0.922324255956
-0.991316136938
-1.10784365847
-1.27595680836
-1.49858465783
-1.77822776694
-2.11642698131
-2.51376819023
-2.96992074836
-3.48364852416
-4.0528689612
-4.67469090233
-5.34549730529
-6.06101008212
-6.81639264162
-7.60633910271
-8.42519006337
-9.26703814301
-10.1258467654
-10.9955617486
-11.8702208837
-12.7440590288
-13.6115971175
-14.467729821
-15.3077847201
-16.127585751
-16.9234777756
-17.6923619226
-18.4316850784
-19.1394496936
-19.8141719442
-20.4548681079
-21.060987816
-21.6323856344
-22.169236347
-22.6719976015
-23.1413178146
-23.5779984668
-23.9829041431
-24.3569324697
-24.7009352025
-25.015702504
-25.3019014946
-25.5600798847
-25.790625087
-25.9937870591
-26.169658048
-26.3182131526
-26.4393014467
-26.5326855187
-26.5980227205
-26.6348862471
-26.6427433939
-26.6210306952
-26.5693123399
-26.487510728
-26.3759060457
-26.2350561289
-26.0656927443
-25.8687611494
-25.6453957377
-25.3969105682
-25.1247295351
-24.8304161822
-24.5156318925
-24.1821515241
-23.8318154498
-23.4665509092
-23.0883214192
-22.6991484499
-22.3010562404
-21.8960913624
-21.4862586088
-21.0735302912
-20.6597635361
-20.2466791007
-19.835750772
-19.4281672127
-19.0247238305
-18.6257987191
-18.2312751515
-17.8405637929
-17.4525981748
-17.0659212808
-16.67870459
-16.2887986894
-15.8936727587
-15.4904061082
-15.0755264505
-14.6448419465
-14.1931503469
-13.7139931711
-13.1994060514
-12.6398495172
-12.0243007768
-11.3406527944
-10.5764049408
-9.71967483072
-8.76032967651
-7.69110108223
-6.50856876174
-5.21410949352
-3.81466349537
-2.32336814977
-0.759156982566
0.854252949962
2.49012425365
4.12017916663
5.71813249852
7.25685137315
8.71331549571
10.0674477657
11.3039361563
12.4158528105
13.3943561875
14.2375641381
14.9509984202
15.5369979773
16.0026524435
16.3713139836
16.6471411357
16.8468083076
16.9869692595
17.0580799182
17.0570345769
16.9972058625
16.8945746806
16.7624980106
16.611516475
16.4498637933
16.2841020808
16.1193811303
15.9597692159
15.8083361279
15.6673714279
15.5384130394
15.4223964214
15.3197027389
15.2302272083
15.1537822085
15.0903234426
15.0397078551
15.0014629443
14.9747175808
14.9582937829
14.9509291255
14.9513916698
14.9585503074
14.9713602196
14.9888771013
15.0102325255
15.0346485546
15.0614179284
15.0899180383
15.1195929815
15.1499643711
15.1806162072
15.2112010276
15.2414252908
15.271053381
15.2998992381
15.327825268
15.3547364851
15.3805796718
15.4053440569
15.4290585259
15.451796056
15.4736725393
15.4948620181
15.5155979079
15.5361985487
15.5570815239
15.5788190169
15.6021973952
15.6282689321
15.6596120453
15.6862460844
-0.789215184998
-0.831524616934
-0.878880638156
-0.924924449194
-0.99929825
-1.11786842434
-1.2887345051
-1.51571982527
-1.80127849304
-2.14677849103
-2.55260790265
-3.0182219897
-3.54216873503
-4.12214495379
-4.75504068068
-5.43701772144
-6.16358186839
-6.92968396874
-7.72981685746
-8.558131998
-9.40855219401
-10.2748921874
-11.1509748776
-12.0307436514
-12.9083687796
-13.778338539
-14.6355448084
-15.4753447061
-16.2936180257
-17.0867941067
-17.8518784768
-18.5864461281
-19.2886390114
-19.9571286814
-20.5910894609
-21.1901377189
-21.7542869026
-22.2838710336
-22.7794897
-23.2419255259
-23.6720889644
-24.0709402296
-24.4394421387
-24.778495436
-25.0889081867
-25.3713519695
-25.6263516236
-25.8542641992
-26.0552913916
-26.2294807441
-26.3767597471
-26.4969539468
-26.5898082656
-26.6549786739
-26.6919917386
-26.7001425425
-26.6784213331
-26.62595025
-26.5425682873
-26.4288452011
-26.2855732618
-26.1135371801
-25.9137851694
-25.6875475738
-25.4361102789
-25.1608939097
-24.8634983508
-24.5456078215
-24.2090037519
-23.8555415572
-23.4871511626
-23.1058159929
-22.7135717267
-22.3124804307
-21.9046249152
-21.4920749739
-21.0768644578
-20.6609294816
-20.2460531941
-19.8337753595
-19.4253168456
-19.021491884
-18.6226633457
-18.2287045331
-17.8390128925
-17.4525440815
-17.0678943469
-16.6833447992
-16.2968549398
-15.9060188547
-15.5079422785
-15.0991485278
-14.6753325336
-14.2311677544
-13.7600938929
-13.2541672245
-12.7039709647
-12.0986924208
-11.4263647054
-10.6744072864
-9.83052129789
-8.88388805485
-7.8264372872
-6.65406230958
-5.36768262925
-3.97403019684
-2.48629990815
-0.923496816298
0.690925184906
2.33147467246
3.96902181396
5.57559279629
7.1240323186
8.59029449256
9.95556428995
11.1997447358
12.3143708273
13.2943893698
14.1365515899
14.8436958592
15.4314063461
15.9028690872
16.2812052945
16.577971651
16.7888892179
16.9279639102
16.9976554409
17.0001492365
16.9464318678
16.850268087
16.7241212442
16.578268916
16.4209848281
16.2589055221
16.0973092455
15.9403487796
15.7911974777
15.6521853949
15.5249203074
15.4103994668
15.3091076713
15.2211890659
15.1464759683
15.084384051
15.0345828777
14.9969319229
14.9707213141
14.9547938593
14.9478846115
14.9487607988
14.9562939816
14.9694406951
14.9872597293
15.0088839124
15.0335384083
15.0605168124
15.0891997127
15.1190325192
15.149540695
15.1803083073
15.2109906957
15.2412949859
15.270989133
15.2998863933
15.3278514082
15.3547887171
15.3806474316
15.4054149696
15.4291208343
15.4518365082
15.4736784048
15.4948158714
15.5154792203
15.5359795595
15.5567263476
15.5782726162
15.6013747413
15.6269819374
15.6576405315
15.6803142037
-0.720435645437
-0.783370163672
-0.8734032273
-0.984328423013
-1.12496650253
-1.30261951249
-1.52405956094
-1.79497735223
-2.11944981208
-2.4998921382
-2.93732484823
-3.43156682127
-3.98135735722
-4.58447251545
-5.23781212708
-5.93750490029
-6.67900201977
-7.45719201335
-8.26651064554
-9.10106603997
-9.95475994804
-10.8214140096
-11.6948908618
-12.5692089876
-13.4386507077
-14.2978533212
-15.1418928446
-15.9663432871
-16.7673297758
-17.5415520191
-18.2863050298
-18.9994681201
-19.6794953632
-20.3253745392
-20.9365922792
-21.513069436
-22.0551077642
-22.5633091467
-23.0385116325
-23.4817043115
-23.8939639498
-24.2763755303
-24.6299793693
-24.9557089326
-25.2543575853
-25.5265402339
-25.7726833162
-25.9930142761
-26.1875778901
-26.3562557502
-26.4988092885
-26.6149113832
-26.7041598125
-26.7660316001
-26.7997709109
-26.8040699174
-26.7775931015
-26.7201225495
-26.6322308301
-26.5143416154
-26.3668565766
-26.1905336077
-25.9864629392
-25.755784761
-25.4997702851
-25.2199067848
-24.917763992
-24.5950225373
-24.2534645306
-23.8949619404
-23.5214721093
-23.1350273351
-22.7377275909
-22.3317218254
-21.9191884145
-21.5023027667
-21.0831937673
-20.6638776822
-20.2461852925
-19.8316795709
-19.4215766062
-19.0166787221
-18.6173416526
-18.2234688292
-17.8345287406
-17.4495962645
-17.0674160078
-16.6864317386
-16.3047498284
-15.9200179809
-15.5293572402
-15.1292159246
-14.7152135873
-14.2819889662
-13.8230508864
-13.3306265649
-12.7954870323
-12.2068836671
-11.552666349
-10.8196678963
-9.99466420179
-9.06582236405
-8.02427329843
-6.8653589976
-5.58954670428
-4.2027325453
-2.71728825469
-1.15198770822
0.468506839622
2.11762783215
3.76669869276
5.38500932551
6.94582986054
8.4214750962
9.79095772814
11.0392882396
12.1540320758
13.1294297285
13.9731627703
14.6855726414
15.2842152729
15.7788658871
16.1709191131
16.4723683711
16.6892506258
16.8317289214
16.9049195393
16.9137261106
16.8679384968
16.7797446484
16.6608818112
16.5214375863
16.369762477
16.2126071098
16.0553899654
15.9023504137
15.7567474442
15.6209714722
15.4966854774
15.3849255395
15.2862142072
15.2007029555
15.1282211069
15.0683466657
15.0205545047
14.9845589816
14.9598263317
14.9452485789
14.9395626702
14.9415581466
14.9501085754
14.9641881874
14.9828528339
15.005248469
15.030596346
15.0582020036
15.0874427433
15.1177743905
15.1487194107
15.1798715428
15.2108837385
15.2414712853
15.2713996434
15.3004877829
15.3285979245
15.3556381117
15.3815540854
15.4063350229
15.4300053619
15.4526324237
15.4743227623
15.4952352728
15.515580092
15.5356392248
15.5557724092
15.5764466693
15.598250211
15.6217950533
15.6484282904
15.6648040905
-0.871230078634
-0.958129990756
-1.07927539944
-1.23430001885
-1.4253081346
-1.65512278404
-1.9276980223
-2.24694606947
-2.61601600373
-3.03701937193
-3.51095141477
-4.03769382098
-4.61605508871
-5.24385643492
-5.9180160136
-6.63465962731
-7.38922673489
-8.17659600602
-8.99120734005
-9.82719541222
-10.6785193137
-11.5390933317
-12.4029120484
-13.2641658051
-14.1173486897
-14.9573473497
-15.7795220951
-16.5797619382
-17.3545335735
-18.1009001303
-18.8165370028
-19.4997157323
-20.1492887908
-20.7646421594
-21.3456536631
-21.8926206923
-22.4061974285
-22.8873057339
-23.3370612849
-23.7566802076
-24.1474077462
-24.5104357699
-24.8468466524
-25.1575507059
-25.4432564364
-25.7044440063
-25.9413581769
-26.1540100473
-26.3422114419
-26.5056039382
-26.6437341094
-26.7560178165
-26.8417973328
-26.9003563979
-26.9306104533
-26.9307196362
-26.900051391
-26.8387641126
-26.7469221148
-26.6249116431
-26.4729834314
-26.2919930407
-26.0829614309
-25.8469441338
-25.5852445268
-25.299363298
-24.9909005441
-24.6615867421
-24.3132659683
-23.9478907059
-23.5675179261
-23.174299201
-22.7704661603
-22.3583007526
-21.9400970782
-21.5181154874
-21.0945291398
-20.671359173
-20.2504108998
-19.8332169028
-19.420987588
-19.0145738037
-18.6144495217
-18.2207024914
-17.8330168807
-17.4506614113
-17.0725069518
-16.6970456101
-16.3223510914
-15.9460198696
-15.5651057431
-15.1761002025
-14.7747981935
-14.3561326898
-13.913993715
-13.4409637285
-12.9279623673
-12.3639963055
-11.7363146667
-11.0306903381
-10.2324712312
-9.32845497794
-8.30879530393
-7.16794658498
-5.90514198012
-4.52460474054
-3.03777175846
-1.46545373287
0.165905340519
1.82817271742
3.49305946014
5.12434961848
6.69175605096
8.17475176284
9.54626812147
10.7923414533
11.909936276
12.892748408
13.7512040034
14.4877713827
15.1031029464
15.6070153264
16.0081688813
16.3168902408
16.5409375467
16.688874905
16.7674857793
16.7836252635
16.7467630073
16.6680387292
16.5584415899
16.4277322631
16.2841629339
16.1345017573
15.984209507
15.8375825602
15.6979259427
15.5676801025
15.4485420122
15.3415871149
15.2473668899
15.1660439146
15.0974595795
15.041240572
14.9969398516
14.9641715168
14.9422667862
14.9301543824
14.9266325523
14.9305488537
14.9408126641
14.9564278093
14.9764656861
15.0000897444
15.02652972
15.0551043314
15.0851969782
15.1162755403
15.1478675136
15.1795766603
15.2110595664
15.2420393542
15.2722842131
15.3016187654
15.3299061157
15.3570581751
15.3830195608
15.4077775505
15.4313506386
15.4537999289
15.4752192327
15.4957476947
15.515565019
15.5349046544
15.5540484718
15.5733277715
15.5930794839
15.6134301421
15.6345877161
15.6437377107
-1.33171509709
-1.42124983985
-1.55059563141
-1.7250065577
-1.94358042042
-2.206848906
-2.51641851615
-2.8740148136
-3.28104183539
-3.73833705939
-4.24598998303
-4.80324748935
-5.40847606193
-6.05918679965
-6.75208301565
-7.48314576543
-8.24772857617
-9.04067469729
-9.85643750453
-10.6892112233
-11.5330607887
-12.3820504433
-13.23036824
-14.0724385541
-14.9030283604
-15.7173327796
-16.5110539353
-17.2804526692
-18.0223949001
-18.7343667631
-19.4144867802
-20.0614842681
-20.6746776138
-21.2539186873
-21.7995404805
-22.3122728192
-22.7931668845
-23.2434925924
-23.6646519161
-24.0580753074
-24.4251442339
-24.7671054725
-25.0850153743
-25.379684238
-25.651654968
-25.9011958917
-26.1283041625
-26.3327167975
-26.5139788397
-26.6714938339
-26.8044450567
-26.9119854792
-26.9932992363
-27.0474190971
-27.0730027309
-27.0688795151
-27.034420248
-26.9695105174
-26.8740670145
-26.7479036297
-26.5914464732
-26.4055318663
-26.1910023427
-25.9489065194
-25.6806561252
-25.387777582
-25.071955828
-24.7350167959
-24.3789166839
-24.0057345049
-23.6176623355
-23.2169854191
-22.8060541108
-22.3872403678
-21.9628874941
-21.5352631454
-21.106520833
-20.6786594044
-20.2534852763
-19.8325837601
-19.4172870832
-19.0086351125
-18.6073328452
-18.2136863745
-17.8275197471
-17.4481016558
-17.0741479392
-16.70392689
-16.3353703788
-15.9660812072
-15.5933695606
-15.2141823312
-14.8249583692
-14.4213116686
-13.9977128686
-13.5471134327
-13.0604479891
-12.5262644959
-11.9310551192
-11.2594832726
-10.4949212917
-9.62180422982
-8.62812268819
-7.50710768955
-6.25682718498
-4.88195402168
-3.39313888845
-1.8125712745
-0.170685226383
1.50050547958
3.17242805497
4.80958363736
6.37588273382
7.85653646444
9.22934144512
10.4815225215
11.6148685808
12.6192705565
13.4936547443
14.2417541944
14.8688707385
15.383548944
15.7947088254
16.1119458028
16.3438423468
16.4989445797
16.5850968992
16.6103326506
16.5840311489
16.5166172828
16.4183802184
16.2986930301
16.165600216
16.0258256445
15.8848122697
15.7468952895
15.6154045519
15.4928150729
15.3808569084
15.2806265413
15.1927045664
15.1172530745
15.0541355383
15.0029978878
14.9635755565
14.9353914272
14.9175345497
14.9089316694
14.908493744
14.915140862
14.9278514276
14.9456538964
14.9676561957
14.9930293648
15.0210292801
15.0509792204
15.0822851159
15.1144179372
15.1469247797
15.1794121657
15.2115535681
15.2430741881
15.2737554808
15.3034231254
15.3319501021
15.3592460197
15.3852589713
15.4099712815
15.4334004874
15.4555947554
15.4766335217
15.4966285798
15.5157227912
15.5340876466
15.5519079961
15.569350877
15.5864733456
15.6029120687
15.6179673275
15.6190557665
-2.02861111702
-2.11071093065
-2.23649465451
-2.41547466087
-2.64524805275
-2.92540295046
-3.2560041322
-3.6371707958
-4.06884276651
-4.55058566998
-5.08142631297
-5.65975536009
-6.28327155462
-6.94897850315
-7.65320870524
-8.39168465554
-9.15959743142
-9.95170774547
-10.7624569599
-11.5860874404
-12.4167669836
-13.2487106944
-14.0763023258
-14.8942026791
-15.6974546528
-16.4815666312
-17.2425911591
-17.9771752865
-18.6826058628
-19.3568215808
-19.9984205658
-20.6066314334
-21.181281301
-21.7227263414
-22.2317837813
-22.709630278
-23.1577083654
-23.5776081532
-23.9709679135
-24.339362782
-24.6842264386
-25.0067691866
-25.3079317363
-25.5883451559
-25.8483284872
-26.0878760387
-26.3066982692
-26.5042568484
-26.6798147969
-26.8324905065
-26.9612436688
-27.0650530011
-27.1429551894
-27.1939117848
-27.2167426104
-27.210645643
-27.1746008348
-27.1077357807
-27.0096889858
-26.8801199822
-26.7195857363
-26.5287893997
-26.308494735
-26.0599732634
-25.7847370334
-25.4844121982
-25.1608134232
-24.8158974756
-24.4517539633
-24.0705905762
-23.6747134434
-23.2664983095
-22.8483582494
-22.4227070057
-21.9919167178
-21.5582818768
-21.123998066
-20.6911373023
-20.2616175608
-19.8371691675
-19.4192753028
-19.0090987856
-18.6073959096
-18.214422259
-17.829837985
-17.4526547023
-17.0813070838
-16.7139255017
-16.3486334714
-15.98365536
-15.6171505488
-15.2470224697
-14.8705301304
-14.4838616369
-14.0816858696
-13.6568789549
-13.2000733292
-12.6990919671
-12.1393403009
-11.5040825775
-10.7737937846
-9.92951842536
-8.95697746699
-7.85066111054
-6.60998993521
-5.24012834043
-3.75096084779
-2.16695465697
-0.524868538918
1.14290832536
2.81016196014
4.44227116671
6.0034896166
7.48593570504
8.87306153379
10.140643583
11.2850768098
12.30035353
13.1858818656
13.9448840427
14.582896708
15.107821069
15.528590239
15.8546541659
16.0950962118
16.258781814
16.3542642877
16.3902301052
16.3760524341
16.3216334798
16.236696823
16.1301844925
16.0098994471
15.8824286539
15.7531644342
15.6264176707
15.5055245561
15.3929597107
15.2904696101
15.1991565219
15.1196100251
15.051992701
14.996162432
14.951897801
14.9190757575
14.897006967
14.884553687
14.8806842562
14.8844268606
14.8947943447
14.9108318971
14.9316086788
14.9562665205
14.9839993567
15.014088369
15.0458740089
15.0787837757
15.1123037776
15.146001049
15.1794952744
15.2124769445
15.2446812259
15.2759035852
15.3059770523
15.3347833135
15.3622341868
15.3882831459
15.4129110081
15.4361308229
15.4579774275
15.4785134658
15.4978211009
15.5159997791
15.5331497654
15.5493488591
15.5645919891
15.5786594393
15.5907549664
15.5995070275
15.5924937641
-2.84703939671
-2.92031061379
-3.0401669402
-3.2174648843
-3.44913350827
-3.73483356036
-4.07399321152
-4.46588987591
-4.90954741491
-5.40362230175
-5.94629872769
-6.53522274468
-7.16746318364
-7.83950787872
-8.5472849872
-9.28621256845
-10.0512687187
-10.8370797472
-11.6380231336
-12.4483376567
-13.2622425268
-14.074052885
-14.8782995226
-15.6698350545
-16.44394013
-17.1964073862
-17.9236221365
-18.6226124633
-19.2910930664
-19.9274720338
-20.5308504148
-21.1009801965
-21.6382156034
-22.1434238875
-22.6178952372
-23.0632199053
-23.4811764492
-23.8735998888
-24.2422754959
-24.5888286169
-24.914652331
-25.2208399969
-25.5081564057
-25.7770140068
-26.0274842519
-26.2593005299
-26.4719092226
-26.6645156687
-26.8361448335
-26.9857050221
-27.1120657054
-27.2141153414
-27.2907871014
-27.3410222767
-27.3637481477
-27.3577194121
-27.3213044439
-27.2531046099
-27.1525321647
-27.0195990332
-26.8548037429
-26.6587527964
-26.4324184363
-26.1772129406
-25.8946965244
-25.5866307457
-25.2549685539
-24.9018140081
-24.5293963979
-24.140043263
-23.7361564548
-23.3201884319
-22.8946226475
-22.4619510838
-22.0246342343
-21.5850538135
-21.1454799767
-20.7080428656
-20.2747016266
-19.8471875237
-19.4269211565
-19.0149265014
-18.6117403465
-18.2173711919
-17.83130314
-17.4525540371
-17.0797827271
-16.7116331276
-16.3471186365
-15.9855826905
-15.6261976203
-15.2674967129
-14.9068843297
-14.5402441359
-14.1617961264
-13.7638325755
-13.3364418914
-12.8664305612
-12.3375432399
-11.7316805752
-11.0272332661
-10.2034620599
-9.24644988944
-8.15217092851
-6.92166549305
-5.56324513056
-4.08774109449
-2.51694184359
-0.889689821283
0.761314446428
2.41647139136
4.04594918062
5.61243954733
7.09894363297
8.48908348851
9.76383284755
10.915207353
11.938145413
12.8318730143
13.5993140927
14.2460688303
14.7798166853
15.2094627238
15.5444260987
15.7940933917
15.9676382434
16.0740805768
16.1224448557
16.1220766321
16.0824602291
16.0128432371
15.9217278716
15.8166393523
15.7039622932
15.5889889328
15.4759602952
15.368176013
15.2680923523
15.1774363915
15.0973123945
15.0282923556
14.970547417
14.923916484
14.8884442437
14.8639598106
14.8494482771
14.843685316
14.8457426595
14.8547464167
14.8698172215
14.890051791
14.9145826015
14.9425756974
14.9732710704
15.0059653053
15.040037705
15.0749296499
15.1101624591
15.1453154097
15.1800385461
15.214032249
15.2470570083
15.2789163748
15.3094625651
15.3385809859
15.3661968132
15.3922642675
15.416767218
15.439708867
15.4611157839
15.4810285574
15.4995001424
15.5165786108
15.532291974
15.5466065395
15.5593496893
15.5700511003
15.5775663304
15.5800761458
15.5654898019
-3.68125641484
-3.7468397172
-3.86132238837
-4.0347342164
-4.26380238835
-4.54864148903
-4.88853017897
-5.2824308564
-5.72891564321
-6.22611580797
-6.771674002
-7.36271532148
-7.99583516865
-8.66710758948
-9.37211540836
-10.1059985135
-10.8635235118
-11.6391654174
-12.4272075444
-13.221845394
-14.0173041835
-14.8079517202
-15.5884195839
-16.3537103158
-17.0993075576
-17.8212619443
-18.5162742582
-19.1817446158
-19.8158110683
-20.4173462295
-20.9859438513
-21.5218586573
-22.025935496
-22.4994963194
-22.9442282083
-23.3620419085
-23.7549468307
-24.1249150009
-24.4737774468
-24.8031234576
-25.1142414769
-25.4080681928
-25.6851760901
-25.9457635432
-26.1896745133
-26.4164240175
-26.6252415025
-26.8151211992
-26.98490514
-27.1333614759
-27.2592932423
-27.3614930228
-27.4387607458
-27.4900043582
-27.5141733098
-27.5094994157
-27.4737079582
-27.4050702938
-27.3029162398
-27.1674201648
-26.9988845068
-26.7978942843
-26.5656607152
-26.3037043119
-26.0137223329
-25.697678818
-25.357730669
-24.996183617
-24.6154440147
-24.2179876034
-23.8063367656
-23.3830464738
-22.9506889998
-22.5118220214
-22.0689375232
-21.6243999129
-21.180405623
-20.7389671721
-20.3019180699
-19.8708407398
-19.4469759035
-19.0311636278
-18.6238101487
-18.2249415918
-17.8343412019
-17.4516457524
-17.0763458211
-16.7079958225
-16.3463960563
-15.9913305507
-15.6418902985
-15.2962084421
-14.9510765841
-14.6015317435
-14.2412831519
-13.8622238458
-13.454098253
-13.0028096013
-12.4910689913
-11.9012732752
-11.2132487824
-10.4065515232
-9.46833626931
-8.39606688911
-7.19013020092
-5.8566506789
-4.40718875024
-2.86148374773
-1.25317673072
0.383369821416
2.02549310779
3.64540121082
5.2093350852
6.69463398046
8.08305530511
9.35840402937
10.5113022476
11.5368906267
12.4344441261
13.2068108676
13.85956318
14.4002747033
14.8377625505
15.181436248
15.4408120465
15.6252844776
15.7441053046
15.8064540168
15.8215532311
15.7985435294
15.7462166205
15.6726686281
15.5850922704
15.4896459367
15.391458147
15.2946698063
15.2024966153
15.1173521795
15.0409196933
14.9742786404
14.9179814269
14.8721885205
14.8367926023
14.8120956536
14.7976531938
14.7920991044
14.7943313487
14.8035438244
14.8189580746
14.8397750115
14.8651514815
14.8942723941
14.9263445465
14.9606481594
14.9965127281
15.0333540299
15.0706433651
15.1079348626
15.1448337801
15.1810188185
15.2162124924
15.2502000781
15.2828023408
15.313889742
15.343359915
15.3711507489
15.3972204414
15.4215544935
15.4441509308
15.465026366
15.4842007902
15.5016939407
15.5175032271
15.5315840182
15.5437943619
15.5538075891
15.560942666
15.5637994062
15.560305592
15.538914894
-4.44304048292
-4.50277937894
-4.61312727316
-4.78224342928
-5.00700379059
-5.28800558017
-5.62454074188
-6.01551786253
-6.45934163969
-6.9539013234
-7.49655780377
-8.08413962117
-8.71295395648
-9.37880726092