/*--------------------------------*- C++ -*----------------------------------*\
| =========                 |                                                 |
| \\      /  F ield         | OpenFOAM: The Open Source CFD Toolbox           |
|  \\    /   O peration     | Version:  v1806                                 |
|   \\  /    A nd           | Web:      www.OpenFOAM.com                      |
|    \\/     M anipulation  |                                                 |
\*---------------------------------------------------------------------------*/
FoamFile
{
    version     2.0;
    format      ascii;
    class       volScalarField;
    location    "25";
    object      pa;
}
// * * * * * * * * * * * * * * * * * * * * * * * * * * * * * * * * * * * * * //

dimensions      [0 2 -2 0 0 0 0];


internalField   nonuniform List<scalar> 
12225
(
4276.31019003
4276.71001623
4277.09984746
4277.43934094
4278.01290491
4278.56945859
4279.09451355
4279.49205837
4279.79940396
4280.15290122
4280.73592073
4281.58170313
4282.36610617
4282.75904134
4283.87734769
4289.50890806
4301.58718403
4305.37897659
4297.47754414
4290.68194532
4290.91086544
4291.44600931
4292.02900239
4292.60315452
4293.11281268
4293.5682945
4294.06479384
4294.7734556
4295.82395129
4297.10596336
4298.16645895
4298.80109156
4300.45899876
4306.38923354
4315.54620542
4312.14766282
4270.16919396
4282.36560611
4283.12588204
4283.31992156
4283.58705144
4283.75045415
4283.81503203
4283.80257475
4283.85315473
4284.15784167
4284.84296134
4285.77186478
4286.53111647
4287.08054685
4288.88798054
4294.33393722
4301.36747769
4299.35970711
4295.35912227
4286.63497092
4286.8429633
4287.26853058
4287.64502133
4287.89554574
4288.01603178
4288.02963324
4288.06166496
4288.27362502
4288.74118964
4289.29428086
4289.59006384
4289.70695058
4290.79784558
4293.96049014
4296.68753592
4293.36798662
4275.58769589
4283.55358367
4284.07065246
4284.46886846
4284.83982292
4285.13853379
4285.35627333
4285.52563181
4285.75890038
4286.18372368
4286.83489411
4287.55398162
4288.13387481
4288.78498412
4290.30043834
4292.75684483
4293.71085389
4290.48767588
4290.95859914
4285.29447468
4285.12375281
4285.51387215
4285.75372349
4285.93934092
4286.04652406
4286.12372706
4286.25678477
4286.52924501
4286.93177178
4287.33147058
4287.65341714
4288.19259336
4289.45519019
4291.05840256
4291.14515582
4288.57122345
4278.30747718
4283.77683755
4284.66028198
4284.86549182
4285.1591955
4285.36245912
4285.53766759
4285.71030476
4285.95177228
4286.29774164
4286.6996103
4287.04062547
4287.31200194
4287.77435576
4288.67026722
4289.50436805
4289.10883072
4287.10542663
4287.29271243
4284.62391209
4284.64267727
4284.91305778
4285.09490946
4285.23566346
4285.35429143
4285.49587011
4285.71355609
4286.01959297
4286.35540308
4286.63595671
4286.88378978
4287.27166523
4287.84182433
4288.14319819
4287.52597279
4285.93680928
4282.84060106
4284.27044393
4284.56766821
4284.76703478
4284.94351697
4285.06985849
4285.18275367
4285.31692163
4285.5109603
4285.76135304
4286.01680794
4286.22741421
4286.42714519
4286.70539033
4286.99886172
4286.96601367
4286.27956273
4284.99014194
4284.40452431
4284.27507419
4284.46516305
4284.63435967
4284.78214867
4284.89309969
4284.99871715
4285.12436887
4285.29230426
4285.48883206
4285.67340348
4285.82035587
4285.95713942
4286.11155985
4286.1866095
4285.95604157
4285.27245868
4284.20566313
4284.07783683
4284.23782507
4284.37070686
4284.50692816
4284.62588081
4284.71988932
4284.81284469
4284.92201784
4285.05676698
4285.19989357
4285.32182182
4285.40973037
4285.47722997
4285.51474383
4285.431386
4285.09192467
4284.44258676
4283.54403799
4284.09041103
4284.17242502
4284.27290846
4284.3779109
4284.47336781
4284.55090237
4284.62901037
4284.7175231
4284.81841359
4284.91474009
4284.98534406
4285.02189832
4285.0258407
4284.97294593
4284.79215013
4284.40614046
4283.80055266
4283.02452576
4284.04814984
4284.10728324
4284.1762772
4284.2536037
4284.32550457
4284.38536671
4284.44532441
4284.50974868
4284.57550668
4284.62789863
4284.65135451
4284.63905833
4284.58350029
4284.45808304
4284.21293154
4283.80790243
4283.24884177
4282.57117146
4283.97594098
4284.02041554
4284.06380984
4284.11298031
4284.15814726
4284.19581172
4284.23127367
4284.2650753
4284.29107509
4284.29688083
4284.27145483
4284.20725216
4284.09378459
4283.90781453
4283.61988362
4283.21410162
4282.70363908
4282.11700735
4283.89733197
4283.91755627
4283.93897021
4283.95840226
4283.9747389
4283.9837865
4283.98875196
4283.9857915
4283.9688142
4283.92728621
4283.85322808
4283.73919604
4283.5750745
4283.34616262
4283.03694755
4282.64584437
4282.18713533
4281.68180656
4283.69264974
4283.75546285
4283.75334975
4283.74459061
4283.72672666
4283.70305679
4283.6703875
4283.62689237
4283.56479221
4283.47742738
4283.35739467
4283.19930902
4282.99651788
4282.74061639
4282.42798917
4282.05949453
4281.6525712
4281.2149979
4284.05371129
4283.80706423
4283.74847464
4283.70757834
4283.65118872
4283.58637483
4283.51051064
4283.42199632
4283.31455263
4283.18268462
4283.02153869
4282.82731714
4282.59704071
4282.32864785
4282.02166381
4281.68170297
4281.31963782
4280.95082312
4282.05941471
4282.91290104
4283.07470033
4283.01995076
4282.92215156
4282.82160354
4282.71361294
4282.59549445
4282.46122316
4282.30648388
4282.12790125
4281.92396219
4281.69397821
4281.43928719
4281.16075799
4280.86476954
4280.55672337
4280.23704561
4287.48800483
4285.29414058
4284.31796329
4283.97730835
4283.76675409
4283.59319116
4283.42166454
4283.24178609
4283.04945731
4282.84080804
4282.61509529
4282.37237113
4282.11390833
4281.84209375
4281.55689755
4281.26271356
4280.96519209
4280.68755452
4275.94517524
4280.31952832
4281.86112739
4282.01624984
4281.97300701
4281.87394001
4281.7521904
4281.61783697
4281.46302087
4281.29470685
4281.10507287
4280.90266935
4280.68149347
4280.4523759
4280.20890986
4279.96580761
4279.7172732
4279.45335189
4292.71364394
4285.72482903
4283.54170858
4283.33481973
4283.19915711
4283.07565923
4282.92450135
4282.75420572
4282.57334558
4282.37866201
4282.17604818
4281.96280043
4281.74602521
4281.5218279
4281.29537342
4281.05713801
4280.81873841
4280.61269041
4268.49607398
4278.92831906
4281.91292181
4281.84980276
4281.76588179
4281.60087678
4281.43268303
4281.246066
4281.04664106
4280.83527374
4280.6146198
4280.38453141
4280.14979775
4279.90947034
4279.66831669
4279.43032513
4279.20405336
4278.94064143
4303.01999549
4287.4732324
4283.53124399
4283.65944632
4283.5406713
4283.47764491
4283.34828002
4283.20964212
4283.05250302
4282.88402139
4282.70103524
4282.5093632
4282.30685959
4282.10072657
4281.88458054
4281.66244558
4281.42645511
4281.26058974
4256.80166532
4277.07791967
4281.88895909
4281.43359433
4281.37029268
4281.14802826
4280.9623628
4280.74285002
4280.51502602
4280.27633019
4280.03293763
4279.78820693
4279.5464567
4279.30709002
4279.07239999
4278.84690624
4278.64007884
4278.36561648
4310.136735
4288.32837308
4283.77414762
4284.25875506
4284.08920264
4284.03958439
4283.89288463
4283.75121921
4283.59143537
4283.42848672
4283.26241298
4283.09598325
4282.92985484
4282.76189773
4282.58801368
4282.39992186
4282.1911252
4282.06861859
4258.1427198
4278.56900739
4281.56853588
4281.04632043
4280.95891489
4280.73734002
4280.55120415
4280.32887834
4280.09876246
4279.85811541
4279.61157976
4279.35798429
4279.09792683
4278.82804753
4278.54918491
4278.27643758
4278.0392662
4277.71871386
4305.9162534
4286.73333862
4285.02148514
4285.20698054
4285.03404992
4284.89004206
4284.71191655
4284.52895003
4284.33475425
4284.14017165
4283.94647392
4283.75174928
4283.5649821
4283.38712695
4283.22476784
4283.08610469
4282.96165606
4282.95167067
4261.20303305
4279.207121
4280.37439945
4280.14180735
4279.99216014
4279.82805779
4279.67031927
4279.49746639
4279.31825801
4279.13707295
4278.95212132
4278.7621807
4278.57405675
4278.38833861
4278.20223342
4278.0129755
4277.81438174
4277.43892561
4298.47734978
4288.81841045
4288.00259453
4287.92343273
4287.70978736
4287.52894129
4287.32809302
4287.11999389
4286.89984526
4286.67283448
4286.43305697
4286.17875461
4285.91650893
4285.64573205
4285.35789362
4285.03387825
4284.626448
4284.31148783
4275.31451781
4274.92015054
4275.02655504
4274.89011982
4274.88728111
4274.83815458
4274.79481541
4274.7392694
4274.67769723
4274.60860706
4274.52768396
4274.43481822
4274.33833212
4274.24447372
4274.15377699
4274.07558578
4274.07003867
4274.11573224
4274.04082053
4274.02935756
4274.00984176
4273.99437202
4273.99416521
4274.01501341
4274.05237849
4274.10313965
4274.15904379
4274.21902009
4274.2744055
4274.32502875
4274.3624709
4274.38984619
4274.40152425
4274.40604761
4274.39997292
4274.39570508
4274.38825545
4274.39001701
4274.39280396
4274.40771475
4274.42301883
4274.44806105
4274.4694865
4274.49544929
4274.51341384
4274.53166985
4274.53830534
4274.54101959
4274.5299931
4274.5131464
4274.48208679
4274.44390452
4274.39218018
4274.33437234
4274.26487189
4274.19052035
4274.10659648
4274.01940361
4273.92467485
4273.82833306
4273.72616811
4273.62409949
4273.5174756
4273.41266154
4273.30402468
4273.19813622
4273.08877848
4272.98256554
4272.87277777
4272.76568178
4272.65462619
4272.54490839
4272.43143431
4272.31886927
4272.20220166
4272.0839077
4271.95971091
4271.8318638
4271.69864009
4271.56213813
4271.42270702
4271.28288246
4271.14358174
4271.00620093
4270.87090165
4270.73916983
4270.61119109
4270.48848933
4270.37040031
4270.25788115
4270.14989357
4270.04683309
4269.94834747
4269.8547316
4269.76710221
4269.68553766
4269.61187673
4269.5446098
4269.48625618
4269.43462101
4269.39286392
4269.35773861
4269.33488825
4269.32219398
4269.32695622
4269.34578499
4269.37857314
4269.41419442
4269.43686483
4269.44444831
4269.43847834
4269.42581495
4269.41196376
4269.40422038
4269.40586789
4269.42221514
4269.4545396
4269.50669731
4269.5793723
4269.67737311
4269.80934498
4269.98193086
4270.20409395
4270.46873392
4270.76965828
4271.08523
4271.39993596
4271.69145737
4271.95657432
4272.19126162
4272.40938493
4272.57661027
4272.65657038
4272.65756099
4272.5750266
4272.43330608
4272.21614195
4271.86452565
4271.46365129
4271.09107733
4270.59210939
4270.11959056
4269.7358744
4269.1861833
4268.07111754
4266.51750436
4264.64103387
4262.43639148
4259.88558844
4256.9058579
4253.43690918
4249.3354494
4244.49079443
4238.68703654
4231.7550045
4223.43110107
4213.51924234
4201.79801076
4188.15378669
4172.52648883
4154.89682937
4135.2344148
4113.45319783
4089.47992475
4063.23445202
4034.69653718
4003.81386398
3970.62550928
3935.12672662
3897.46129051
3857.70958366
3816.18608948
3773.10964095
3729.05978525
3684.47503654
3640.32857943
3597.37627676
3557.12304976
3520.72246562
3490.32250221
3467.49093806
3455.07716745
3455.04654563
3471.03304489
3505.43297702
3562.7843634
3646.05621413
3760.99397743
3911.65851902
4105.34510005
4346.52658023
4643.75611912
5002.71897384
5432.00905916
5934.9068017
6514.65967187
7171.07420501
7901.61333484
4274.12971361
4274.0594944
4274.00902568
4273.99406717
4274.00274452
4274.02754428
4274.06322078
4274.10859852
4274.15714531
4274.20738271
4274.25382472
4274.29707748
4274.33276838
4274.36412452
4274.38874524
4274.41305424
4274.43551305
4274.46415578
4274.49612952
4274.53891631
4274.58711795
4274.64726509
4274.71222718
4274.78669408
4274.86236356
4274.94333466
4275.02173898
4275.10091869
4275.17332384
4275.24190198
4275.30053244
4275.3517166
4275.39021238
4275.41841274
4275.43243383
4275.43472978
4275.42229038
4275.39755608
4275.35809555
4275.30631263
4275.24021237
4275.16227533
4275.07069129
4274.96820864
4274.85294798
4274.7280645
4274.59141438
4274.44624117
4274.29005538
4274.12625343
4273.95239522
4273.77108097
4273.57999461
4273.38152799
4273.17413841
4272.95981812
4272.73814974
4272.51202817
4272.28153465
4272.04669086
4271.80664861
4271.56128242
4271.31022217
4271.05332692
4270.79150952
4270.52665096
4270.26035036
4269.99395367
4269.72831043
4269.46473428
4269.20388718
4268.94693183
4268.69446597
4268.4475215
4268.20696676
4267.97395862
4267.75038758
4267.53737167
4267.33667962
4267.14864078
4266.97505602
4266.81573232
4266.67242006
4266.54485851
4266.43637985
4266.3481822
4266.28477867
4266.24761007
4266.2371086
4266.24185473
4266.25165593
4266.26230624
4266.27597621
4266.29805075
4266.33398761
4266.38933807
4266.4667896
4266.56887056
4266.69567595
4266.84814361
4267.02414367
4267.22642609
4267.45915053
4267.7289695
4268.03832877
4268.3881552
4268.77232732
4269.17591734
4269.57801718
4269.9734339
4270.35895685
4270.73218185
4271.09017657
4271.4005469
4271.63699601
4271.81009797
4271.92598013
4271.98296749
4271.98665204
4271.86701596
4271.56371994
4271.26113844
4270.89884806
4270.19992948
4269.06167469
4267.6772791
4266.01909558
4264.06986619
4261.822361
4259.25628704
4256.32813197
4252.971577
4249.09951584
4244.59342641
4239.31031872
4233.06452718
4225.65527239
4216.85136838
4206.43849082
4194.22678401
4180.10232908
4164.01247959
4145.93346989
4125.82788477
4103.59695636
4079.15515464
4052.4418089
4023.41836872
3992.05395611
3958.35662226
3922.35503142
3884.14693679
3843.8637046
3801.75289065
3758.10735057
3713.41282988
3668.21166297
3623.34992951
3579.7245818
3538.67486229
3501.54266176
3470.26798124
3446.66417997
3433.33185678
3432.5443836
3447.62909755
3481.33485112
3537.8177867
3620.43707671
3734.4989533
3884.4295214
4076.96512932
4316.8438588
4612.81193837
4971.43289021
5401.36922241
5905.98949584
6487.49428748
7144.38183553
7873.05176808
4274.36058091
4274.02767306
4273.81937639
4273.73213945
4273.69995493
4273.69526704
4273.70284569
4273.71381852
4273.71922092
4273.71820192
4273.70679198
4273.68631719
4273.65330814
4273.61105808
4273.55782483
4273.4993219
4273.43410807
4273.36862875
4273.30002956
4273.23439051
4273.16729867
4273.10425312
4273.03983232
4272.97897955
4272.91564253
4272.85425877
4272.78912215
4272.72412506
4272.65389004
4272.58177601
4272.50329133
4272.42130188
4272.3322207
4272.23856125
4272.1377599
4272.03227853
4271.92031954
4271.8041598
4271.68258225
4271.55773641
4271.42874118
4271.29772129
4271.16390438
4271.02950412
4270.89365305
4270.75871082
4270.62353902
4270.49042278
4270.35798709
4270.2282416
4270.09974626
4269.97412153
4269.8498711
4269.72820189
4269.607959
4269.48936757
4269.37014784
4269.25012
4269.13010871
4269.01114754
4268.89374548
4268.77828366
4268.66564998
4268.55633898
4268.45071983
4268.34918731
4268.25266333
4268.16182029
4268.07675927
4267.99750434
4267.92358226
4267.85479021
4267.79055429
4267.73057477
4267.67463264
4267.62285126
4267.57563634
4267.53336277
4267.49638671
4267.46464286
4267.43848741
4267.41772407
4267.40268018
4267.39349726
4267.3917704
4267.39889871
4267.41760235
4267.44989775
4267.49349558
4267.53832959
4267.57237849
4267.59242405
4267.60339612
4267.60962358
4267.62028692
4267.64012995
4267.67655009
4267.73163613
4267.81111172
4267.91566017
4268.04919615
4268.21801328
4268.42998652
4268.69417949
4269.01168261
4269.38617618
4269.80056733
4270.22960009
4270.64027523
4271.02856647
4271.38281188
4271.68883195
4271.93524676
4272.10105931
4272.18443296
4272.20607533
4272.18658579
4272.10231665
4271.91012253
4271.68161239
4271.38830113
4270.99658766
4270.49257757
4269.65823192
4268.4525923
4267.16004818
4265.73840792
4264.0887126
4262.15783301
4259.92207655
4257.32657388
4254.3186953
4250.7981547
4246.66287719
4241.74972181
4235.88879965
4228.85451122
4220.4239612
4210.36521536
4198.49584866
4184.70042816
4168.92635003
4151.16060687
4131.38634699
4109.5351799
4085.49283139
4059.1999195
4030.61674934
3999.72391906
3966.52509195
3931.05751079
3893.41531327
3853.73610277
3812.26505394
3769.29860476
3725.32139152
3680.87542887
3636.80552707
3594.00378395
3553.80664973
3517.54634885
3487.15574396
3464.44924298
3452.03341758
3452.2152991
3468.32412107
3503.19219678
3561.01781821
3645.30918833
3761.29507415
3913.16182758
4106.91330917
4347.38970556
4642.50381079
4998.3618707
5423.17483427
5921.34238939
6500.0879111
7160.76865226
7899.59149806
4274.57089354
4273.64383677
4273.30358679
4273.25361254
4273.27544855
4273.32244383
4273.37802337
4273.430746
4273.47163186
4273.5025813
4273.52172843
4273.53150168
4273.52866432
4273.51648503
4273.49303572
4273.46350959
4273.42613679
4273.38654913
4273.34193587
4273.29780758
4273.2501688
4273.20448984
4273.15607615
4273.11009198
4273.0614439
4273.01499991
4272.96555385
4272.917461
4272.86568201
4272.81392461
4272.75766491
4272.69998278
4272.63701408
4272.57137134
4272.50005584
4272.42530383
4272.34489918
4272.26080535
4272.17139636
4272.07842815
4271.98068767
4271.87984136
4271.77488593
4271.66750076
4271.55670606
4271.44422265
4271.32897158
4271.21257575
4271.09373683
4270.97395118
4270.85190386
4270.72874533
4270.60330357
4270.47653798
4270.3475703
4270.21729354
4270.08530411
4269.95080787
4269.81262522
4269.67081717
4269.52539474
4269.37635066
4269.22409682
4269.06933646
4268.91360797
4268.75786567
4268.60330218
4268.45097676
4268.30181057
4268.15641503
4268.01511681
4267.87815517
4267.74566994
4267.61806996
4267.4957141
4267.37932874
4267.26988791
4267.1681932
4267.07500154
4266.99080465
4266.91621224
4266.85161234
4266.79769744
4266.75531028
4266.72607211
4266.71201581
4266.7156597
4266.73914274
4266.78044019
4266.82777836
4266.87072143
4266.90644267
4266.93822071
4266.9721235
4267.01361143
4267.0681641
4267.13908426
4267.22962088
4267.34208527
4267.47868586
4267.64485974
4267.85029407
4268.10657285
4268.42504209
4268.81590991
4269.27988967
4269.79556338
4270.33032994
4270.85511156
4271.35430657
4271.80489933
4272.17330088
4272.45419003
4272.62700503
4272.69864876
4272.68171089
4272.57903339
4272.43761539
4272.21148114
4271.89411033
4271.56147924
4271.21106134
4270.6945515
4269.90631614
4268.88636384
4267.76585907
4266.48987472
4264.97115931
4263.15626471
4261.01103425
4258.48560082
4255.52271247
4252.0302151
4247.90058379
4242.97695258
4237.08282549
4229.99606789
4221.48857686
4211.33924551
4199.37682626
4185.50247543
4169.67750832
4151.89746598
4132.14910292
4110.36279455
4086.39962186
4060.19598142
4031.71170521
4000.93983004
3967.87329462
3932.56780268
3895.09788201
3855.62973428
3814.37629768
3771.67689174
3727.9670758
3683.85010923
3640.09954146
3597.69187604
3557.86421926
3522.05848306
3492.06931255
3469.85637952
3457.85902141
3458.60146037
3475.22611494
3510.88925162
3569.66024956
3655.50938283
3773.39181695
3927.61835467
4123.45567913
4365.88799036
4660.62467343
5012.55144798
5428.25318035
5915.04258989
6486.37460875
7149.40766388
7903.56241318
4274.55618583
4272.78745048
4272.56025258
4272.76072281
4272.93893177
4273.0759397
4273.18393978
4273.26520295
4273.32002782
4273.35717846
4273.37803794
4273.3868202
4273.38091023
4273.36388604
4273.33370698
4273.29515257
4273.24618838
4273.19195684
4273.129642
4273.0645091
4272.9930051
4272.92044026
4272.84264606
4272.76497687
4272.68279794
4272.60124824
4272.51554617
4272.43042761
4272.34115412
4272.25188976
4272.15823411
4272.06372074
4271.96455871
4271.86370796
4271.75812833
4271.65032311
4271.5380105
4271.42328018
4271.30449793
4271.1834565
4271.05899104
4270.93271613
4270.80374665
4270.67361932
4270.54156693
4270.40909648
4270.27542967
4270.14199323
4270.00797664
4269.87464824
4269.74122472
4269.60891648
4269.47701726
4269.34654144
4269.21681165
4269.08814846
4268.95993723
4268.8330835
4268.70750769
4268.58379501
4268.46232068
4268.34362965
4268.2281854
4268.11614869
4268.0081269
4267.90479975
4267.80693947
4267.71483601
4267.62857627
4267.54782362
4267.47199097
4267.40046086
4267.33255789
4267.26784237
4267.20623559
4267.14803404
4267.09361724
4267.04360336
4266.99838809
4266.95837573
4266.92389342
4266.89535772
4266.87329668
4266.85860025
4266.85261449
4266.85715068
4266.87443816
4266.90628949
4266.94961708
4266.9954268
4267.03053408
4267.05658587
4267.07716609
4267.1007696
4267.13219896
4267.17824703
4267.24021241
4267.32228825
4267.42432415
4267.54989458
4267.7050948
4267.89870927
4268.14538836
4268.45752058
4268.85197045
4269.32357549
4269.85400537
4270.41487016
4270.98603896
4271.53902581
4272.04232403
4272.45623319
4272.78808531
4273.00127292
4273.09753828
4273.12875959
4273.08131193
4272.90852919
4272.62968151
4272.30407969
4271.95800918
4271.56725494
4271.02466372
4270.27707636
4269.35917647
4268.2990413
4267.05973264
4265.56975084
4263.79641786
4261.68831874
4259.2136183
4256.29260367
4252.85564265
4248.7663824
4243.8906585
4238.02092421
4230.95033844
4222.43356255
4212.26717499
4200.2912543
4186.42117461
4170.63426791
4152.91879525
4133.27271968
4111.59734602
4087.76501151
4061.6954379
4033.37244436
4002.7661049
3969.89759475
3934.79327821
3897.56148221
3858.33232658
3817.35770429
3774.93446738
3731.54094672
3687.7333966
3644.32987356
3602.25920302
3562.80285682
3527.35742412
3497.75651166
3475.92151854
3464.32786977
3465.48828967
3482.59164861
3518.83644711
3578.38692347
3665.3236202
3784.63468551
3940.60821405
4138.30391448
4382.3878347
4677.41900635
5026.78066732
5436.03714183
5914.2111524
6478.0056044
7139.20979358
7903.35037362
4274.24869542
4271.55333922
4271.81932543
4272.43212277
4272.77298303
4272.96418737
4273.08333484
4273.15840884
4273.201143
4273.22549779
4273.23432374
4273.23260155
4273.21789737
4273.19391287
4273.15825767
4273.11526181
4273.06245733
4273.00450706
4272.9384987
4272.86936205
4272.79360353
4272.71641698
4272.63378815
4272.55099368
4272.46363696
4272.3769412
4272.28627092
4272.19655979
4272.10318812
4272.01058328
4271.91439587
4271.8184422
4271.71888351
4271.6189191
4271.51541206
4271.41097525
4271.30319091
4271.19419794
4271.08220281
4270.96896666
4270.85317615
4270.73632533
4270.61740976
4270.49775639
4270.37652458
4270.25493822
4270.13222713
4270.00951196
4269.88602781
4269.76284382
4269.63927933
4269.51638507
4269.39363766
4269.27202946
4269.15109925
4269.03139624
4268.91157895
4268.79140001
4268.67031605
4268.54855579
4268.4260389
4268.30319623
4268.1808267
4268.05996559
4267.94175318
4267.82718902
4267.71749641
4267.61349472
4267.51587868
4267.42474675
4267.34004594
4267.26122658
4267.18783987
4267.1195181
4267.05605256
4266.99753567
4266.94429799
4266.89660544
4266.8546342
4266.81858621
4266.788555
4266.76490959
4266.7480677
4266.73898162
4266.7388384
4266.74948741
4266.77257982
4266.80941379
4266.85795316
4266.90471208
4266.94189651
4266.96823157
4266.99143725
4267.01920925
4267.05836324
4267.11294136
4267.18601442
4267.27979045
4267.3960189
4267.53839094
4267.71251024
4267.92757727
4268.19538681
4268.53111938
4268.9424188
4269.42262051
4269.95654135
4270.53066556
4271.11637007
4271.68298711
4272.20664998
4272.64840963
4273.01623436
4273.3154414
4273.52245927
4273.6233126
4273.61690305
4273.45871386
4273.1758792
4272.84475306
4272.48116779
4272.06036158
4271.513481
4270.81326435
4269.96348877
4268.95823947
4267.76176018
4266.32669949
4264.61500543
4262.58230838
4260.18171207
4257.34015772
4253.97014857
4249.94154183
4245.10066376
4239.2447085
4232.15016822
4223.58600088
4213.35620633
4201.32387843
4187.42327013
4171.63848501
4153.96230438
4134.38615815
4112.79383298
4089.04962207
4063.09180883
4034.89522186
4004.43784033
3971.73262458
3936.8170417
3899.78742766
3860.78894668
3820.05490082
3777.9029349
3734.78304405
3691.28204595
3648.17729001
3606.44516755
3567.31182475
3532.24814571
3503.0138086
3481.63739448
3470.48834107
3472.22036342
3489.87994535
3526.84084131
3587.06260203
3674.83090148
3794.90904511
3951.94307609
4150.82742204
4396.37039409
4692.91210611
5043.88055645
5454.40621478
5933.6490394
6497.00221933
7157.55281183
7924.40926232
4273.67197959
4270.16804175
4271.26874716
4272.27443573
4272.67599913
4272.85552996
4272.95101103
4273.00506886
4273.030733
4273.0410377
4273.03744385
4273.02484921
4273.00073245
4272.96891986
4272.92673889
4272.87825307
4272.82065936
4272.75831226
4272.68808651
4272.61468478
4272.53458081
4272.45278118
4272.36532511
4272.27744529
4272.18480195
4272.09265416
4271.99645504
4271.90123947
4271.8024526
4271.70466273
4271.60355812
4271.50309291
4271.39945
4271.29592286
4271.18931943
4271.08233281
4270.97245329
4270.86183508
4270.74859532
4270.634472
4270.51805142
4270.40077237
4270.28154749
4270.16161866
4270.04011719
4269.91817979
4269.79507539
4269.6718826
4269.5479746
4269.42441916
4269.30073239
4269.17803465
4269.05600076
4268.93578059
4268.81708703
4268.70040291
4268.58470793
4268.47026926
4268.35684628
4268.24516127
4268.13542016
4268.02820784
4267.92370296
4267.82245704
4267.72497424
4267.63177153
4267.54340237
4267.46025245
4267.38269677
4267.31070537
4267.24410313
4267.18243324
4267.12526845
4267.07215738
4267.0231643
4266.97846247
4266.9383961
4266.90329163
4266.87338569
4266.84874357
4266.829492
4266.81583959
4266.80820202
4266.8074247
4266.81459973
4266.83118086
4266.85863898
4266.89803614
4266.94522199
4266.98938641
4267.01982075
4267.03831208
4267.05530384
4267.0782282
4267.11471272
4267.16610199
4267.23655363
4267.32647416
4267.44004682
4267.58125101
4267.75671524
4267.97850637
4268.25647694
4268.60579461
4269.02393504
4269.50361877
4270.0335909
4270.60518927
4271.1794966
4271.73534159
4272.27954065
4272.80052681
4273.25865435
4273.64422358
4273.95593238
4274.14450695
4274.17007334
4274.02046004
4273.74916261
4273.42076944
4273.04181707
4272.60175463
4272.05453477
4271.38533282
4270.57303808
4269.60682179
4268.44370541
4267.05663763
4265.39362862
4263.42495448
4261.07960338
4258.30097039
4254.97167776
4250.97893747
4246.1378547
4240.25762276
4233.09887631
4224.44985042
4214.12882984
4202.02224274
4188.08490079
4172.3003841
4154.67260759
4135.1648987
4113.65342435
4089.99439281
4064.15444114
4036.0880957
4005.79015408
3973.25496837
3938.54005656
3901.72138209
3862.96536022
3822.4827443
3780.61179919
3737.77903349
3694.59018503
3651.802382
3610.41008257
3571.62789423
3536.94777442
3508.13180708
3487.23209934
3476.62067122
3478.96140272
3497.28990114
3534.96191816
3595.85606748
3684.20404605
3804.73913398
3962.32777032
4162.11633806
4409.1087222
4708.36468237
5064.23995876
5482.24890575
5970.34069593
6540.24759886
7202.66236107
7965.73694181
4272.90861068
4268.87590576
4270.95936495
4272.17279256
4272.52124369
4272.66274753
4272.73754363
4272.78447267
4272.8070425
4272.81517688
4272.80902322
4272.79387586
4272.76750431
4272.73417674
4272.69120111
4272.64268827
4272.58567297
4272.52439641
4272.45561773
4272.38388901
4272.30563608
4272.22576437
4272.14032249
4272.05448226
4271.9639678
4271.87401073
4271.78012783
4271.68733355
4271.59111614
4271.49602899
4271.39781044
4271.30041559
4271.2000528
4271.10001613
4270.99715233
4270.89409723
4270.78837513
4270.68210829
4270.57340034
4270.46395146
4270.35233463
4270.23992738
4270.12563342
4270.0106301
4269.89406008
4269.77700642
4269.65878958
4269.54046178
4269.42148705
4269.30293267
4269.18438844
4269.06702323
4268.95054292
4268.83606863
4268.72335185
4268.61249567
4268.50182641
4268.39112914
4268.27993465
4268.16891558
4268.05855906
4267.95018334
4267.84476257
4267.7432059
4267.64626072
4267.55448944
4267.46849346
4267.38865948
4267.31546581
4267.24882229
4267.18864788
4267.13413106
4267.08477355
4267.03991105
4266.99939528
4266.9631622
4266.93167773
4266.90503209
4266.88339614
4266.8667722
4266.85526139
4266.84917544
4266.84897627
4266.85567422
4266.86999848
4266.89367555
4266.92722637
4266.9715539
4267.0221765
4267.06601235
4267.09541973
4267.11281208
4267.13024834
4267.15866896
4267.20141211
4267.25849331
4267.32987508
4267.41704264
4267.52346061
4267.65533198
4267.82332363
4268.03848006
4268.31666857
4268.66647686
4269.08289442
4269.55267866
4270.07218719
4270.6344383
4271.2140805
4271.7952708
4272.38615738
4272.98213182
4273.54235587
4274.03264302
4274.42409293
4274.65767006
4274.70266333
4274.57042337
4274.31995783
4273.99806684
4273.61772355
4273.17259006
4272.63761022
4271.99315304
4271.21746667
4270.28781753
4269.17093187
4267.83429119
4266.23489247
4264.33022715
4262.05482231
4259.33454631
4256.05558829
4252.08537642
4247.24036452
4241.31244287
4234.07509035
4225.32513487
4214.9062643
4202.72900096
4188.75911553
4172.98742632
4155.41490857
4135.97373202
4114.52474643
4090.95432152
4065.22488649
4037.29587395
4007.15314194
3974.79952849
3940.28313379
3903.69071508
3865.17649391
3824.96362756
3783.37416043
3740.849132
3697.97405057
3655.52605507
3614.47675118
3576.0709146
3541.7778184
3513.40630271
3492.98449439
3482.93906065
3485.89039491
3504.92629849
3543.3237962
3604.96687036
3693.96350989
3815.12686297
3973.44336651
4174.43504888
4423.29299143
4725.96138615
5087.82746755
5515.06401392
6014.19748978
6593.26531916
7259.38916358
8017.47059652
4272.0653897
4267.85385435
4270.80892596
4272.00418426
4272.26008369
4272.3854776
4272.46094036
4272.51896545
4272.55078251
4272.5665088
4272.56585587
4272.55522511
4272.53276993
4272.50331449
4272.46421382
4272.4197674
4272.36692129
4272.30996271
4272.24555124
4272.17825345
4272.10440423
4272.02893429
4271.94784776
4271.8663395
4271.78011389
4271.69441414
4271.60474501
4271.51605175
4271.42380564
4271.33245897
4271.23778426
4271.14364958
4271.04638766
4270.94920106
4270.84905221
4270.74852268
4270.6452236
4270.54117791
4270.43461371
4270.32712978
4270.21741342
4270.10675195
4269.99418512
4269.88080269
4269.76592298
4269.65055201
4269.53424278
4269.41799375
4269.30153638
4269.18592352
4269.07107979
4268.95806717
4268.84698577
4268.73890596
4268.63381414
4268.53151594
4268.43003276
4268.3284854
4268.22617996
4268.12343081
4268.02073859
4267.91951985
4267.82115493
4267.7268458
4267.63705542
4267.55199763
4267.47187169
4267.39706994
4267.32811034
4267.26539562
4267.20891999
4267.1584395
4267.11337564
4267.07327854
4267.03801126
4267.00788428
4266.9829498
4266.9635205
4266.94912592
4266.93968588
4266.93518346
4266.93574323
4266.94256609
4266.95605808
4266.9786059
4267.00955952
4267.05148583
4267.10241016
4267.15724716
4267.20394817
4267.23091559
4267.2442599
4267.25674306
4267.28115936
4267.31603146
4267.36044994
4267.414364
4267.48201263
4267.56893774
4267.68629699
4267.85011468
4268.07249909
4268.36355437
4268.72847598
4269.16142468
4269.64822993
4270.17772673
4270.74090872
4271.33587953
4271.96297414
4272.61983755
4273.28484368
4273.91795204
4274.47475812
4274.90559918
4275.15550277
4275.21318401
4275.10060156
4274.873977