/*--------------------------------*- C++ -*----------------------------------*\
| =========                 |                                                 |
| \\      /  F ield         | OpenFOAM: The Open Source CFD Toolbox           |
|  \\    /   O peration     | Version:  v1806                                 |
|   \\  /    A nd           | Web:      www.OpenFOAM.com                      |
|    \\/     M anipulation  |                                                 |
\*---------------------------------------------------------------------------*/
FoamFile
{
    version     2.0;
    format      ascii;
    class       surfaceScalarField;
    location    "25";
    object      phia;
}
// * * * * * * * * * * * * * * * * * * * * * * * * * * * * * * * * * * * * * //

dimensions      [0 3 -1 0 0 0 0];
oriented        oriented;


internalField   nonuniform List<scalar> 
24170
(
1.93102109449e-07
1.35504898205e-07
2.9295380713e-07
-9.12004223708e-08
2.81270117896e-07
1.73114644211e-08
2.93141934498e-07
-1.01199181081e-08
3.00903966169e-07
-5.57661230682e-09
3.10298028591e-07
-8.9604133547e-09
3.21189606811e-07
-9.93435419014e-09
3.33566302976e-07
-1.24791540447e-08
3.48287866608e-07
-1.45307013252e-08
3.64841127163e-07
-1.67583256722e-08
3.83608429026e-07
-1.87167545443e-08
4.05738458723e-07
-2.22521021252e-08
4.36559919804e-07
-3.07807948264e-08
4.83453443197e-07
-4.6880284156e-08
5.44843999118e-07
-6.11678835133e-08
5.95551843192e-07
-5.03487099254e-08
6.57630296258e-07
-6.14898653962e-08
-5.62229881584e-07
1.22064905824e-06
8.3101369867e-07
-3.36181426414e-07
3.95080331328e-07
3.57086983115e-07
4.88486479969e-07
-6.86304084636e-08
4.8741859375e-07
-5.53500662448e-09
5.04404208958e-07
-1.97160031863e-08
5.17097695551e-07
-2.0512914792e-08
5.33190297146e-07
-2.51483179531e-08
5.50410361724e-07
-2.97843220543e-08
5.70046705519e-07
-3.43401616736e-08
5.91586810098e-07
-3.86907455118e-08
6.15430872391e-07
-4.2843660917e-08
6.42854165425e-07
-4.99767175847e-08
6.771013467e-07
-6.5247664344e-08
7.19056997097e-07
-8.90032533628e-08
7.60437030921e-07
-1.0255741449e-07
7.95550164771e-07
-8.52976359665e-08
8.8656524631e-07
-1.52154369077e-07
-6.80200667033e-07
1.00490779783e-06
-1.45814421288e-07
1.79314096535e-07
4.7486877856e-07
-2.60006690738e-07
3.81254435409e-07
2.78527816357e-08
3.91724778433e-07
-1.536812493e-08
3.90864600135e-07
-1.79292621189e-08
3.94591102602e-07
-2.42806761199e-08
3.98489017442e-07
-2.86817659692e-08
4.03691996332e-07
-3.51046399197e-08
4.10622149357e-07
-4.11432016919e-08
4.19346718106e-07
-4.74515454916e-08
4.30925595668e-07
-5.42899256482e-08
4.472952863e-07
-6.62741036348e-08
4.70931686181e-07
-8.8713688653e-08
5.00625202094e-07
-1.18505978104e-07
5.32540775582e-07
-1.34179979441e-07
5.84493034022e-07
-1.36905032255e-07
6.99794967345e-07
-2.67101131571e-07
-6.98558259205e-07
7.18417013621e-07
9.14070704838e-07
-3.30003230707e-07
3.77777447938e-07
2.85092498194e-07
4.68610819174e-07
-5.73175273337e-08
4.65595615612e-07
-9.55553177496e-09
4.7626543646e-07
-2.67038854054e-08
4.81748626155e-07
-2.9038038994e-08
4.89719880182e-07
-3.62304212087e-08
4.97308781353e-07
-4.27863892271e-08
5.05677099356e-07
-4.9655052257e-08
5.14435425213e-07
-5.64205735109e-08
5.24605563027e-07
-6.45900601219e-08
5.37313144916e-07
-7.90715807151e-08
5.52498070646e-07
-1.03907247475e-07
5.66483947811e-07
-1.32419338101e-07
5.80191070712e-07
-1.47713088078e-07
6.17157405156e-07
-1.73623924722e-07
6.78992918377e-07
-3.28671875812e-07
-6.40700311698e-07
6.21384600413e-07
2.87624155918e-09
8.67953197937e-08
5.23226899955e-07
-2.34643887773e-07
4.29361909357e-07
3.7529265372e-08
4.52398715999e-07
-3.24778983704e-08
4.5308773323e-07
-2.70874775292e-08
4.62183221326e-07
-3.82470995551e-08
4.70167281446e-07
-4.40496654649e-08
4.7986705044e-07
-5.24850992534e-08
4.90755942849e-07
-6.03728429426e-08
5.03366385626e-07
-6.89093795726e-08
5.1878145485e-07
-7.97811688475e-08
5.37638967214e-07
-9.77096665734e-08
5.58242986446e-07
-1.2422212585e-07
5.77032287678e-07
-1.5088167167e-07
5.98864395224e-07
-1.69168216635e-07
6.3909981704e-07
-2.13485744945e-07
6.69495810616e-07
-3.58757575683e-07
-5.67237351721e-07
5.96271191436e-07
8.25969182933e-07
-2.82086991562e-07
4.14732045332e-07
1.81479331232e-07
5.00281193956e-07
-4.45161248254e-08
4.97031313274e-07
-2.72265570137e-08
5.0628984266e-07
-3.50822057075e-08
5.11146031395e-07
-4.24999656469e-08
5.17991097925e-07
-5.0539835817e-08
5.24927932456e-07
-5.92725684278e-08
5.32762559803e-07
-6.81165140278e-08
5.41902046913e-07
-7.79517772197e-08
5.53485933133e-07
-9.12510124269e-08
5.67640942358e-07
-1.11690215926e-07
5.82352481001e-07
-1.3871805038e-07
5.96439709809e-07
-1.64677206979e-07
6.16987894698e-07
-1.8939060784e-07
6.48968125599e-07
-2.45152343937e-07
6.57093538515e-07
-3.66635310518e-07
-5.0243618196e-07
5.9249512563e-07
1.93360853167e-07
4.65171332389e-09
5.4162138214e-07
-1.68334102417e-07
5.14598564403e-07
-1.79087619168e-08
5.2011452924e-07
-3.29812725652e-08
5.27070858259e-07
-4.20255234965e-08
5.34730393661e-07
-5.01572341343e-08
5.42955961393e-07
-5.86010682686e-08
5.51686004001e-07
-6.77972926825e-08
5.61152374264e-07
-7.73142433009e-08
5.71813604416e-07
-8.83072857867e-08
5.84197368861e-07
-1.03308195327e-07
5.97543770684e-07
-1.24680865583e-07
6.09807932514e-07
-1.50587582544e-07
6.21564116346e-07
-1.76004543728e-07
6.3868130802e-07
-2.0608597432e-07
6.58167905435e-07
-2.64271053137e-07
6.51178898974e-07
-3.59403260809e-07
-4.4870696125e-07
5.97904708186e-07
7.26203125205e-07
-2.02879142136e-07
5.25730115973e-07
3.32001034657e-08
5.46683137584e-07
-3.74723689941e-08
5.56372109668e-07
-4.15741287459e-08
5.62274517843e-07
-4.70925932396e-08
5.69084889226e-07
-5.64281316729e-08
5.76294940362e-07
-6.53574416048e-08
5.84142248644e-07
-7.53021438392e-08
5.92901915818e-07
-8.5717533224e-08
6.03020223563e-07
-9.81102998027e-08
6.14565050596e-07
-1.1449650658e-07
6.26302488387e-07
-1.36043766218e-07
6.36666176784e-07
-1.60547938298e-07
6.46910639239e-07
-1.85827981258e-07
6.5984943879e-07
-2.18603832389e-07
6.6837207532e-07
-2.72493844195e-07
6.53256193582e-07
-3.43976368135e-07
-4.04090626561e-07
6.08987247379e-07
4.87212096354e-07
-1.39301155459e-07
5.82111400409e-07
-6.42493104564e-08
5.857984222e-07
-4.2402143823e-08
5.90700406401e-07
-4.69784963329e-08
5.97764085925e-07
-5.42460220204e-08
6.04451553889e-07
-6.3007609813e-08
6.11587547258e-07
-7.22281120556e-08
6.19084209044e-07
-8.24536183274e-08
6.27336944846e-07
-9.35750716726e-08
6.36638164492e-07
-1.06991889381e-07
6.46710545752e-07
-1.24147186227e-07
6.56320989711e-07
-1.45212866855e-07
6.64597729288e-07
-1.68350213666e-07
6.72700242574e-07
-1.93450571533e-07
6.8067668041e-07
-2.26150546152e-07
6.8088985995e-07
-2.72386234857e-07
6.62204580459e-07
-3.24922539123e-07
-3.66091977295e-07
6.24780558107e-07
6.37652362647e-07
-1.84067810412e-07
6.14479602543e-07
-4.20727345888e-08
6.22339719961e-07
-5.02166024156e-08
6.28844221457e-07
-5.30207294737e-08
6.35265263714e-07
-6.0087702695e-08
6.41831826641e-07
-6.90155689049e-08
6.48625109346e-07
-7.85011606747e-08
6.55744554527e-07
-8.90637950803e-08
6.63438972873e-07
-1.00802022483e-07
6.71774376845e-07
-1.14875373533e-07
6.80228162398e-07
-1.32136488694e-07
6.87752929634e-07
-1.52207297732e-07
6.93904521101e-07
-1.74047730416e-07
6.99285812503e-07
-1.98309299239e-07
7.02254988659e-07
-2.28730025946e-07
6.9663228783e-07
-2.6643668704e-07
6.76748923405e-07
-3.04657519346e-07
-3.33144275071e-07
6.44408219065e-07
6.53073426562e-07
-2.03780270178e-07
6.59299028754e-07
-5.11445043983e-08
6.63692468544e-07
-5.60953102482e-08
6.69512242729e-07
-5.93907177726e-08
6.7553221882e-07
-6.61311255533e-08
6.81666928167e-07
-7.48858543046e-08
6.87969793108e-07
-8.4369569964e-08
6.9449518974e-07
-9.50997785347e-08
7.01395676993e-07
-1.07173381994e-07
7.08498233092e-07
-1.21476044497e-07
7.15225013343e-07
-1.38295943012e-07
7.20688348536e-07
-1.57205018208e-07
7.24688542191e-07
-1.77439542969e-07
7.27044331726e-07
-2.00200888676e-07
7.25625430906e-07
-2.26817241133e-07
7.16090534488e-07
-2.56633630417e-07
6.96069469252e-07
-2.841846172e-07
-3.03892873473e-07
6.67583744861e-07
5.895064852e-07
-2.22426879889e-07
5.9081664935e-07
-5.47045088188e-08
5.93978780701e-07
-6.03465498574e-08
5.98381538572e-07
-6.41037452053e-08
6.03024251986e-07
-7.05847816271e-08
6.07762962689e-07
-7.92448508289e-08
6.12598385798e-07
-8.86452129033e-08
6.17517991175e-07
-9.94740627216e-08
6.22554319309e-07
-1.11632210048e-07
6.27452867821e-07
-1.25855387438e-07
6.31735678817e-07
-1.42063416171e-07
6.34888103233e-07
-1.59598260255e-07
6.36498604053e-07
-1.78694357706e-07
6.36311202948e-07
-1.99301449756e-07
6.32370040359e-07
-2.22643168091e-07
6.22577508182e-07
-2.46368141076e-07
6.0607023731e-07
-2.67301827543e-07
-2.8134267677e-07
5.84412237874e-07
7.16261108046e-07
-2.42061304971e-07
7.17566855934e-07
-5.81541336921e-08
7.20403760514e-07
-6.43530776557e-08
7.24757812387e-07
-6.88908803059e-08
7.29436677207e-07
-7.52603980745e-08
7.34249351533e-07
-8.36864578169e-08
7.39075154763e-07
-9.30282290452e-08
7.43890451142e-07
-1.03694545649e-07
7.48548384824e-07
-1.15800803662e-07
7.52767013908e-07
-1.29513460386e-07
7.56122423882e-07
-1.44595823209e-07
7.57846765085e-07
-1.60837016982e-07
7.57850713273e-07
-1.7785242159e-07
7.55023545661e-07
-1.96209942115e-07
7.48246663324e-07
-2.15153195776e-07
7.35535051471e-07
-2.33571730888e-07
7.17481160137e-07
-2.48206564807e-07
-2.58153059531e-07
6.945980013e-07
8.68862573832e-07
-2.60031744749e-07
8.70682669571e-07
-6.15944819671e-08
8.73108767233e-07
-6.80128749914e-08
8.77060805109e-07
-7.33530843653e-08
8.81425960799e-07
-7.96913891977e-08
8.85857793216e-07
-8.79601184093e-08
8.90265964623e-07
-9.6951635362e-08
8.94369225182e-07
-1.07440496593e-07
8.98076335048e-07
-1.18912838268e-07
9.00976632693e-07
-1.31810921958e-07
9.02618798583e-07
-1.45365540219e-07
9.02404037522e-07
-1.59838552555e-07
8.99772296973e-07
-1.74544755415e-07
8.94041952755e-07
-1.89799523386e-07
8.83798963443e-07
-2.0455385421e-07
8.68761889551e-07
-2.17760523519e-07
8.48556021736e-07
-2.27800217053e-07
-2.33661923148e-07
8.25544359523e-07
1.05440450823e-06
-2.76190533795e-07
1.05499098238e-06
-6.38590670423e-08
1.0568743669e-06
-7.08186539418e-08
1.05998552991e-06
-7.70380143643e-08
1.06342187963e-06
-8.33247391644e-08
1.06689411472e-06
-9.11829903963e-08
1.07000915183e-06
-9.99212035872e-08
1.07274884057e-06
-1.09571875416e-07
1.07447560303e-06
-1.20391715542e-07
1.07540445679e-06
-1.31602333208e-07
1.07429938476e-06
-1.43757279964e-07
1.07145596284e-06
-1.55650167513e-07
1.06533608542e-06
-1.68112374765e-07
1.05631365251e-06
-1.79643061703e-07
1.04263224797e-06
-1.90723916773e-07
1.02514819471e-06
-1.9933629727e-07
1.00354769189e-06
-2.05836296321e-07
-2.08626827918e-07
9.79003049977e-07
1.26668639837e-06
-2.76982701805e-07
1.27776551262e-06
-7.6152393784e-08
1.27903630278e-06
-7.31229784275e-08
1.28057254101e-06
-7.91060471174e-08
1.28250390083e-06
-8.52627825336e-08
1.28398989187e-06
-9.26255937932e-08
1.28515755925e-06
-1.00537590456e-07
1.28518763665e-06
-1.09433259716e-07
1.28452097849e-06
-1.1872278422e-07
1.28185173621e-06
-1.28592244774e-07
1.27797126671e-06
-1.38325621272e-07
1.27076036926e-06
-1.48250394735e-07
1.26166540591e-06
-1.57427005864e-07
1.24808729757e-06
-1.6616867082e-07
1.23222551238e-06
-1.73237265024e-07
1.21132640001e-06
-1.7893467476e-07
1.18941077595e-06
-1.82036330588e-07
-1.83713590213e-07
1.16353024231e-06
1.59939688554e-06
-3.32182216976e-07
1.54670165621e-06
-2.46986750964e-08
1.54308613424e-06
-7.01783725881e-08
1.54349716725e-06
-7.9685452875e-08
1.54267282666e-06
-8.42902714112e-08
1.54099538414e-06
-9.04958446685e-08
1.5384380015e-06
-9.74854410778e-08
1.53483266154e-06
-1.05165721845e-07
1.52977811662e-06
-1.13036768e-07
1.52316351127e-06
-1.20999882614e-07
1.51427611775e-06
-1.28706685139e-07
1.50315613097e-06
-1.36063120998e-07
1.48901379557e-06
-1.42678547464e-07
1.4723753698e-06
-1.48404179396e-07
1.45239368681e-06
-1.52845461956e-07
1.43055814039e-06
-1.55926091343e-07
1.40590465029e-06
-1.57347687394e-07
-1.56929263766e-07
1.38067706485e-06
1.63419595662e-06
-8.44612437296e-08
1.83860934847e-06
-2.30047199358e-07
1.86663159105e-06
-9.87445232254e-08
1.86357062701e-06
-7.62975785234e-08
1.85683753652e-06
-7.71331079411e-08
1.8497823235e-06
-8.26164452443e-08
1.84202217541e-06
-8.90615860411e-08
1.83340538715e-06
-9.55868596947e-08
1.82301702142e-06
-1.02003522015e-07
1.81122058661e-06
-1.08082015091e-07
1.79682229745e-06
-1.13710169306e-07
1.78072683194e-06
-1.18715417268e-07
1.76147164819e-06
-1.22935723059e-07
1.74068318549e-06
-1.26220144347e-07
1.71648297739e-06
-1.28378571662e-07
1.69143737607e-06
-1.29283187467e-07
1.66275413532e-06
-1.28946819663e-07
-1.27986527455e-07
1.6358030757e-06
3.0014002557e-06
-7.91160861163e-07
2.43107852677e-06
3.38380964192e-07
2.3057845418e-06
2.69033397357e-08
2.27050211777e-06
-4.13549114098e-08
2.25429847065e-06
-5.99441358652e-08
2.24171146642e-06
-6.95278460575e-08
2.22973392967e-06
-7.5921541988e-08
2.21688483595e-06
-8.18828909358e-08
2.20251136626e-06
-8.66829904097e-08
2.18689854451e-06
-9.14254246991e-08
2.16904207245e-06
-9.51569299431e-08
2.15028766836e-06
-9.86434774091e-08
2.12891470512e-06
-1.01074819043e-07
2.10732492016e-06
-1.03084086915e-07
2.08323907156e-06
-1.04075498131e-07
2.06062585806e-06
-1.04753275628e-07
2.03591847569e-06
-1.04620320724e-07
-1.03224416576e-07
2.01364889918e-06
5.30084816083e-07
3.55363481437e-07
1.45234988467e-06
-5.85262744248e-07
1.57015433683e-06
-9.40848799069e-08
1.57797187618e-06
-4.84821774396e-08
1.56836390655e-06
-5.16794950193e-08
1.55872333769e-06
-5.78955789507e-08
1.54552239727e-06
-6.38116694245e-08
1.53352465281e-06
-6.76038456324e-08
1.5176064883e-06
-7.2004841377e-08
1.50322898769e-06
-7.47939531731e-08
1.48489196188e-06
-7.80621671389e-08
1.46836830565e-06
-7.9834866751e-08
1.44785186571e-06
-8.1959660741e-08
1.42976951893e-06
-8.25910497336e-08
1.40765381618e-06
-8.34426374406e-08
1.38804629793e-06
-8.25983566445e-08
1.36337835776e-06
-8.18874335174e-08
-8.13853313273e-08
1.34395494728e-06
2.85370448481e-06
-1.03551900687e-06
1.53132118182e-06
7.34920185262e-07
1.4468770902e-06
-8.54237520694e-09
1.44585444149e-06
-4.89187110939e-08
1.44791761135e-06
-5.29557845873e-08
1.44248833194e-06
-5.35581094063e-08
1.43616613979e-06
-5.58156592338e-08
1.42657038319e-06
-5.89779604117e-08
1.41740548522e-06
-6.1363645128e-08
1.40587444238e-06
-6.39514092575e-08
1.39496072056e-06
-6.57650453189e-08
1.38177389768e-06
-6.73771218096e-08
1.36952359758e-06
-6.81821890721e-08
1.35483368091e-06
-6.86724180386e-08
1.34157644616e-06
-6.84316240314e-08
1.32624560487e-06
-6.83507000782e-08
1.31412509776e-06
-6.78535586392e-08
-6.4768148883e-08
1.29581443859e-06
-6.94168776303e-07
9.32010002772e-07
1.15462518582e-06
-1.11276293137e-06
1.18344449708e-06
-3.87895213695e-08
1.16950186089e-06
-3.42715103476e-08
1.15218972799e-06
-3.5720374345e-08
1.14297477989e-06
-4.30333986712e-08
1.13210767769e-06
-4.51183641711e-08
1.12103061494e-06
-4.73736171465e-08
1.10932919139e-06
-4.94571132157e-08
1.09721315595e-06
-5.15950445748e-08
1.08516266231e-06
-5.30867617331e-08
1.07256216255e-06
-5.46163540271e-08
1.06046878177e-06
-5.52064544576e-08
1.04792869676e-06
-5.59701104502e-08
1.03598150429e-06
-5.56527536442e-08
1.02294309486e-06
-5.51605455351e-08
1.00853257331e-06
-5.31572753812e-08
-5.5374214339e-08
9.99792707514e-07
3.52069670495e-06
-1.47595409029e-06
1.06714831699e-06
1.34275536233e-06
1.11501354329e-06
-8.37232411579e-08
1.12430072647e-06
-4.26914110804e-08
1.13524880482e-06
-4.55470105977e-08
1.12933138768e-06
-3.68820057157e-08
1.1237920746e-06
-3.9005458186e-08
1.11649604723e-06
-3.96424199368e-08
1.10811777242e-06
-4.09427886272e-08
1.09928051524e-06
-4.18668412407e-08
1.08909138766e-06
-4.29361169444e-08
1.07918561228e-06
-4.33956448517e-08
1.06778860521e-06
-4.4049990237e-08
1.057323475e-06
-4.37304088511e-08
1.0450271089e-06
-4.4025235694e-08
1.03554204966e-06
-4.41377651374e-08
1.02713782616e-06
-4.57198924408e-08
-4.0800964954e-08
1.01408603811e-06
-1.82199743898e-06
1.3151122375e-06
1.06524673378e-06
-1.54119828786e-06
8.93078452785e-07
8.9621193462e-08
8.87829208658e-07
-3.53780304852e-08
8.62050301551e-07
-1.84925499124e-08
8.57999298163e-07
-3.14755984326e-08
8.48579507776e-07
-2.90169006935e-08
8.39962986984e-07
-3.0601726032e-08
8.3067083487e-07
-3.12139295972e-08
8.21213394554e-07
-3.21022916472e-08
8.11610538373e-07
-3.27736622834e-08
8.01855038047e-07
-3.32309668713e-08
7.92432779598e-07
-3.34496546262e-08
7.82729400624e-07
-3.37387468037e-08
7.73226048458e-07
-3.37123256785e-08
7.62203676504e-07
-3.29047759182e-08
7.4731943116e-07
-3.0480703266e-08
-3.55031695912e-08
7.42412424034e-07
3.43411336786e-06
-1.27238363934e-06
5.50273259119e-07
1.34701952017e-06
8.97012420033e-07
-2.53564910515e-07
8.65386225275e-07
-1.16939654086e-09
8.88897846936e-07
-4.06951428408e-08
8.76802860328e-07
-1.86810987565e-08
8.72999011029e-07
-2.44099343243e-08
8.66067565863e-07
-2.31955767527e-08
8.59639648496e-07
-2.44501637986e-08
8.53006981298e-07
-2.51392678743e-08
8.46572107763e-07
-2.57951843083e-08
8.40160005449e-07
-2.62243848153e-08
8.33953555416e-07
-2.66685523513e-08
8.27784391181e-07
-2.69681873508e-08
8.21556583472e-07
-2.70254694294e-08
8.1651085929e-07
-2.76897372767e-08
8.1722896812e-07
-3.01138176986e-08
-2.19498251013e-08
8.03639549791e-07
-1.48000998733e-06
9.45179664712e-07
1.06095622387e-06
-1.18955348838e-06
6.28024100373e-07
1.82348218637e-07
6.88020999308e-07
-5.87978786488e-08
6.50072705376e-07
-5.73957877033e-10
6.53972102177e-07
-2.13526837263e-08
6.44548343987e-07
-1.43188986048e-08
6.38532259445e-07
-1.67563994976e-08
6.30847996707e-07
-1.64998466054e-08
6.2333410336e-07
-1.71623883041e-08
6.15380450182e-07
-1.7523974697e-08
6.06817525571e-07
-1.70918813821e-08
5.97850880999e-07
-1.71303360285e-08
5.88462414722e-07
-1.71633668221e-08
5.78778125799e-07
-1.70323705288e-08
5.67427198099e-07
-1.6061437206e-08
5.50224989088e-07
-1.23229075742e-08
-2.11973733488e-08
5.50452571259e-07
2.42905733156e-06
-8.41090863518e-07
3.83815249601e-07
8.60060225706e-07
7.36419718324e-07
-1.67346814626e-07
6.76878539373e-07
6.41350071505e-09
6.96583494106e-07
-2.09024474472e-08
6.82880328607e-07
-6.81587333872e-09
6.80337142806e-07
-1.10795562929e-08
6.73966776307e-07
-9.99483356853e-09
6.68688293399e-07
-1.09456619585e-08
6.63248902083e-07
-1.15359181172e-08
6.58553887725e-07
-1.1604645803e-08
6.53372999488e-07
-1.20112703166e-08
6.48842899353e-07
-1.2269612401e-08
6.44800256649e-07
-1.27756617279e-08
6.41175177287e-07
-1.32370444844e-08
6.39721191945e-07
-1.44082754426e-08
6.46958675818e-07
-1.91808495839e-08
-9.08933075416e-09
6.3606119478e-07
-8.39017815328e-07
5.58884566544e-07
7.64457336368e-07
-7.3884618447e-07
4.76257419322e-07
1.2532205609e-07
5.16778335686e-07
-2.89301788897e-08
4.9410953387e-07
2.65921691266e-09
4.95027705935e-07
-7.16139433057e-09
4.88919824222e-07
-4.26128871823e-09
4.84681166878e-07
-5.3782396023e-09
4.79487950771e-07
-5.59854036203e-09
4.74790653632e-07
-5.94405226417e-09
4.6998468201e-07
-6.11658869997e-09
4.64627890238e-07
-6.41412804146e-09
4.59218018804e-07
-6.74736539186e-09
4.53836804583e-07
-7.14178442293e-09
4.48258461597e-07
-7.54778346639e-09
4.40979880653e-07
-7.10358223172e-09
4.23982082084e-07
-1.39918042543e-09
-1.44574588155e-08
4.29947763344e-07
1.31716247147e-06
-2.68406975487e-07
4.40692534917e-07
1.42976253215e-07
6.05245064204e-07
-3.40177822482e-08
5.73798896724e-07
8.41522690605e-09
5.80907623381e-07
-3.15631047392e-09
5.74335580868e-07
1.35976227585e-10
5.71963529383e-07
-1.12261205694e-09
5.67960722239e-07
-9.5224824332e-10
5.64121087177e-07
-1.37260459353e-09
5.60353438214e-07
-1.28342298014e-09
5.56518592836e-07
-1.37340757554e-09
5.52119599245e-07
-1.78892531345e-09
5.47516275438e-07
-1.99595368825e-09
5.42597997469e-07
-1.98872973424e-09
5.36851527833e-07
-1.71351723603e-09
5.32115338279e-07
-2.13306028134e-09
5.38444388944e-07
-7.21047029666e-09
1.09488171771e-08
5.13955661073e-07
1.52269812904e-07
2.95654144162e-07
2.62206433327e-07
2.70753425574e-07
2.67670090376e-07
2.67896623276e-07
2.6682981913e-07
2.65917987254e-07
2.64664937041e-07
2.63538355239e-07
2.62208655331e-07
2.60439026948e-07
2.58490997102e-07
2.56527189778e-07
2.54838269611e-07
2.52819204075e-07
2.45832226113e-07
2.56803723083e-07
1.69693698276e-07
-1.60467627617e-07
2.11366455944e-07
-2.48489120525e-08
1.57462640956e-07
5.70109915494e-08
1.01674082773e-07
6.52659011924e-08
5.00822606519e-08
5.05835997354e-08
1.81069351865e-08
3.77151301554e-08
-1.26249725276e-08
2.8491684655e-08
-3.08214850825e-08
2.26421161203e-08
-5.18193811609e-08
1.88833797108e-08
-6.45865989059e-08
1.69087799068e-08
-8.20325429873e-08
1.5722300728e-08
-9.30952062332e-08
1.5300777884e-08
-1.09401900166e-07
1.49117498836e-08
-1.19844112204e-07
1.48025103236e-08
-1.35599291963e-07
1.4407509811e-08
-1.45412094999e-07
1.41542814892e-08
-1.60647677074e-07
1.3539008318e-08
-1.69564049485e-07
1.31298605857e-08
-1.83516557645e-07
1.23656335393e-08
-1.91298129157e-07
1.18414548739e-08
-2.03983616936e-07
1.10266727847e-08
-2.10588071034e-07
1.05352827473e-08
-2.21616767785e-07
9.72952078615e-09
-2.27081853883e-07
9.25389525164e-09
-2.3649661372e-07
8.50688781815e-09
-2.41159986217e-07
8.04228916258e-09
-2.49561889413e-07
7.28484619085e-09
-2.53555231701e-07
6.85891077413e-09
-2.60704535599e-07
6.19463299475e-09
-2.64104335052e-07
5.82179122313e-09
-2.70452559609e-07
5.19199192971e-09
-2.73380057494e-07
4.88872976285e-09
-2.78712911911e-07
4.38109131247e-09
-2.8122502734e-07
4.13363444015e-09
-2.86074592686e-07
3.66923038636e-09
-2.88290201061e-07
3.50395210946e-09
-2.92440963261e-07
3.13582239809e-09
-2.94335052219e-07
3.01293369692e-09
-2.9787179943e-07
2.6997112784e-09
-2.99459093809e-07
2.59982012538e-09
-3.02465306765e-07
2.30995591906e-09
-3.03778643348e-07
2.19712934927e-09
-3.06352462264e-07
1.89541880899e-09
-3.07377969576e-07
1.74427853444e-09
-3.09578905997e-07
1.40165511158e-09
-3.10266975717e-07
1.19953882756e-09
-3.12012918196e-07
7.96425329437e-10
-3.12291949271e-07
5.18778064584e-10
-3.13515235471e-07
4.69319939453e-11
-3.13313078452e-07
-3.02051182403e-10
-3.13894529029e-07
-8.52171563181e-10
-3.13168818985e-07
-1.27534677044e-09
-3.1298724889e-07
-1.86721732087e-09
-3.11810261075e-07
-2.36871252337e-09
-3.11040942032e-07
-3.00516100881e-09
-3.09418254936e-07
-3.56952183056e-09
-3.0775966708e-07
-4.34135033245e-09
-3.05462313057e-07
-4.97657612545e-09
-3.02942683972e-07
-5.62460341881e-09
-3.00094829744e-07
-6.186219495e-09
-2.96811902152e-07
-6.67631291365e-09
-2.93482782315e-07
-7.12791136214e-09
-2.89566011149e-07
-7.45438580248e-09
-2.85913007374e-07
-7.78514627693e-09
-2.81562782262e-07
-7.96381377063e-09
-2.77716596785e-07
-8.2482098609e-09
-2.73024424239e-07
-8.36685461609e-09
-2.68899299916e-07
-8.65763916305e-09
-2.636867927e-07
-8.76310689374e-09
-2.59121204281e-07
-9.10811223383e-09
-2.53315735215e-07
-9.24155141637e-09
-2.48422603622e-07
-9.67184429925e-09
-2.42068861749e-07
-9.82958951241e-09
-2.37105331488e-07
-1.04108869366e-08
-2.30683805018e-07
-1.05959640759e-08
-2.26172634908e-07
-1.12556061496e-08
-2.20042513173e-07
-1.14669370753e-08
-2.15751121181e-07
-1.21086850478e-08
-2.09137018154e-07
-1.20551955505e-08
-2.0509386526e-07
-1.26668864293e-08
-1.98671998284e-07
-1.2514219623e-08
-1.94951471526e-07
-1.29634823743e-08
-1.88346354204e-07
-1.23743573348e-08
-1.85932844927e-07
-1.27424960014e-08
-1.81137650755e-07
-1.19347110387e-08
-1.80504945195e-07
-1.19799422511e-08
-1.76407398723e-07
-1.05391010162e-08
-1.72364460628e-07
-1.00963265702e-08
-1.61174795502e-07
-8.99257454407e-09
-1.44183313501e-07
-6.61150329049e-09
-1.31004507469e-07
-4.26522353483e-09
-1.22888958855e-07
-1.41299056967e-09
-1.18800003836e-07
1.41374096054e-09
-1.16198630377e-07
4.4249360994e-09
-1.1571552004e-07
7.30235341882e-09
-1.1581851045e-07
1.03782325497e-08
-1.18130420424e-07
1.31510448262e-08
-1.21260252992e-07
1.59489901582e-08
-1.27247712504e-07
1.83483717443e-08
-1.35324395424e-07
2.04219808406e-08
-1.48257773134e-07
2.21292404627e-08
-1.70009128468e-07
2.12272458598e-08
-1.96848509323e-07
1.97010155458e-08
-2.31373830035e-07
1.2577285842e-08
-2.58119233342e-07
6.30655931367e-09
-2.81136657333e-07
-6.16626356088e-09
-2.83440398392e-07
-1.6135177793e-08
-2.75274608919e-07
-3.30131152937e-08
-2.42550792703e-07
-4.40998618471e-08
-2.04913596517e-07
-5.777410182e-08
-1.47005917765e-07
-6.26032862223e-08
-8.99309761865e-08
-7.27091435266e-08
-1.43648764814e-08
-7.06535720541e-08
5.20170199627e-08
-7.31366994247e-08
1.31988812864e-07
-5.96007880929e-08
2.13069969299e-07
-7.22650530532e-08
3.48257893882e-07
-9.11309823634e-08
5.57135838669e-07
-1.61212119636e-07
9.10500103147e-07
-2.6418833352e-07
1.39520789989e-06
-4.22467026867e-07
1.93939420077e-06
-4.97810012907e-07
2.64236374618e-06
-7.64800754699e-07
3.6592924216e-06
-1.150640948e-06
4.09556108397e-06
-6.49691510419e-07
4.00279652196e-06
-9.90643329963e-08
3.13172981569e-06
6.97728753246e-07
2.33085928205e-06
7.25680713334e-07
1.74248452027e-06
4.85355563755e-07
1.405215259e-06
3.27051558811e-07
1.1723855297e-06
1.8799315252e-07
1.11347584921e-06
1.25344886178e-07
1.11235537542e-06
4.13733487213e-08
1.29167628915e-06
1.73791714634e-08
1.55260169374e-06
-4.63497107589e-08
2.05340089999e-06
-5.1334409186e-08
2.70353970034e-06
-9.79126940797e-08
3.65352771237e-06
-8.72467848695e-08
4.81481539965e-06
-1.02446108376e-07
6.24715557703e-06
-6.84921297281e-08
7.82797705162e-06
-4.23896111669e-08
9.50597908222e-06
-6.94934654646e-09
1.12254214084e-05
2.41603483664e-08
1.29682596325e-05
2.53400797113e-08
1.48190443734e-05
-8.40641697685e-09
1.67832794972e-05
-1.00517556486e-07
1.89021612316e-05
-1.53762075168e-07
2.11009331978e-05
-2.36230851742e-07
2.34502188343e-05
-2.84383076781e-07
2.58316719767e-05
-3.91275176585e-07
2.83420804744e-05
-4.46740922963e-07
3.07837927135e-05
-5.90755815124e-07
3.32954698091e-05
-6.49285128958e-07
3.55534110555e-05
-8.36166776263e-07
3.77605388418e-05
-8.84195277978e-07
3.93934319547e-05
-1.11253405238e-06
4.0740971329e-05
-1.12329534983e-06
4.09806412741e-05
-1.38016675105e-06
4.05261134014e-05
-1.30965335451e-06
3.81482607274e-05
-1.56851795719e-06
3.44741578329e-05
-1.35363301001e-06
2.77628922721e-05
-1.57334631539e-06
1.90065930513e-05
-1.13530872832e-06
5.84994015927e-06
-1.28472818568e-06
-1.01562113238e-05
-5.80033932414e-07
-3.21732277579e-05
-6.38476509255e-07
-5.79678082812e-05
3.80290316317e-07
-9.17117422714e-05
3.98447048902e-07
-0.000130340404178
1.66632576766e-06
-0.000179133142653
1.59716514092e-06
-0.000234063701889
2.94185348114e-06
-0.000301687126418
2.71783435186e-06
-0.000377710543367
4.70437914665e-06
-0.000470925721632
5.8942073876e-06
-0.000576340194192
9.52025266706e-06
-0.000704168895083
1.24977342872e-05
-0.00084942187423
1.87537722809e-05
-0.00102126001894
2.28741992691e-05
-0.00121124885663
3.07533316283e-05
-0.00142387942727
3.58841278344e-05
8.17967838534e-06
-0.00160985661385
4.72148881926e-08
-2.02033538609e-07
-3.20987517502e-09
3.03262359041e-08
-1.85994413568e-08
7.41865550006e-08
-1.22524221515e-08
6.26046632104e-08
-3.77523695797e-09
4.28932295297e-08
9.80670246035e-09
2.72134078346e-08
2.08815806018e-08
1.74917181892e-08
3.36578635183e-08
1.25322699572e-08
4.16251546738e-08
1.0731073777e-08
5.03554693328e-08
1.08026190113e-08
5.41801472623e-08
1.18073063134e-08
5.90153937762e-08
1.32309176161e-08
5.92779366221e-08
1.46838604466e-08
6.08990335364e-08
1.60468161481e-08
5.81578637458e-08
1.71444335953e-08
5.70960011593e-08
1.80237549703e-08
5.18048034424e-08
1.8586174615e-08
4.8526726403e-08
1.89634174702e-08
4.1428985309e-08
1.90781849995e-08
3.67024133681e-08
1.90630529956e-08
2.8508518714e-08
1.88179450642e-08
2.27386338344e-08
1.84997287136e-08
1.42322710706e-08
1.80206698819e-08
8.25554061783e-09
1.74712249278e-08
-9.66131918166e-11
1.6752542334e-08
-6.19112717224e-09
1.59793753932e-08
-1.41016576999e-08
1.50936974598e-08
-1.97110725134e-08
1.41867873085e-08
-2.67302858535e-08
1.31739955328e-08
-3.17094392845e-08
1.21576660702e-08
-3.76467830417e-08
1.10854826886e-08
-4.15567070726e-08
1.00450771041e-08
-4.61487520588e-08
8.93737911807e-09
-4.89274213579e-08
7.87168278462e-09
-5.21191142982e-08
6.76537012237e-09
-5.35708894122e-08
5.71065130893e-09
-5.51857558466e-08
4.61838194526e-09
-5.51203413267e-08
3.58340712186e-09
-5.50143015682e-08
2.49445345192e-09
-5.33355472284e-08
1.43969806266e-09
-5.14656064165e-08
3.17737658934e-10
-4.8099115441e-08
-7.91343455676e-10
-4.44451533751e-08
-1.98079030937e-09
-3.93293406044e-08
-3.17082223162e-09
-3.38738471735e-08
-4.4495882891e-09
-2.69700547327e-08
-5.73355424219e-09
-1.96662103976e-08
-7.10580882834e-09
-1.09240599964e-08
-8.48614032391e-09
-1.75627206664e-09
-9.95945540825e-09
8.75867736742e-09
-1.14312924586e-08
1.97874784128e-08
-1.29717873321e-08
3.20540919165e-08
-1.45097609946e-08
4.48375624773e-08
-1.60980331165e-08
5.86197698969e-08
-1.76570910372e-08
7.28716966881e-08
-1.9192860826e-08
8.77437398711e-08
-2.05396800885e-08
1.02876209246e-07
-2.19177621293e-08
1.18564828555e-07
-2.33610704368e-08
1.34741025267e-07
-2.47423201154e-08
1.5124141803e-07
-2.59190480077e-08
1.68108278397e-07
-2.69136928059e-08
1.85074619027e-07
-2.77573707508e-08
2.02388433908e-07
-2.84440007964e-08
2.19649262022e-07
-2.90496683871e-08
2.37206780111e-07
-2.95081325092e-08
2.54596200766e-07
-2.99064279368e-08
2.72229271703e-07
-3.01780476586e-08
2.89624299954e-07
-3.04441126965e-08
3.0729842114e-07
-3.06083768189e-08
3.24664818267e-07
-3.08257123425e-08
3.42266621259e-07
-3.09436738451e-08
3.59304892974e-07
-3.11638252965e-08
3.76442705159e-07
-3.12728908202e-08
3.92701138072e-07
-3.1500223199e-08
4.08721495057e-07
-3.15989244549e-08
4.23281866624e-07
-3.18286477996e-08
4.37622384853e-07
-3.17288578327e-08
4.50597334376e-07
-3.16679545189e-08
4.63356405471e-07
-3.12467232618e-08
4.74215794634e-07
-3.09086073254e-08
4.84834155545e-07