/*--------------------------------*- C++ -*----------------------------------*\
| =========                 |                                                 |
| \\      /  F ield         | OpenFOAM: The Open Source CFD Toolbox           |
|  \\    /   O peration     | Version:  v1806                                 |
|   \\  /    A nd           | Web:      www.OpenFOAM.com                      |
|    \\/     M anipulation  |                                                 |
\*---------------------------------------------------------------------------*/
FoamFile
{
    version     2.0;
    format      ascii;
    class       volScalarField;
    location    "25";
    object      rho;
}
// * * * * * * * * * * * * * * * * * * * * * * * * * * * * * * * * * * * * * //

dimensions      [0 0 0 0 0 0 0];


internalField   nonuniform List<scalar> 
12225
(
0.58537836201
0.649874364519
0.62903182061
0.629314336216
0.61728205878
0.612991543486
0.607021746792
0.603006225681
0.600907277208
0.60191161348
0.607485005722
0.616232490845
0.623277140163
0.635156134832
0.658776044145
0.689946144293
0.730716467392
0.765003876013
0.761106177063
0.699210926947
0.666660265983
0.671349991563
0.662243732423
0.659909189674
0.656223818514
0.653985226492
0.652823206781
0.653420275529
0.657130837786
0.66369917773
0.670539298448
0.680605097841
0.698545661541
0.72202392204
0.748083614832
0.75081031933
0.605363418303
0.680884006083
0.661737861927
0.663719133393
0.653871897618
0.650569438356
0.646068514477
0.643097960623
0.64110280539
0.640590502861
0.642245777809
0.646186116048
0.651894996508
0.661003327936
0.675987852328
0.695026751452
0.712847402158
0.708101442721
0.674477264306
0.692762659856
0.66623759716
0.672076489718
0.663276613642
0.661581702182
0.658439407809
0.656602661108
0.655418061964
0.655297641803
0.656556684949
0.659349659831
0.663805209416
0.670885744211
0.681583234667
0.693898465395
0.702008513074
0.692435430951
0.638331963408
0.692593624187
0.667385586664
0.674473023158
0.666478983155
0.665738924547
0.663488135502
0.662572908499
0.662330405562
0.663081762876
0.664949177231
0.668011568401
0.672488726427
0.678843281012
0.687068586114
0.694891190065
0.697181654206
0.686670481334
0.652956378463
0.696372635168
0.670758035508
0.679154193031
0.671748970139
0.671733190831
0.670032558247
0.669617276773
0.669807231002
0.670863928651
0.67282833058
0.675732458502
0.679734273306
0.684956355865
0.690844449901
0.695150025503
0.694046541431
0.684090595932
0.648897527821
0.697754430058
0.673293522489
0.682575970651
0.675854278732
0.676503610024
0.675330293536
0.675367227258
0.675914151144
0.677181444898
0.67915898614
0.681835586041
0.685243820449
0.689269177079
0.693107681576
0.694807250284
0.691813413256
0.682720837343
0.651344269314
0.699269992627
0.675514287776
0.685557036088
0.679397029307
0.680581475356
0.67980297001
0.680154767625
0.680891153075
0.682204270315
0.684060811736
0.686407511079
0.689155296624
0.692034989338
0.694174844377
0.694039796731
0.690045256897
0.681832596614
0.652285274482
0.700030148047
0.677323270181
0.687879560717
0.682259594426
0.683899825728
0.683449850648
0.684019215408
0.684828297156
0.686076390749
0.687720207705
0.6896580657
0.691710616415
0.693527440587
0.694307855539
0.692902946084
0.688428328701
0.680965276138
0.653195011879
0.700363472377
0.678563440222
0.689496469888
0.684327951969
0.686342161041
0.686132099314
0.686825646724
0.687635432852
0.68876866795
0.690148227289
0.691624736094
0.692967899416
0.693824294956
0.693529546316
0.69127619553
0.686621254962
0.679856391301
0.653155273402
0.700434638017
0.678948994677
0.690219870697
0.685311132122
0.687536956905
0.687406400235
0.688120674592
0.688871273697
0.689837331117
0.690905846068
0.691923082519
0.692655564649
0.692790768901
0.691805202343
0.689159117136
0.684679572913
0.678684844785
0.649143564791
0.70030961133
0.67746199895
0.68930688066
0.68433772862
0.686657307259
0.686540731163
0.687248787454
0.687896887985
0.688694016229
0.689585906658
0.690397809639
0.690884576176
0.690747253612
0.689584785301
0.687028458655
0.683008085437
0.677833730255
0.645844842354
0.699620414124
0.675961228772
0.688210717776
0.6834197372
0.685908030454
0.685889249232
0.686670020967
0.687403016616
0.688275290233
0.689173139796
0.689916678454
0.690225926917
0.689883529485
0.688561365747
0.686040389177
0.682351759137
0.677768490954
0.641823668962
0.69875969647
0.67424545123
0.687027235198
0.682449675068
0.685290736401
0.685576892065
0.686575029463
0.687414012351
0.68828392027
0.689064328882
0.689560230568
0.689527981828
0.688816343855
0.687251864823
0.684703891066
0.681317455748
0.677246488372
0.636574877958
0.69781632818
0.672084836816
0.685588668388
0.681229136286
0.684487220967
0.685119550833
0.686375330776
0.687338460723
0.688163983787
0.68876642277
0.688941545436
0.688508818807
0.687444142459
0.685662724249
0.683138068243
0.680029762599
0.676483265206
0.631042366313
0.696807218328
0.669611179452
0.683829123258
0.679579080356
0.68319431583
0.684081464588
0.685524316747
0.686536219707
0.687306809957
0.687706775208
0.687619425842
0.686882079204
0.685599788056
0.683728687064
0.681320813059
0.678514796572
0.675411578179
0.626020663574
0.69588267153
0.667092536545
0.681889952354
0.677596499487
0.681421615707
0.682410409009
0.68390580867
0.684884593964
0.685531702181
0.685777010028
0.685493212309
0.684596738408
0.683221639821
0.681396714482
0.67915314881
0.676663128624
0.673923952541
0.621258491813
0.695168888102
0.664680616241
0.67994946148
0.675466384138
0.679353277789
0.680295460369
0.681744187264
0.682627100455
0.683151250084
0.683265757722
0.682862697929
0.681894000922
0.680526579176
0.678801587565
0.676745729082
0.674525570026
0.672106074698
0.618662124907
0.695077702542
0.663387806551
0.678836974578
0.674050586689
0.677786157919
0.678494417488
0.679731524206
0.680393046497
0.680707604028
0.680640127686
0.680105508028
0.679070118165
0.67771599487
0.676077551656
0.674169362943
0.672146218148
0.669964065225
0.623947951258
0.695690038577
0.664986183105
0.679570149537
0.674300812657
0.677356636658
0.677417354828
0.677992616964
0.678058390295
0.677843480087
0.677343836195
0.676491724535
0.675249509756
0.673785278876
0.672128539602
0.670283687801
0.668389824395
0.66641224857
0.628765151931
0.696886382209
0.666886765149
0.680834733229
0.675188104222
0.677703156606
0.677251574776
0.677347253627
0.676956422386
0.676365097142
0.675561150285
0.674501345692
0.673114198624
0.671591853562
0.669924202756
0.668135177489
0.666319775102
0.664471347104
0.630460106016
0.697702984028
0.668792253679
0.682207828179
0.676283023963
0.67832181963
0.677454637453
0.677133130326
0.676387324175
0.675496435589
0.674449839032
0.673226604954
0.671741803513
0.67016447069
0.668496993346
0.666738487592
0.664990056148
0.663204705564
0.63878458075
0.699539195571
0.670568899874
0.683470643042
0.677243219466
0.678834497035
0.677570794663
0.676874856162
0.675802786149
0.674625349419
0.67337494449
0.671987207002
0.670396175805
0.668748928239
0.667071005297
0.665312231591
0.663596103766
0.661877216226
0.631691992834
0.699966184432
0.672812371807
0.685171401038
0.678666523844
0.679792750061
0.67814334795
0.677064905953
0.675676337654
0.67424083193
0.672769622136
0.671221519916
0.669509582187
0.667785802357
0.66603218521
0.664237326689
0.662489729564
0.660776819017
0.659188733608
0.702301836007
0.674442121277
0.685947907567
0.679233374566
0.679923430619
0.677936010514
0.676571182297
0.67493654661
0.673297410285
0.671667089387
0.670025203467
0.668251189717
0.666491327768
0.664736360138
0.662928963519
0.661150732701
0.659418148759
0.615578468013
0.702478534068
0.677509791046
0.688696750876
0.681698131387
0.682001510853
0.679741141802
0.678081662009
0.676187969319
0.674296726226
0.672452230315
0.67062700056
0.668709355222
0.666807977351
0.664920685736
0.663010952026
0.661155963845
0.659492743356
0.71173912628
0.705489953374
0.680083095453
0.689009455587
0.682154677458
0.681843797532
0.679261939797
0.677274832254
0.675088862217
0.672907847146
0.670759322095
0.668776993287
0.666780245228
0.664808280532
0.662911423766
0.660994578385
0.659060759937
0.656953246466
0.56417299111
0.701293130651
0.687917566509
0.695215907344
0.688358053808
0.687914986112
0.685420459683
0.683601439833
0.681643662552
0.679699115676
0.677902542653
0.676227334461
0.674480046489
0.672745085577
0.671030627
0.669185595832
0.667238092431
0.665666151362
0.835246035538
0.720512740417
0.695499526289
0.701786827287
0.695401452127
0.694289171348
0.69123738641
0.688487416719
0.685360968863
0.681982808261
0.67846756508
0.675174960924
0.671840496362
0.668369762791
0.664848160189
0.661260864646
0.657558720887
0.653972309175
0.649343399992
0.683051999435
0.678135072362
0.679834804795
0.672037455967
0.671030089673
0.66837187981
0.666316745135
0.664229948885
0.662397526006
0.660919241162
0.659539440146
0.658097267785
0.656985147224
0.656198647147
0.655539089158
0.655203857376
0.65443621873
0.50015031475
0.499789596216
0.499603079122
0.499621264972
0.499835592493
0.500211711273
0.500646677883
0.501106967186
0.501565923737
0.502005030218
0.502412283401
0.502780711306
0.503106998516
0.503390270761
0.503631383348
0.503832354628
0.503995793046
0.504125022635
0.504223111055
0.504292987735
0.504337879293
0.504359912688
0.504362274967
0.504345571677
0.504311586322
0.504259773973
0.504191640213
0.50410678005
0.504005686599
0.503887423121
0.50375211456
0.503599129552
0.503428742836
0.503240072617
0.503033237515
0.502808302848
0.502566353137
0.502306606599
0.502030215146
0.501737217166
0.501428990282
0.501106281706
0.500770801162
0.50042420273
0.500068638441
0.499706658579
0.499340885422
0.498974459857
0.498610659351
0.498252453754
0.497902712474
0.497562829628
0.497235946798
0.496926298317
0.496639254479
0.496379950191
0.496153782571
0.495966149236
0.495822571089
0.495728310921
0.495687439856
0.495701173912
0.495770462184
0.495898295323
0.496085630227
0.496329360733
0.496627426169
0.496977720386
0.497376942669
0.497822324193
0.498309612383
0.498834958045
0.499393612426
0.499981359229
0.500593549253
0.501226216243
0.501875409625
0.502536588398
0.503205966491
0.503880918774
0.50455940905
0.505238147576
0.505915086921
0.506587525922
0.507256241171
0.507918564598
0.508574401987
0.509230043575
0.509881738671
0.510533053876
0.511184748603
0.511836998798
0.512491970566
0.513123187202
0.513716043852
0.514308538673
0.514932463084
0.515573006427
0.51622828141
0.516892288316
0.51767098123
0.518543112218
0.518684752281
0.518731121254
0.518948165499
0.519389954947
0.520022966881
0.520369420444
0.520774731775
0.521139965896
0.521438767127
0.521696339297
0.521917883325
0.522125156045
0.522310985279
0.522483888206
0.522645936081
0.522801509376
0.522951188551
0.523093677901
0.523225989617
0.523346750478
0.523457228876
0.523558566096
0.523653548376
0.523743406718
0.523828889859
0.523910485504
0.523988548352
0.524063470818
0.524135614662
0.524205188359
0.524272369666
0.524337176104
0.52439966967
0.524459764868
0.524517447244
0.524573055241
0.524626120708
0.524676508067
0.524722486424
0.524765479671
0.524804673379
0.524838540836
0.524865369702
0.524883333836
0.524891310491
0.524888486201
0.524874149886
0.524847749568
0.524808186634
0.524753926342
0.524683237387
0.524594478305
0.52448586937
0.524355585835
0.524201568336
0.524021567138
0.523812608654
0.523571085244
0.523291631774
0.522968537049
0.522593736264
0.522155923745
0.521639653726
0.52102797291
0.520299932648
0.519438936869
0.518431739856
0.517255549691
0.515897455183
0.514360939179
0.512663658536
0.510847814368
0.508973703146
0.50698514979
0.50493284959
0.502894629192
0.500979908962
0.49949014513
0.50004811525
0.499814409471
0.499915864282
0.500203062728
0.50055184359
0.500908728098
0.501252224107
0.501572026231
0.501863615211
0.502124823536
0.502355341949
0.50255458255
0.502723455059
0.502862359144
0.502972684292
0.503055536948
0.503112742394
0.503146087809
0.503158032334
0.503150049027
0.503124658915
0.503083274209
0.50302821459
0.502959662076
0.502878992398
0.502785346752
0.50267956661
0.502560805648
0.502428844565
0.50228236487
0.50212118868
0.501944327949
0.501751193799
0.501540597287
0.501312872741
0.501067306466
0.500804206477
0.500523285665
0.500225056527
0.499909376921
0.499577228109
0.499229370081
0.498867293211
0.49849273722
0.498107966535
0.497715750953
0.497319476366
0.496922769124
0.496530283207
0.496147211521
0.495781164697
0.495437199475
0.495118221537
0.4948272117
0.494568073691
0.494344685737
0.49416086255
0.49402232597
0.493935021829
0.493901053248
0.493921885967
0.493999778802
0.494134344571
0.494321584145
0.494562533865
0.494859814442
0.495213609351
0.495623574376
0.496088771509
0.496608180852
0.497179887275
0.497801778668
0.49847054048
0.49918262024
0.499933920125
0.500719787858
0.501535112642
0.502374564776
0.503232622285
0.504105252471
0.504989350141
0.505881071643
0.506776239661
0.507672996904
0.508573021523
0.509471035901
0.510360332814
0.511250542629
0.512162567663
0.513077977578
0.513966044308
0.5148601622
0.515800169853
0.516755454465
0.517640454455
0.518449831973
0.519292295931
0.519984762387
0.520670883555
0.521389214504
0.522079578405
0.522901176481
0.523509640086
0.524165604484
0.524770484403
0.525353244668
0.52569993555
0.525966315718
0.526203802188
0.526449770993
0.526699183694
0.526957393366
0.527221527264
0.52748804574
0.527748475151
0.528007269001
0.528264136403
0.528521059669
0.528778280875
0.529032831869
0.529281023707
0.529520979561
0.529752615484
0.529977570103
0.530197735869
0.530414069831
0.530627293921
0.530837856149
0.531046257582
0.531252690377
0.531457247504
0.531659960196
0.531860973105
0.532060417924
0.53225869842
0.532456192962
0.532653534541
0.532851509711
0.533050849275
0.533251291497
0.533452675332
0.53365629199
0.533862553473
0.534071162072
0.534281229677
0.534492317724
0.534704822533
0.53491973797
0.535138295414
0.535361517805
0.535590527679
0.535826544961
0.536070796097
0.536323980388
0.536585964513
0.536855917569
0.537131840569
0.537411108863
0.537690111919
0.537965540016
0.538232355755
0.538484965883
0.538717923788
0.538927148585
0.539108915153
0.539260222712
0.539384630525
0.539474316341
0.539530068454
0.539553534037
0.539543074124
0.539491641185
0.539389629248
0.539234830417
0.538957557314
0.538649559149
0.538286149812
0.537876117545
0.537463167157
0.537029325052
0.500417768195
0.500342379227
0.500377139462
0.500492434334
0.500614282344
0.500714479651
0.500802231172
0.500884021964
0.500963591146
0.501041074052
0.501115918816
0.501186521402
0.501251234579
0.501308152138
0.501355864452
0.501393139284
0.50141946701
0.501434505694
0.501438646829
0.501432329355
0.50141645081
0.501391016799
0.501357557289
0.501315689488
0.501265773293
0.501207044764
0.501139664447
0.501062349351
0.500974634639
0.500875146576
0.50076328811
0.50063759015
0.50049766853
0.500342479
0.500171678129
0.49998473655
0.49978210878
0.499563218287
0.499328630139
0.499078617464
0.498814104077
0.498536105826
0.498246203902
0.497946294988
0.497638751064
0.497326309777
0.497012279242
0.49670026805
0.496394334496
0.496098833036
0.495819948863
0.495564106187
0.495338228116
0.495146841424
0.494993462764
0.49488091652
0.494811548505
0.494785291274
0.49480126317
0.494860982126
0.494967128268
0.495121869156
0.495330603999
0.49559708917
0.495919571041
0.496298805377
0.496735932551
0.497231050007
0.497782569442
0.498387998487
0.499043542164
0.499744704843
0.500486349689
0.501263065995
0.502069366584
0.502899784592
0.503749077372
0.504612038994
0.505483784238
0.506359619769
0.507237439806
0.508114331115
0.508985890146
0.509849350744
0.510708560529
0.511565178311
0.5124050034
0.513225224949
0.514049884385
0.514888920414
0.51570862279
0.516481346217
0.517282751915
0.518088888246
0.518863928933
0.519609130466
0.520297584404
0.520830676302
0.521437738765
0.522233498499
0.523098443283
0.523717327373
0.524048414635
0.524392867085
0.524584365272
0.52482455167
0.525220443437
0.525788866002
0.526331668608
0.52680436626
0.52724226428
0.527648262193
0.528023541744
0.528370994214
0.528694985666
0.529003459501
0.529299702051
0.529587128851
0.529866968055
0.530137409793
0.530396426449
0.530643543803
0.53088014794
0.531108455972
0.531329583726
0.531544273912
0.531753027949
0.531956248197
0.532154283304
0.532347634724
0.53253700484
0.532723107241
0.532906414246
0.533087226826
0.533265800449
0.53344245575
0.533617753726
0.533792074324
0.533965573563
0.534137136336
0.53430671193
0.534475323596
0.534644175513
0.534812924958
0.534980049118
0.535144371909
0.53530537956
0.535463073167
0.535617330772
0.535767990302
0.535914862053
0.536057964044
0.536197173699
0.53633251856
0.536464254242
0.536592903919
0.536719201255
0.536844312682
0.536969441953
0.537096306954
0.537226630672
0.537362140661
0.537504592343
0.537655897643
0.537817460619
0.537990929126
0.538178948318
0.538381916921
0.538596565426
0.538819810973
0.539046504957
0.539266570816
0.539467710985
0.539625612316
0.539713737718
0.539714912631
0.539610149989
0.539392490192
0.539107448291
0.538908475625
0.500887294653
0.500768111806
0.50050601398
0.500365005094
0.500288081409
0.500228300491
0.500191522294
0.500177400016
0.500183713758
0.500207378057
0.500245222235
0.500293320629
0.500348386186
0.500406915999
0.500466162314
0.500523607057
0.500577512516
0.500626493722
0.50067002546
0.500707079707
0.500737995068
0.500762449291
0.500780588064
0.500791757088
0.500796316945
0.500792856852
0.500781034953
0.500759525056
0.500727517078
0.500683349827
0.500626119695
0.500554480345
0.500467563842
0.500364010321
0.500243880647
0.500106245907
0.499951175637
0.499778545963
0.499588959206
0.499382713291
0.4991610281
0.498925193742
0.498677166666
0.498419276931
0.498154340248
0.497885624255
0.497616963394
0.497352258548
0.49709602967
0.496853129749
0.496628227801
0.496424890054
0.496248824541
0.496104886241
0.495997548065
0.495930556373
0.495907333238
0.495929522682
0.495995706829
0.496103154597
0.496251195363
0.496440913669
0.496675010887
0.496958855883
0.497298975229
0.497699392244
0.498162202053
0.498688515245
0.499278081208
0.499929037422
0.50063798769
0.50139986914
0.502208174199
0.503055971936
0.503935884117
0.504839604898
0.505759745109
0.50669067529
0.507625233438
0.508556642473
0.509482641092
0.510403909331
0.511312376233
0.512198741792
0.513071315624
0.513938020633
0.514784740362
0.515578119877
0.516364480374
0.517154270879
0.517913292706
0.518624742355
0.519300864157
0.519962713365
0.520578957482
0.521199631731
0.521884510191
0.522625649218
0.5234701703
0.524273492527
0.524839477677
0.525094177533
0.525278182981
0.525500916392
0.525691051624
0.526013207501
0.526543098409
0.527215039932
0.527867557195
0.528455142556
0.528984340354
0.52945334504
0.529869594469
0.530243198836
0.530584213421
0.530901806575
0.531201030588
0.53148606175
0.531758163639
0.532016473715
0.532260043216
0.532489904567
0.532709044873
0.532919723687
0.533123101059
0.533319874665
0.533510701732
0.533696239332
0.533877186702
0.53405420965
0.534228207732
0.534399762508
0.534569087966
0.53473650491
0.534902410556
0.53506750517
0.53523236465
0.535397141371
0.535561072924
0.535722878782
0.535882296084
0.536041013475
0.536200932856
0.536362006361
0.536523057529
0.53668312298
0.536841908819
0.536999545707
0.53715624999
0.537312268131
0.537467769887
0.537622933961
0.537777613097
0.537931669672
0.538084975792
0.538237385077
0.538388610018
0.538538128211
0.538685282307
0.538829369377
0.538969997021
0.539106742178
0.539239278288
0.53936790985
0.539493393751
0.539617226946
0.539742875841
0.539872556371
0.540008057573
0.54015223364
0.540306565233
0.540469397215
0.540637175774
0.540802227136
0.540946057264
0.541063039608
0.541143264408
0.541185366177
0.541240347243
0.54143827485
0.50143029849
0.500764551638
0.500107988116
0.499867051546
0.499781436888
0.499725388242
0.499691841178
0.499677659731
0.49968318897
0.499707017246
0.49974803662
0.499803775804
0.499871583185
0.499948117652
0.500030656304
0.500116282063
0.50020306873
0.500288815916
0.500372420904
0.500452796745
0.500529441197
0.500601157958
0.500668280813
0.500729626578
0.500784725019
0.500832515316
0.500872379934
0.50090262554
0.500922312551
0.50092978622
0.500924020653
0.500903260086
0.500866858489
0.500813654059
0.500743101651
0.500654490581
0.500548175755
0.500423651397
0.500281571971
0.500122399167
0.49994732956
0.499757643867
0.499555327107
0.499342625045
0.49912235345
0.498897553559
0.498671903679
0.498449252467
0.498233701283
0.498029917191
0.497844083597
0.497680551874
0.497544646758
0.49744149943
0.497375138667
0.497349039348
0.497367004922
0.497431542546
0.497543083103
0.497703052911
0.497912577873
0.498172201511
0.498482086706
0.498841312533
0.499250793221
0.499713088193
0.500230576201
0.500804967027
0.50143622123
0.502123191297
0.502863107269
0.503651663209
0.504482031916
0.505348456858
0.50624429311
0.50716100256
0.508089909513
0.509027609473
0.509970375637
0.510905411435
0.51182644479
0.512743632879
0.513650687312
0.514529366885
0.515391420586
0.516251223023
0.517088541526
0.517883777214
0.518628591041
0.519357933291
0.520088945056
0.52076944743
0.521438350361
0.522078992077
0.522745351333
0.523523137621
0.52436099783
0.525179713527
0.52589338271
0.526365228243
0.526579935848
0.526665231476
0.526813712922
0.527033865181
0.527302759136
0.527706239196
0.528243563187
0.528842722497
0.529427612069
0.529973829776
0.530467757644
0.530903732879
0.531288362337
0.53163124462
0.531941939179
0.532228550483
0.532496568104
0.532750058289
0.532990487384
0.533217695002
0.533431774465
0.533634932004
0.533830396818
0.534020043615
0.534204491228
0.534383905926
0.534558450286
0.534728382643
0.534894084943
0.535055957233
0.53521428347
0.535369363635
0.535521649666
0.535671553811
0.53581964284
0.535966572331
0.536112677498
0.536257570605
0.536399671799
0.536537657123
0.536671379256
0.536803396938
0.536936039153
0.53706970189
0.537203617257
0.537336900927
0.537469238704
0.53760064707
0.537731312787
0.537861471079
0.537991259045
0.538120791642
0.538250211787
0.538379617613
0.538509083851
0.53863855434
0.538768013048
0.538897474033
0.539026827838
0.539155941772
0.539284982846
0.539414118773
0.539543627575
0.539674195837
0.539806506445
0.539941709444
0.540082173784
0.540228961051
0.540382282689
0.540543280058
0.540711079254
0.540882692986
0.541055026166
0.541222420454
0.541374218667
0.541509410139
0.541633347306
0.541762173102
0.541957394189
0.542333329029
0.501920730701
0.50007906491
0.499217861783
0.499222432158
0.499327182903
0.49937555632
0.499397432625
0.499412565999
0.499434776906
0.499470388792
0.499522406519
0.499589596208
0.499670571004
0.49976222698
0.499862331128
0.499967922528
0.500077130263
0.500187749235
0.500298692736
0.500408045843
0.500515506384
0.500619984622
0.500720818605
0.50081692846
0.500908108598
0.50099262612
0.501069687267
0.501137707511
0.501195554227
0.501241413953
0.501274124961
0.501292190202
0.501294622786
0.501280050722
0.501248401186
0.501198796054
0.501131325813
0.501045961003
0.500943480654
0.500824387733
0.500690189715
0.500542322966
0.500383022995
0.500214654482
0.500040149719
0.499862536645
0.499685459018
0.499512352465
0.49934720488
0.499194550585
0.499060296548
0.498948685738
0.498865470493
0.498815855389
0.498804491351
0.498835489531
0.498912606708
0.499035136986
0.499201497253
0.499410700509
0.499662663042
0.499957492668
0.500297126749
0.500683422208
0.501121368919
0.501614509015
0.50216642425
0.502779315312
0.503452828477
0.504184024298
0.504970420801
0.505806087481
0.506682005595
0.507589550477
0.508524628334
0.509477375705
0.510434027363
0.511389081898
0.512346350839
0.513296467139
0.514214861628
0.51513706919
0.516046562868
0.516930112375
0.517776535805
0.518581884551
0.519368846055
0.520131375765
0.520869858771
0.521602663427
0.522287935283
0.522969954203
0.523724560517
0.524491965956
0.525278372792
0.526050878758
0.526742285648
0.527308262079
0.527724240068
0.527956285849
0.528071366329
0.5281943577
0.528397296133
0.528658402695
0.528987888395
0.529417242174
0.529916060297
0.530438183924
0.530950591601
0.531436768253
0.531881582238
0.532280389709
0.53263741157
0.532959413226
0.533253478021
0.533525773438
0.533780973009
0.534022040968
0.534249905133
0.534464122327
0.534665018966
0.534855030918
0.535036793106
0.535211730321
0.535380205169
0.535542270352
0.535698041958
0.535847837823
0.535992160504
0.536131645782
0.536267026903
0.536399242258
0.536529051609
0.536657102417
0.536784124663
0.536910863583
0.537037537487
0.537163107555
0.537285674883
0.537403478347
0.537516803746
0.537628316266
0.537740321448
0.537853474057
0.537967174225
0.538080747904
0.538193859272
0.538306471447
0.538418686011
0.538530465606
0.538641860604
0.5387529153
0.538863695586
0.538974354754
0.53908498411
0.539195697458
0.539306559078
0.53941767144
0.539529054549
0.539640781144
0.539753157389
0.539866496867
0.53998130211
0.540098456821
0.540219002782
0.540344310049
0.540476686394
0.540617336967
0.540766823672
0.540926407398
0.541095089203
0.541270062048
0.5414489291
0.541627723409
0.541797613908
0.541958884516
0.542120000891
0.542303471126
0.542569020651
0.543005463349
0.502172129477
0.498665304759
0.498096988482
0.498681790799
0.499027539414
0.499178346891
0.499253991848
0.499307865003
0.499365620864
0.499435066444
0.499520130086
0.499619595332
0.499732453743
0.499855677526
0.499987554811
0.500125197535
0.500267211626
0.500411166993
0.50055613206
0.50070070154
0.500844137198
0.500984916406
0.501123048915
0.501257057803
0.501386229619
0.501509373882
0.501625650376
0.501733279989
0.501831238877
0.501917808826
0.501991906649
0.502051811222
0.502096843295
0.502125910777
0.502138497443
0.502134045065
0.50211295616
0.502074986437
0.502021043931
0.501951861832
0.501868982428
0.501773889129
0.501668811356
0.501555956925
0.501438042972
0.501317549877
0.501197598332
0.501080994888
0.500970658863
0.500870048139
0.500785765057
0.500721361504
0.50068320242
0.500678518142
0.500713706945
0.500794643729
0.500924561496
0.501100166531
0.501319674387
0.501581136554
0.501883511508
0.502224065197
0.502602503222
0.503021359952
0.503487885486
0.504006100427
0.504581567308
0.505218625273
0.50591693739
0.506672419827
0.50748195027
0.508342676577
0.509241772763
0.510165091937
0.511109638097
0.512069476624
0.513029536828
0.51398392417
0.514942226282
0.515887205311
0.516810160959
0.51769707213
0.518544586172
0.519379127779
0.520191323908
0.520970631478
0.521716364503
0.522429528578
0.523147617003
0.523894952373
0.524628278106
0.525381058768
0.526142373202
0.526866618595
0.527549823783
0.528145930644
0.52862739103
0.528989266633
0.52925140113
0.529427295817
0.529584536504
0.529780717373
0.530027203086
0.530316753331
0.530668400934
0.53108501761
0.531536065864
0.531994584904
0.532442861515
0.532868566443
0.533261404209
0.53361880999
0.533942941406
0.53423777175
0.534507759686
0.534757250897
0.534989662608
0.535207159321
0.535410306692
0.535599042854
0.535774507445
0.535939380477
0.536096394891
0.536247113759
0.536392211179
0.536531983404
0.536666720874
0.536796804515
0.536922750206
0.537045161714
0.537164627355
0.537281618344
0.537396507961
0.537509798728
0.537622197145
0.53773438798
0.537846320013
0.537956562196
0.538062998763
0.538163935278
0.538260155363
0.538354269448
0.538448564555
0.538543681302
0.538639197367
0.53873465782
0.538829866826
0.538924914999
0.539019788995
0.539114537741
0.539209143867
0.539303654613
0.539398123015
0.53949259858
0.539587198791
0.539682075295
0.539777333475
0.539873088199
0.539969396082
0.540066429355
0.540164573915
0.540264261572
0.540366052159
0.540470988364
0.540580240604
0.540695212577
0.540818052711
0.540949995213
0.54109177537
0.541244729724
0.541408175162
0.541579769205
0.541758151793
0.541941310319
0.542122887292
0.542304659296
0.542496667549
0.542724593819
0.543043119906
0.543517942905
0.502054980861
0.496735521399
0.49709025147
0.498375983828
0.498858623501
0.499075363736
0.499206701584
0.499320549638
0.499438557624
0.499565848962
0.499705846813
0.499856264951
0.500017118686
0.500185530704
0.50036074984
0.500540162622
0.500722935749
0.500906993895
0.501091862844
0.501275650074
0.501458202814
0.5016382002
0.501815018487
0.501987602549
0.50215575831
0.502317816586
0.502473168116
0.502620383417
0.502758539012
0.50288603504
0.50300197736
0.503105106717
0.503194670887
0.503269621367
0.503330003815
0.503375195179
0.503405465501
0.503421011953
0.503422740182
0.503411318948
0.503388347102
0.503355194558
0.503313857606
0.50326616104
0.503214150533
0.503159512387
0.503103965696
0.503048914654
0.502995909697
0.502946698977
0.502906502489
0.502881378427
0.502879295713
0.502911792211
0.502990462866
0.503125487189
0.503317254269
0.50355894406
0.503846314937
0.504174145545
0.504535559943
0.504922989714
0.50533155027
0.505771548197
0.506251329478
0.506778669432
0.50736110412
0.508007235384
0.508720005258
0.509490909448
0.510312052116
0.511183969786
0.512096149539
0.513021933426
0.513975813864
0.514943677537
0.515902763432
0.51684520735
0.517759296219
0.518640167891
0.519509128685
0.520354428163
0.521164778485
0.521941655766
0.522682945029
0.523394747863
0.524100535046
0.524821071847
0.525559448575
0.526299922396
0.527010651868
0.52771246601
0.528367350032
0.528961899035
0.529494046256
0.529941574253
0.530299692385
0.53057575327
0.530796723405
0.530984728817
0.531182113219
0.53140731931
0.531663796126
0.531960061964
0.532307128286
0.532693642369
0.533095683145
0.533497000792
0.533886536159
0.534256026406
0.534599624456
0.53491590199
0.535205738967
0.535471260061
0.535715318878
0.535941081393
0.536151173146
0.536347247642
0.536529738819
0.536698842253
0.536855941939
0.537003483306
0.537143703264
0.537277888289
0.537406568801
0.537529919916
0.537648081181
0.537761287196
0.537869926874
0.53797451036
0.53807559342
0.538173709471
0.538269484286
0.538363670217
0.538457244771
0.538550936366
0.53864445393
0.538736146936
0.538823738651
0.538905905151
0.538983632795
0.539059382307
0.539135186028
0.539211603378
0.539288382627
0.539365199782
0.539442032134
0.539518933471
0.539595968694
0.539673143082
0.539750410452
0.539827793309
0.539905332492
0.539983125382
0.540061310713
0.540140073255