/*--------------------------------*- C++ -*----------------------------------*\
| =========                 |                                                 |
| \\      /  F ield         | OpenFOAM: The Open Source CFD Toolbox           |
|  \\    /   O peration     | Version:  v1806                                 |
|   \\  /    A nd           | Web:      www.OpenFOAM.com                      |
|    \\/     M anipulation  |                                                 |
\*---------------------------------------------------------------------------*/
FoamFile
{
    version     2.0;
    format      ascii;
    class       volScalarField;
    location    "25";
    object      sensitivity;
}
// * * * * * * * * * * * * * * * * * * * * * * * * * * * * * * * * * * * * * //

dimensions      [0 2 -3 0 0 0 0];


internalField   nonuniform List<scalar> 
12225
(
-5.36946292961
-9.62105970273
-8.05727337971
-8.55947016192
-8.48123738268
-8.64828838496
-8.71975111425
-8.79462494597
-8.82968522571
-8.88958797798
-9.03431066929
-9.29654018702
-9.57062921887
-9.68117761288
-9.93840006225
-11.7832016268
-16.4374557246
-19.3047577837
-28.4918862192
-9.65991368009
-13.7163200959
-12.9308520557
-13.6326989783
-13.9094232943
-14.2887202304
-14.61440343
-14.9632390311
-15.3838867258
-15.9324782748
-16.584411123
-17.1786880717
-17.5692913897
-18.1915185263
-20.3646088159
-24.2794373343
-24.5447128256
9.96497756135
-12.6883735011
-9.80739720763
-10.9507878576
-10.7468021349
-10.9362690706
-10.9523481663
-10.9849003919
-11.0210003057
-11.1538680857
-11.434015996
-11.8316762211
-12.190603979
-12.435751125
-13.0517418748
-15.0845098236
-18.246816
-18.6066339366
-28.7047533959
-8.60123900142
-12.0872320209
-11.2754876775
-11.8334237456
-11.9286145258
-12.1033121581
-12.2032429618
-12.3149525494
-12.4860656674
-12.7572330008
-13.0762098125
-13.3029589727
-13.4117452816
-13.8063287488
-15.0584216192
-16.5061781525
-15.7849685246
5.82837562166
-12.4600317011
-9.39436413131
-10.7162028924
-10.5400139134
-10.8300502486
-10.9327732349
-11.0757491555
-11.2246719516
-11.4548514873
-11.7808361072
-12.1537795351
-12.4780053197
-12.7924296201
-13.4040522133
-14.4832124323
-15.2136544513
-14.2416546578
-24.2268502766
-8.20282904317
-11.3133314721
-10.5339175091
-10.9870165774
-11.0356381624
-11.1639519751
-11.2516452029
-11.3645017437
-11.5291765564
-11.7519060159
-11.9849369391
-12.1814011891
-12.4285707172
-12.9498603345
-13.7075631755
-14.0025990539
-13.120413525
-1.17422310306
-10.6937864251
-10.002953066
-10.5259023635
-10.57418994
-10.7498948941
-10.8637744569
-10.9952406457
-11.1452090754
-11.3403002719
-11.5642300316
-11.7714907114
-11.940250713
-12.1574963119
-12.5508849227
-12.9949584361
-13.0040741548
-12.2547902502
-14.6858019231
-9.90154951609
-10.3620473041
-10.3806243088
-10.538595043
-10.6394820535
-10.737622495
-10.8458564197
-10.9808759259
-11.1545837869
-11.3464345748
-11.5201860385
-11.670420082
-11.8606679429
-12.1359733641
-12.3497619151
-12.2023623245
-11.5737530831
-9.02632970702
-9.82837378749
-10.2319644735
-10.2971405364
-10.4273905237
-10.5242327722
-10.6155958655
-10.7170555476
-10.8395534319
-10.9878486791
-11.1421373764
-11.2789745776
-11.4025135561
-11.5502547314
-11.7169451904
-11.775063829
-11.5558033399
-11.0297616816
-10.5894229313
-9.93594505637
-10.1373532565
-10.218276845
-10.3233553609
-10.4119393269
-10.495445271
-10.5896597193
-10.6987615628
-10.822296239
-10.9429893774
-11.0471755441
-11.1406424581
-11.2386755383
-11.3137531746
-11.2721271929
-11.0275040439
-10.5855070238
-10.2547794459
-9.87229599745
-10.0897303165
-10.1392933564
-10.2330235728
-10.3086035618
-10.3839382852
-10.4675385635
-10.5604712198
-10.658885853
-10.7493755359
-10.8240485075
-10.8860008827
-10.9351812967
-10.9394735088
-10.8376605993
-10.5910156777
-10.2161051378
-10.1893475404
-9.85845592419
-10.0212394837
-10.0642807531
-10.1426987991
-10.2081868811
-10.2743956028
-10.346451688
-10.4230495493
-10.499176161
-10.5645278647
-10.6142355146
-10.6477073225
-10.6576221433
-10.6161909402
-10.4854463322
-10.2499893644
-9.92723169696
-10.1230378602
-9.83251868658
-9.96831945037
-9.99831458747
-10.0639245126
-10.1179450635
-10.1739906558
-10.2329145061
-10.2921965133
-10.3464357364
-10.3884946991
-10.4143336092
-10.4207617184
-10.3977248818
-10.3242128091
-10.1786468827
-9.95842267844
-9.67833990806
-10.0212087503
-9.80221389818
-9.90722216552
-9.92572785607
-9.97682483237
-10.0168611331
-10.0595547926
-10.1019213003
-10.1413195497
-10.1724942189
-10.1904932261
-10.191794638
-10.1716631344
-10.1206528453
-10.0249007468
-9.87484420179
-9.67332253509
-9.43395763287
-9.91204985734
-9.7647285208
-9.83710375455
-9.84370779659
-9.87895433263
-9.90218419414
-9.92818393287
-9.95097958428
-9.9683450492
-9.97586550261
-9.96985383216
-9.94719638559
-9.90316323103
-9.83091273282
-9.72287590954
-9.5760947913
-9.39627845601
-9.19255861673
-9.79366670404
-9.70036321562
-9.77322395519
-9.75964403044
-9.7802839045
-9.78405509814
-9.79143297071
-9.79281829648
-9.78812969322
-9.77271244986
-9.74453223205
-9.70050094187
-9.63764618959
-9.55154336431
-9.43966440856
-9.30160352024
-9.14396082756
-8.97257025615
-9.94242093128
-9.69902210968
-9.68668829933
-9.66136269364
-9.66361971776
-9.64641377011
-9.63262003267
-9.61175802921
-9.58491327533
-9.54811397529
-9.4998628981
-9.43823713092
-9.36157079791
-9.26840876051
-9.15801878995
-9.03220028816
-8.89539519551
-8.75516161266
-8.64578542517
-9.41390938196
-9.59078149167
-9.57093420337
-9.55289433366
-9.50927100698
-9.47349918864
-9.43092650518
-9.38385770933
-9.32822041883
-9.26316289693
-9.18765054868
-9.10104265158
-9.00326922191
-8.89449322835
-8.77682828342
-8.65299328443
-8.52414553714
-12.8970354416
-10.1053537362
-9.86801489564
-9.57746294178
-9.52617892502
-9.46566213689
-9.42249022353
-9.37498269155
-9.3247424509
-9.26841446003
-9.20559965191
-9.13656861137
-9.06147592055
-8.98092116588
-8.89496854101
-8.80499312511
-8.71339087027
-8.6296493126
-1.41248778967
-8.68330424605
-8.68783080631
-9.10691170975
-9.03978699161
-8.99069398119
-8.92589046454
-8.85450254464
-8.77819047694
-8.6955003907
-8.60677772152
-8.51258012286
-8.41334746726
-8.31050221422
-8.20467197871
-8.0985781544
-7.99382687585
-7.88544409937
-22.2483667205
-9.76402888937
-10.3008078899
-9.51193659205
-9.64428858925
-9.57792145125
-9.55286210166
-9.5054386
-9.4538096717
-9.39537738576
-9.33151929791
-9.26265237743
-9.18983919686
-9.11299489693
-9.03251186447
-8.94644540113
-8.85634152233
-8.77556737098
12.4247318997
-9.71196536401
-7.76539264202
-9.09815816961
-8.71447372372
-8.73027906056
-8.63608535985
-8.56458172713
-8.48520170037
-8.40426227721
-8.32201657323
-8.23896220331
-8.15639236922
-8.07433486853
-7.99309111347
-7.91464242816
-7.84134151139
-7.75883712337
-41.8648821092
-7.87794872878
-11.5933776758
-9.4236960861
-10.0503533437
-9.84953782798
-9.8661548016
-9.80297425742
-9.75007679346
-9.68503121023
-9.61443674137
-9.53875915174
-9.45941375337
-9.37834460835
-9.29532110408
-9.21032562885
-9.12291467841
-9.06081081014
36.9676212782
-13.1885358173
-6.31568486411
-9.56473019437
-8.50640335753
-8.73074735614
-8.56775727636
-8.51546967504
-8.42467363996
-8.3405273876
-8.25164564798
-8.16277372333
-8.07458541237
-7.98674800065
-7.89858275231
-7.81206553967
-7.73078098599
-7.62807323263
-64.9105026609
-2.60074407493
-13.5380241533
-9.06182449573
-10.5093216022
-10.0303608952
-10.1246777535
-10.0259481472
-9.9800069967
-9.91483425587
-9.85593347648
-9.79787785773
-9.74343016045
-9.69137714431
-9.6400881619
-9.58530757086
-9.52416239457
-9.49215561504
46.5526940206
-18.2969561692
-5.22098172726
-10.1177076588
-8.41159007907
-8.86881922568
-8.6247916057
-8.59786795534
-8.49191037482
-8.40395434498
-8.3051548933
-8.20382742732
-8.09644153774
-7.98275926775
-7.8621064373
-7.7401153767
-7.63020254687
-7.49786523331
-57.8109227685
-2.23918306411
-13.5590028792
-9.43374380735
-10.7885099634
-10.2762286281
-10.3674299025
-10.2550617235
-10.2061283051
-10.1365880058
-10.0785448648
-10.0214241302
-9.96945241452
-9.92454838618
-9.88831879894
-9.86407888269
-9.85053481812
-9.88285390329
33.6638845295
-15.9876877199
-6.52341759096
-9.76426174905
-8.64310639723
-8.90248188881
-8.72761139772
-8.68615598654
-8.59565597194
-8.5178330507
-8.43464024304
-8.34947093245
-8.26172650913
-8.17423557976
-8.08584499827
-7.99533291579
-7.9016704633
-7.74841264916
-36.2781055094
-6.47006065293
-13.0819185813
-10.7940704137
-11.4849936415
-11.2035108803
-11.2301611977
-11.1512044118
-11.0986780212
-11.0336408205
-10.9694129705
-10.8984763627
-10.8234283893
-10.7454273723
-10.6607589633
-10.5613853755
-10.4302112541
-10.3205498836
0.0151304989718
-8.6355725209
-5.53166287971
-6.31612210521
-5.93595060912
-5.92836960245
-5.79932161162
-5.71204014641
-5.61083700162
-5.51535870776
-5.41827405313
-5.31968769945
-5.22070418877
-5.12444370385
-5.03121831831
-4.94415194319
-4.88637698625
-4.86025640557
-0.0103198618005
-0.0121316032477
-0.00315071712239
-0.00892656519636
-0.00883617111414
-0.0153044351068
-0.0325836788576
-0.0595793036284
-0.09523747956
-0.138230852676
-0.187382670624
-0.240880776912
-0.297380692552
-0.355293049243
-0.414296017283
-0.473960189421
-0.535293143799
-0.598583006676
-0.664773994509
-0.734163860574
-0.807233315488
-0.88364033012
-0.962831098123
-1.04420783852
-1.12662951321
-1.20954387808
-1.29200021704
-1.37334811095
-1.45235905831
-1.5288622466
-1.6022164952
-1.67233184249
-1.73846978555
-1.80092255328
-1.85964080128
-1.91481220394
-1.96621497901
-2.01429413409
-2.05901686163
-2.10077833109
-2.13963395826
-2.17586582503
-2.20959928463
-2.24094928481
-2.270138067
-2.2971967591
-2.32215092648
-2.34503164292
-2.36584292928
-2.38464734883
-2.40124107461
-2.41578381345
-2.42779789196
-2.43767787909
-2.44535455449
-2.45099913954
-2.45374053381
-2.45326397722
-2.44896339984
-2.44069770053
-2.42790608379
-2.41083459006
-2.38983421596
-2.36566983229
-2.33866004611
-2.30910936416
-2.27721427688
-2.2433194941
-2.20789580252
-2.17150745774
-2.13457468089
-2.09757869066
-2.06057673353
-2.02412960663
-1.98819055565
-1.95314466736
-1.91863084104
-1.88471445099
-1.85151265402
-1.82011069138
-1.79040031324
-1.76248336641
-1.73650432151
-1.71396939824
-1.69482157541
-1.67905095314
-1.6662078365
-1.65462191545
-1.64449498045
-1.6383261247
-1.64884520143
-1.67935598384
-1.72282327994
-1.77422743089
-1.83327259061
-1.90091171642
-1.97790684779
-2.06379477586
-2.15745093357
-2.25688961669
-2.35928259203
-2.46120355355
-2.55475700161
-2.62709864926
-2.66106810325
-2.65666670382
-2.61352062813
-2.51900243042
-2.3860751712
-2.25143932985
-2.12484320469
-1.98103104694
-1.81704793686
-1.65352383169
-1.54658957685
-1.49663954177
-1.42020573782
-1.29372312918
-1.05649184966
-0.747221411719
-0.452503933356
-0.205926110037
-0.108192450725
0.115884576136
0.807350612618
1.92568711144
2.8980611027
3.92553776949
4.98454727087
6.05492872305
7.13965875112
8.25154328513
9.39708717377
10.5810726927
11.7944336732
13.0172395
14.2158866853
15.3417753221
16.3643624246
17.2746709332
18.11128403
18.8996389931
19.6725266743
20.437733902
21.1658130579
21.8372449032
22.4462002244
22.9749862982
23.4130486547
23.7355779149
23.9293651527
23.9595501925
23.8084492927
23.4265302153
22.7918990203
21.840698564
20.5539436494
18.8652019394
16.7759293401
14.2293415651
11.2579746891
7.83923510242
4.04004448507
-0.196522763675
-4.76076191649
-9.6906007163
-14.8611392184
-20.3470787838
-26.1872955212
-32.5792644937
-40.9282519961
-50.1182982618
-58.8388410879
-68.1201793804
-76.4072002264
-81.5392319784
-80.3511100182
-65.1636480078
-49.9232499685
28.8638508693
-0.0249696050464
-0.0424490148327
-0.0614514548921
-0.0649488389379
-0.050455358944
-0.0261289544253
0.00203264689227
0.0311172116069
0.0600193236213
0.0884273988805
0.116193059653
0.143436000871
0.170097354406
0.196018085718
0.220418688744
0.24243357931
0.260710772904
0.274166519183
0.281767354734
0.282905149987
0.277184356168
0.264347266883
0.244935688362
0.219381126813
0.188548147659
0.152898282537
0.113716318932
0.071851894393
0.0286406194232
-0.0153115106902
-0.0587068739096
-0.100798432644
-0.140524311951
-0.177427413791
-0.210659642222
-0.239822896899
-0.264273634868
-0.283737681479
-0.297752572121
-0.306163460133
-0.308648542322
-0.305055424855
-0.295184706266
-0.27888779009
-0.256085504136
-0.226721743837
-0.190731998516
-0.148070890291
-0.0987262573061
-0.0429949046853
0.0191522578491
0.0874827052535
0.161851488912
0.241543097243
0.326110370084
0.414770400601
0.506860992827
0.601505592058
0.698416580958
0.797312803347
0.898263415565
1.00099201452
1.10541569035
1.21132536844
1.31822169929
1.42542553522
1.532370152
1.63870917892
1.74404013278
1.84781412635
1.94942268175
2.04817185405
2.14353045813
2.23477205382
2.32127644401
2.40237149232
2.47785873663
2.54714897323
2.60934555284
2.66343076668
2.70905844292
2.74566737694
2.77251472128
2.78863392621
2.7939113125
2.78837728454
2.77218541153
2.74658366491
2.71320553675
2.66636344367
2.59347543002
2.49202421324
2.36791778192
2.22543510624
2.06392009402
1.88117777966
1.67503983942
1.44450599532
1.19048689296
0.916816411561
0.626799403599
0.325759559006
0.0275579417983
-0.251350201769
-0.500462884208
-0.707614680751
-0.865179029235
-0.990674382252
-1.09794925555
-1.18046105928
-1.23426177556
-1.27050597701
-1.31153473124
-1.3551326761
-1.37732026507
-1.33129987659
-1.21417368011
-1.03643639372
-0.764051821592
-0.49333297171
-0.231438376851
0.244875153749
1.18953439254
2.3302283474
3.62123357496
4.53004618675
5.28566761351
6.04768924157
6.83353649806
7.64859796454
8.50144674904
9.39951629831
10.3498698161
11.35222822
12.397424401
13.4627521771
14.5107278147
15.4948746596
16.3837736081
17.1799544954
17.9241179299
18.6558083161
19.4000759828
20.1254986489
20.8602079696
21.5732725637
22.2551450021
22.8908035277
23.4684746836
23.9700576584
24.378205309
24.6651410247
24.8050918624
24.7551598704
24.4790117624
23.917354853
23.0295763057
21.750735219
20.0531459824
17.8695376643
15.1813978551
11.9318234876
8.0960464304
3.68027557261
-1.29828926283
-6.91279507842
-13.026918258
-19.7436314278
-27.069137578
-35.0661046676
-45.1847693498
-54.1858966729
-65.4978971936
-81.17834746
-98.0433847039
-113.894948992
-124.065241148
-114.286535045
-133.237613653
-95.7859879163
-0.148477525764
-0.138230376115
-0.0654403881507
0.0242720928683
0.114598913792
0.196260510385
0.267208081951
0.329669527265
0.386057144764
0.438239545271
0.487586798965
0.535523885527
0.58302503048
0.630786268095
0.678746507404
0.726743669987
0.774146831434
0.82058588637
0.865571315901
0.908867809239
0.9502589066
0.989613901026
1.02697466305
1.06231983546
1.09588164636
1.12758918624
1.15777840404
1.18649303933
1.21417805503
1.24080571361
1.26681022975
1.29216938084
1.31726848141
1.34202046591
1.36661590383
1.3909384911
1.41511897514
1.43893794667
1.46239308004
1.48525882642
1.50743397798
1.52870361941
1.54890312973
1.56782959346
1.58526494896
1.60098764498
1.61483727549
1.6266184367
1.6362627233
1.6435886493
1.64859654422
1.65118204258
1.65144119652
1.64920536754
1.6446397417
1.63812822092
1.63028010118
1.62052199746
1.60874500727
1.59463934996
1.57840380204
1.56017471882
1.54001983761
1.51811195186
1.49470801026
1.46998135292
1.44394361249
1.4167188399
1.38848941921
1.35947543644
1.32984214485
1.29974912788
1.26945602382
1.23907550096
1.20873820714
1.17864904709
1.14914202077
1.12037551529
1.0923254953
1.06490073845
1.03827115658
1.01247899012
0.98729146474
0.962325067588
0.937657491128
0.913350544858
0.889399575732
0.867740068393
0.849611195243
0.828837861056
0.794198200386
0.742295712274
0.680140998211
0.611944068815
0.537106178899
0.452906066182
0.356770518108
0.247139383613
0.124081077357
-0.0126819615593
-0.164495243657
-0.325162974193
-0.485224896018
-0.636202284941
-0.769126571322
-0.869636355784
-0.947233885582
-1.01738389984
-1.06088551787
-1.0703957697
-1.06362834404
-1.05957018771
-1.06588135017
-1.03565756427
-0.937694826999
-0.758627975008
-0.529047027182
-0.235099115472
0.0834607455556
0.549775953898
1.31913545972
2.2455160857
3.04844459496
3.81962539168
4.74491638413
5.55496974349
6.27035322141
6.95483720478
7.65766983893
8.40272599699
9.20377760892
10.0682361359
11.0015882787
12.0015595996
13.056603267
14.1416215203
15.2125667285
16.2235308015
17.1409412662
17.9733258872
18.7583506064
19.5369151474
20.3205322635
21.0731991521
21.8389923962
22.592454764
23.3204409417
24.0048321769
24.6329190789
25.1847063494
25.642006756
25.9754662605
26.1587506488
26.1471428081
25.9040362314
25.3690633825
24.5038047931
23.2450163317
21.5679361847
19.4130678116
16.7668389303
13.5691331064
9.78882115136
5.36834674838
0.342450770943
-5.36515827817
-11.7321279538
-18.8270930592
-26.5058978217
-34.5031428383
-43.2177481733
-51.2417013031
-60.27379762
-71.3183477216
-84.4081522079
-99.2766956646
-114.073285426
-122.889764061
-132.628567294
-107.333354591
-0.23719836749
0.0251835749319
0.243554073456
0.374254613279
0.451862890569
0.495909184587
0.520828470597
0.538468798565
0.555284567097
0.574068447768
0.596063870258
0.622359345872
0.653504979869
0.689686525336
0.730370813949
0.774915084418
0.822332558148
0.871856645427
0.922598519204
0.973962191636
1.02530655863
1.07610985709
1.12593736064
1.17439720568
1.22122220026
1.26606719582
1.30888237152
1.34943986125
1.38787418217
1.42400948471
1.45810886586
1.49009412082
1.52026049887
1.54853477756
1.5752415333
1.60031873997
1.62402559327
1.64634855462
1.66751165154
1.68753216134
1.70662204743
1.72487463246
1.74248702964
1.75959515276
1.77637132517
1.79293497117
1.80943322359
1.82596073946
1.84263454959
1.85938130105
1.87620390553
1.8928730657
1.90916807526
1.92459662895
1.93880362212
1.95098390168
1.96133181474
1.97015165559
1.97749342938
1.98323898758
1.98749508686
1.9904350362
1.9923041055
1.9931563584
1.99301445564
1.99207867736
1.99047784323
1.98829946915
1.98553243396
1.98211257783
1.97789250669
1.97265017324
1.96606821932
1.95778681662
1.94738223445
1.93433932457
1.91826462228
1.89873095243
1.87526366979
1.84748243883
1.81519086087
1.7782113155
1.73633488436
1.68943506108
1.63759440621
1.58106263925
1.5201985423
1.45670613992
1.39266038158
1.3217707107
1.23237071133
1.12256225
0.99884776776
0.865982461337
0.724230179376
0.572532737104
0.410893201882
0.240505908666
0.0631926005038
-0.120100400203
-0.304526114941
-0.48183181629
-0.646489726439
-0.790448836246
-0.899488562528
-0.972815118243
-1.0346445807
-1.07894220638
-1.0797864673
-1.04890941885
-1.0037237803
-0.952333188213
-0.875649362054
-0.713182457719
-0.473585838919
-0.158670778913
0.221489754223
0.737732711784
1.39535401499
2.16046828444
2.78913128292
3.31721934173
3.81769376018
4.43293868794
5.16993332434
5.89586395566
6.57941285601
7.24588658488
7.93239711138
8.66620905214
9.46124282404
10.3278268037
11.2686672735
12.2816038726
13.3508862836
14.4486611279
15.5252924055
16.5342336409
17.4466528087
18.2746890154
19.0584179601
19.8361305507
20.6153848299
21.3580129736
22.0727978892
22.7976076479
23.4979944732
24.1615936459
24.7719118296
25.3126519311
25.7626718769
26.0978724174
26.2875084208
26.2929704606
26.0711297742
25.5692512844
24.7431316153
23.5401866123
21.9267320488
19.8614264793
17.3265328006
14.2747748526
10.6542863493
6.33709626639
1.31638786132
-4.51233634043
-11.307805527
-19.1694028011
-27.9047621511
-36.9378951751
-45.0766096662
-52.2219243158
-59.0122200394
-63.2458633523
-66.4968194954
-70.5855051514
-78.1986332536
-101.489130348
-98.5088627688
-97.0990855062
-0.227372021986
0.501163544124
0.727519729679
0.715046548824
0.660261545022
0.605351157566
0.562249772526
0.535849883276
0.525508058578
0.528402461963
0.542046164991
0.565070968516
0.596444065751
0.635272823237
0.680405346218
0.730795159572
0.785258374951
0.842877114871
0.902686681448
0.963971145525
1.025987745
1.08819801931
1.15005983219
1.21112942538
1.27106894378
1.32953235971
1.38635798935
1.4412686047
1.49429191691
1.54521031575
1.59417345015
1.64098358556
1.6858694796
1.72865614897
1.76954423173
1.80838329096
1.84537479374
1.88038271932
1.91359058809
1.94495472059
1.97465762645
2.00273613117
2.02936404727
2.05460812311
2.07858775025
2.10132835621
2.12287618337
2.1431628102
2.16214032425
2.17962407656
2.19542072572
2.2091431378
2.22047501506
2.2289583705
2.23433078874
2.23621654212
2.23389763282
2.22713443089
2.21576918082
2.19971647652
2.1791346707
2.15423870466
2.12545969488
2.09334487979
2.05838636335
2.02100451168
1.98163872787
1.94078977844
1.89892732917
1.85652786076
1.81394642729
1.77147455282
1.7293194821
1.68751149224
1.64593708457
1.60447336318
1.56293848463
1.52114777563
1.47895671485
1.43624165804
1.39294029302
1.34896361053
1.30418638783
1.2584331403
1.21166057896
1.16378626234
1.114757168
1.06629103643
1.01898729365
0.96708068088
0.898948436837
0.811408797249
0.710785171614
0.601404445528
0.483140115938
0.355093945003
0.216932741804
0.0694550610864
-0.0856870273409
-0.245419547632
-0.402903674458
-0.554065227984
-0.690766137303
-0.797604977502
-0.867109910355
-0.917465203445
-0.961743635693
-0.97489493345
-0.941705853298
-0.882837334815
-0.800654449881
-0.693319181583
-0.512306078237
-0.224125399353
0.15320061994
0.717449177242
1.37120091449
1.99061559504
2.59097550309
3.07232941524
3.42220744179
3.76829216776
4.17650808888
4.73052781572
5.39418772903
6.08648795498
6.77446635402
7.465975345
8.18371130663
8.94949054435
9.77625181663
10.6742044559
11.6455686541
12.6865133279
13.7802052626
14.8921294516
15.9742453937
16.9782898709
17.887040476
18.714127447
19.5036878949
20.286861092
21.0683742857
21.8008111474
22.5130310138
23.2383995527
23.9450483639
24.6166739444
25.2391525966
25.7939240021
26.2619284229
26.6169472772
26.8301323302
26.8608396484
26.6668816824
26.1940467305
25.3983718662
24.2268576626
22.6432497414
20.6075027192
18.1006293626
15.0769300665
11.4792898504
7.14972430877
2.03661832693
-3.98344046257
-11.123275403
-19.5015929995
-28.9265984
-38.711053604
-46.9265553966
-53.3999199003
-58.058579992
-57.5322066733
-52.7676688071
-46.1417247708
-42.7922733164
-65.9013420748
-64.0323444983
-84.7921293049
-0.00100477478985
1.32378565274
1.24026139603
0.904459364307
0.682238819008
0.551441180383
0.480067925246
0.447771535242
0.44184885542
0.453586393184
0.477821792486
0.511859849035
0.553987984925
0.602978861278
0.657612833996
0.716863177255
0.779647209012
0.845107216454
0.912317496034
0.980596647782
1.04920135045
1.11757587192
1.18513639913
1.25144339945
1.31608101634
1.37867439767
1.43900194666
1.4967623572
1.55191348897
1.60420504082
1.65375350058
1.70036549359
1.74424486985
1.78523368298
1.82361217772
1.85926814537
1.89249041735
1.9232725194
1.95194226352
1.97860012489
2.00361606197
2.02718677999
2.04965636173
2.07120705236
2.09205325513
2.11223222762
2.13174907318
2.15043803115
2.16807675367
2.184258137
2.19852910125
2.21026504649
2.21891417484
2.22384304354
2.22450005101
2.22058690904
2.21218886786
2.19942167928
2.18236837334
2.16130097544
2.13675429631
2.10919776606
2.07903853648
2.04655083907
2.01204514834
1.97574821449
1.93776756583
1.89816610107
1.85697112601
1.81420124916
1.76988004499
1.72405705976
1.67669397659
1.62779000754
1.57728840553
1.52510563003
1.47124667511
1.41586672978
1.35917349475
1.30150767701
1.24322442535
1.18464590216
1.12602419468
1.06750364154
1.00912773155
0.950902827544
0.892865684277
0.835713240426
0.781256636366
0.72310354417
0.649539087227
0.558240738118
0.455008094032
0.344606589558
0.227512192276
0.103547269926
-0.0267138045096
-0.160569789614
-0.294774297977
-0.424649315235
-0.545462027619
-0.649955155111
-0.724490568357
-0.760566707123
-0.770386516418
-0.772454056805
-0.757640168342
-0.702072507667
-0.613884990111
-0.517213162081
-0.386174272504
-0.196689176333
0.118516368103
0.637080122524
1.22228598702
1.81446174024
2.3339462975
2.74274466656
3.12987948926
3.41127282378
3.64620991433
3.94359022154
4.34493068743
4.87866551524
5.50862700961
6.18067499543
6.87120325697
7.57806930826
8.3175145564
9.10355752429
9.95138823536
10.8680314447
11.8585624168
12.9155016526
14.0208807169
15.135122816
16.2093868787
17.2026820522
18.1031876149
18.9321251394
19.7293834317
20.5199317529
21.301082586
22.0130686848
22.7442296454
23.4730972034
24.1879370809
24.8667850493
25.4978531257
26.0637014407
26.5449187571
26.9170864065
27.1503065048
27.2063494304
27.0406596866
26.6017945671
25.8397652652
24.7036521905
23.1471889485
21.1306756991
18.6201362005
15.5755344787
11.9313294464
7.55947485442
2.38308400947
-3.69948178188
-10.8532521792
-19.1558994893
-28.4562732568
-38.1878941983
-46.8238047166
-53.4653961575
-57.6314428281
-56.8913965408
-51.0249684149
-41.4858046246
-32.3606830663
-44.6438616713
-48.7957544144
-74.4619862258
0.459442407729
2.34037377691
1.601729888
0.918443118956
0.611212131205
0.472085471375
0.413066816681
0.393186384509
0.397350711412
0.416851570752
0.447237549682
0.486108247207
0.531873223484
0.583345979109
0.639388192164
0.699064313079
0.761405688433
0.825664566351
0.891034563897
0.956932466554
1.02269545782
1.08787520602
1.15196295955
1.21459083374
1.2754034339
1.33410411553
1.39049996855
1.44432702386
1.49556741666
1.54400597828
1.58977382568
1.6326897986
1.67300753769
1.71060931855
1.74580357998
1.7785507346
1.8092191361
1.83784896619
1.86483949411
1.89034207477
1.91474894408
1.93823527543
1.96109033627
1.98338192227
2.00518091125
2.02634882838
2.04671256109
2.06593439939
2.08364556693
2.09936077616
2.11260382707
2.12278458218
2.12942375937
2.13201250405
2.13035894854
2.12358353885
2.11157089419
2.09441394725
2.07204666593
2.04458893314
2.01244174954
1.97606850392
1.93607475803
1.89301309058
1.84742281301
1.79973936362
1.75034983628
1.69951800093
1.64741265373
1.59416906292
1.53986166068
1.48457422682
1.42838380836
1.37128768337
1.31320518135
1.25413314815
1.19408327217
1.13319621042
1.07174521087
1.01010660842
0.948652225589
0.887761025212
0.827687033433
0.768576835653
0.710541878992
0.653580164644
0.597525770029
0.543522007638
0.492576413039
0.439082016408
0.372569114854
0.289794479242
0.197379632434
0.0997800851115
-0.00232707260625
-0.108968324078
-0.218408449292
-0.327429152826
-0.43217572272
-0.525755722544
-0.599014708801
-0.637369831065
-0.634756877089
-0.597854829363
-0.541180370209
-0.464537535931
-0.358262815641
-0.217800417748
-0.0753247620973
0.0895753831548
0.35883207495
0.718213876144
1.15716095902
1.65735998109
2.10200766984
2.47560708792
2.78641086455
3.03880177364
3.28161101905
3.48148814787
3.70720272193
4.02308587849
4.44537140108
4.97862843136
5.59391107871
6.25728279071
6.95088304873
7.6720415656
8.43122704167
9.24011420598
10.1117192359
11.0530371876
12.0667701416
13.1445014987
14.2606875251
15.3755637682
16.4380734713
17.4184327217
18.3090693611
19.1372799112
19.936121565
20.725434682
21.4894724522
22.1814662145
22.9312115556
23.6638627128
24.3824540361
25.0664541058
25.7038676061
26.2786343612
26.7710934152
27.1580839937
27.4094476563
27.4878141691
27.3484513882
26.9393704737
26.2081229691
25.0997412944
23.5641086725
21.5531915267
19.0246684386
15.9344622405
12.219912783
7.79360604974
2.59191001236
-3.45621294039
-10.4251904351
-18.3353253587
-27.0864563488
-36.3357079534
-45.468357865
-52.9725231071
-58.312985848
-60.647015659
-59.0130023763
-53.3726344669
-44.6913479174
-43.507529472
-48.8545429507
-61.7850320202
1.1197340878
3.3446870587
1.74806248617
0.855988041827
0.5703613838
0.457141463223
0.412740398959
0.394332206146
0.396349221288
0.412343590898
0.439136640437
0.474293864819
0.516027074858
0.562924427411
0.613726938521
0.667461276405
0.723192590991
0.780244690444
0.837898775672
0.895682214075
0.953041621023
1.00964018357
1.06505792755
1.11904811133
1.1713397105
1.22172629961
1.27009226801
1.31624980579
1.36023810311
1.40190926912
1.44144573993
1.47872222439
1.51400974294
1.54722065262
1.57870380812
1.60842205579
1.63672459914
1.6636489119
1.68954902506
1.71450340134
1.73881426404
1.76253223541
1.78580356706
1.80853533173
1.83064191854
1.85183800281
1.87182053239
1.89015967455
1.90643773438
1.92017696315
1.93092086391
1.93815191849
1.94153573091
1.94068584742
1.9357273009
1.92581265544
1.91114169619
1.8922853355
1.86919733224
1.8420347466
1.81101474747
1.77620385938
1.73781744025
1.69605261706
1.65116689309
1.60338283443
1.55291128132
1.49989593802
1.44449607892
1.38687006968
1.32727703446
1.26603901726
1.20346650234
1.13989647554
1.07557805136
1.01067314231
0.945371730754
0.879943255896
0.814686913444
0.749944331642
0.686005837898
0.623184804742
0.561668134337
0.501695604402
0.443237663528
0.386675264135
0.331862273443
0.279725733006
0.232067926178
0.182914894343
0.122890404241
0.0514485012844
-0.0248826907007
-0.100654922948
-0.174280508243
-0.245715690758
-0.312768244922
-0.372667089766
-0.420418273252
-0.448737538238
-0.445957611046
-0.404639759991
-0.332191372973
-0.233597344018
-0.105560195785
0.0630645140907
0.278693114554
0.525383551618
0.763053907012
1.03208391408
1.33535084344
1.649880375
1.96829104844
2.28931159468
2.53236096616
2.73004716835
2.90651939532
3.07556751325
3.26199994283
3.4625036168
3.72215353439
4.07297621597
4.51747996895
5.05412309508
5.66084324999
6.31869062307
7.01302176678
7.7447838637
8.51883264207
9.34788393023
10.2398117409
11.2031696401
12.2356020447
13.3268179223
14.4449511398
15.5473996864
16.590322814
17.550123731
18.429064071
19.2532522589
20.0500716871
20.8308807523
21.5608470945
22.2697357764
23.0241610202
23.7663797001
24.4889605396
25.1783485732
25.8219905067
26.4043561793
26.9068438293
27.3064754625
27.5738917926
27.6715438103
27.5552485216
27.1717274936
26.467343251
25.3827684806
23.8661589303
21.8614019887
19.3218215295
16.1961426747
12.4259046866
7.95008368816
2.73066286299
-3.28132386026
-10.0841534687
-17.657416214
-25.9357647489
-34.7621895504
-44.2760883682
-52.7219826835
-59.7464617564
-65.7024248317
-69.4339697953
-69.7013207844
-64.5336732633
-53.680781019
-54.824632991
-48.8082974252
1.89398000188
4.15358369247
1.74260488756
0.837948923963
0.618197341332
0.518399290434
0.468864626019
0.434800145397
0.422724171837
0.425290924335
0.439713780858
0.462733039889
0.492249889905
0.526536932719
0.564286093734
0.604481741531