/*--------------------------------*- C++ -*----------------------------------*\
| =========                 |                                                 |
| \\      /  F ield         | OpenFOAM: The Open Source CFD Toolbox           |
|  \\    /   O peration     | Version:  v1806                                 |
|   \\  /    A nd           | Web:      www.OpenFOAM.com                      |
|    \\/     M anipulation  |                                                 |
\*---------------------------------------------------------------------------*/
FoamFile
{
    version     2.0;
    format      ascii;
    class       volVectorField;
    location    "25";
    object      U;
}
// * * * * * * * * * * * * * * * * * * * * * * * * * * * * * * * * * * * * * //

dimensions      [0 1 -1 0 0 0 0];


internalField   nonuniform List<vector> 
12225
(
(9.73873089209 0.0400075863629 0)
(9.50193360829 0.0408024816431 0)
(9.24489933205 0.0403198272018 0)
(8.99235342089 0.0406748112889 0)
(8.75213893617 0.0406793467719 0)
(8.52299953409 0.040370453182 0)
(8.3032921038 0.0399568491241 0)
(8.09218342714 0.039534112719 0)
(7.8889650699 0.0391531527074 0)
(7.69276826375 0.0388619817296 0)
(7.50258088799 0.0387099420471 0)
(7.31725668997 0.0387527240657 0)
(7.13545170989 0.0390626292536 0)
(6.95550907092 0.0397491563265 0)
(6.77524311993 0.0410002430572 0)
(6.59138862716 0.0432168489701 0)
(6.39852624375 0.0475427277863 0)
(6.17768348558 0.0543006724308 0)
(10.0163201449 0.0714913574595 0)
(10.0355402435 0.0699219935211 0)
(10.0215797768 0.0675267933453 0)
(9.99178850524 0.068468992453 0)
(9.95525093059 0.0694160148282 0)
(9.91299476999 0.0700865446898 0)
(9.86511394027 0.0707910016605 0)
(9.81215559323 0.0716450475457 0)
(9.75462399111 0.0726989945113 0)
(9.69274156213 0.0740274511782 0)
(9.62647056197 0.0757322773207 0)
(9.55552897498 0.0779495026316 0)
(9.47933975289 0.0808739755234 0)
(9.39692066237 0.0848125259479 0)
(9.30668330419 0.090296066209 0)
(9.20595528421 0.0983841346196 0)
(9.09163049434 0.111679271262 0)
(8.94758401346 0.13941624095 0)
(10.0210116077 0.0583561651021 0)
(10.0524084449 0.0585678898984 0)
(10.0651762607 0.0573071200798 0)
(10.0676078984 0.060237869734 0)
(10.0668114671 0.0633913740043 0)
(10.0632897562 0.0661679990385 0)
(10.0564287844 0.0689366159557 0)
(10.0461300736 0.0718728241725 0)
(10.0324248431 0.0750654814694 0)
(10.015207119 0.078642195052 0)
(9.99422988995 0.0827785862004 0)
(9.96912199946 0.0877086525741 0)
(9.9393548068 0.0937637210492 0)
(9.90417598834 0.101453831277 0)
(9.86253185925 0.111629149505 0)
(9.81298654873 0.125834668653 0)
(9.75483332416 0.147175894565 0)
(9.68257501865 0.179734109616 0)
(10.01577887 0.0480413717727 0)
(10.0423118016 0.0558849324423 0)
(10.0569510932 0.0580019971153 0)
(10.0626126249 0.0624192470435 0)
(10.065544891 0.0666600193487 0)
(10.0667752542 0.0702392098346 0)
(10.0657973654 0.0736637038174 0)
(10.0624508233 0.0772516776305 0)
(10.0567337414 0.0811770611857 0)
(10.0485391974 0.0856265480973 0)
(10.0376427511 0.0908334608457 0)
(10.0237366955 0.0970969696359 0)
(10.0064284724 0.104829018971 0)
(9.98522656095 0.11464223848 0)
(9.95956511282 0.127500624518 0)
(9.92893278281 0.144970916212 0)
(9.89382915638 0.169593686141 0)
(9.85281030907 0.203494369653 0)
(10.0114250021 0.0400879063868 0)
(10.0328026714 0.0520829984358 0)
(10.0467034827 0.0555826963599 0)
(10.0527259909 0.0599502764287 0)
(10.0558573499 0.0643694693175 0)
(10.0574326963 0.0683328766768 0)
(10.0570937041 0.0722582487618 0)
(10.0546624907 0.0764886412499 0)
(10.0501428561 0.0812186132995 0)
(10.0434702548 0.0866448369886 0)
(10.0344816501 0.0930196638702 0)
(10.0229566012 0.100673788814 0)
(10.0086375013 0.110059197044 0)
(9.99124868762 0.121824811947 0)
(9.97056957318 0.136927252395 0)
(9.94661775339 0.156762551097 0)
(9.92030443026 0.183239041713 0)
(9.89166309424 0.217707449317 0)
(10.0082633531 0.0337781504427 0)
(10.0252800139 0.0480527282578 0)
(10.037993719 0.0533740130831 0)
(10.0441397607 0.0585036133112 0)
(10.0472877785 0.063759268365 0)
(10.0488564735 0.06864344642 0)
(10.048643677 0.0734611533777 0)
(10.0464663681 0.0785807332503 0)
(10.0423212459 0.0842425408124 0)
(10.0361733174 0.0906753443 0)
(10.0279103914 0.0981630607155 0)
(10.0173844267 0.107069630344 0)
(10.0044463324 0.117873190379 0)
(9.98898423107 0.131221970056 0)
(9.97101119471 0.148001105169 0)
(9.95083488291 0.169374434962 0)
(9.92947721382 0.196717436386 0)
(9.90748800979 0.230913161232 0)
(10.0059391294 0.0287963149035 0)
(10.0193750592 0.0441311933586 0)
(10.0306926812 0.0511129656739 0)
(10.0367795467 0.0569486893254 0)
(10.0399190881 0.0627543363643 0)
(10.0414577712 0.0682427578562 0)
(10.0413437175 0.0736761023999 0)
(10.0394069398 0.0794483697681 0)
(10.0356321817 0.0858467589769 0)
(10.0300060843 0.0931295557176 0)
(10.0224628282 0.10160048291 0)
(10.0129207016 0.111636581 0)
(10.0013251014 0.123713254795 0)
(9.98769569896 0.138439134774 0)
(9.97220975778 0.1565852585 0)
(9.95533396233 0.179070106025 0)
(9.93807905611 0.206842007096 0)
(9.92111495258 0.240412360396 0)
(10.0042672201 0.0248672983149 0)
(10.0148157925 0.0404569315768 0)
(10.0246755716 0.048799044011 0)
(10.030556473 0.0553799103602 0)
(10.0337010346 0.0617648550077 0)
(10.0352641259 0.06792922375 0)
(10.0353060515 0.0741024574013 0)
(10.0336829515 0.0806641089797 0)
(10.0303705492 0.0879222539514 0)
(10.0253746993 0.0961511238785 0)
(10.0186753437 0.105660060458 0)
(10.0102548078 0.11682156426 0)
(10.0001428018 0.130086540692 0)
(9.98846454935 0.145999712963 0)
(9.97550985131 0.165200221888 0)
(9.96182335004 0.188377092369 0)
(9.94834771416 0.216147893528 0)
(9.93577566321 0.248744423101 0)
(10.0030658787 0.0217602165758 0)
(10.0113256536 0.0371107059536 0)
(10.0197762739 0.046477665497 0)
(10.0253381152 0.0537915982822 0)
(10.0284852798 0.0607392808441 0)
(10.0301164971 0.0675292621348 0)
(10.0303593294 0.0743845317258 0)
(10.0291073113 0.0816631578641 0)
(10.0263362876 0.0896875198965 0)
(10.0220709631 0.0987467078574 0)
(10.0163346624 0.109151087505 0)
(10.0091685503 0.121258222242 0)
(10.0006735124 0.135480335063 0)
(9.99105348803 0.152284612896 0)
(9.98066648395 0.172175819908 0)
(9.97007806544 0.195641692079 0)
(9.96012952782 0.223049384463 0)
(9.9514884774 0.254431465242 0)
(10.0022084266 0.0192894757415 0)
(10.0086839856 0.034120232607 0)
(10.015848442 0.0441856434981 0)
(10.0210225989 0.0521676768757 0)
(10.0241673182 0.0596550678236 0)
(10.0259144222 0.0670322999359 0)
(10.0264162505 0.0745416117629 0)
(10.0256062618 0.0825190135726 0)
(10.0234677494 0.091287936685 0)
(10.0200421662 0.101140655056 0)
(10.0153900724 0.112376443538 0)
(10.0096022799 0.125323659126 0)
(10.0028346889 0.140341658904 0)
(9.9953431333 0.157810933702 0)
(9.98751657661 0.178106912315 0)
(9.97990261711 0.201547335031 0)
(9.97322621974 0.228313628252 0)
(9.96814341197 0.258306446823 0)
(10.0015976352 0.0173100252496 0)
(10.0067050169 0.0314893023138 0)
(10.0127511179 0.0419703434736 0)
(10.0175176784 0.0505132625467 0)
(10.0206615656 0.0584947276159 0)
(10.0225733818 0.0664039045551 0)
(10.0233959725 0.0745096320043 0)
(10.023097743 0.0831250655651 0)
(10.0216747119 0.0925616637209 0)
(10.0191833274 0.103103695324 0)
(10.0157143516 0.115030583292 0)
(10.0113974778 0.128633263877 0)
(10.0064268788 0.144211793466 0)
(10.0010859188 0.162060578191 0)
(9.99576503348 0.182439776675 0)
(9.99096798486 0.20553159676 0)
(9.98729888834 0.231385911096 0)
(9.98540166798 0.25982711678 0)
(10.0011979104 0.0158016471554 0)
(10.0053614477 0.0293347412137 0)
(10.0105506827 0.0400033650444 0)
(10.0149622549 0.0489587405823 0)
(10.0181173722 0.0573443273509 0)
(10.0202265491 0.065688516768 0)
(10.0214030936 0.0742818262803 0)
(10.0216389626 0.0834180786911 0)
(10.0209436725 0.0933905582985 0)
(10.0193850276 0.104468324493 0)
(10.0170734307 0.116906443713 0)
(10.0141620534 0.130956002828 0)
(10.010863868 0.146860498312 0)
(10.0074671196 0.164838486946 0)
(10.0043427239 0.18505876589 0)
(10.0019406118 0.207605285571 0)
(10.0007607425 0.232442424427 0)
(10.0014458963 0.259350410073 0)
(10.0009064557 0.0145604833153 0)
(10.0043479966 0.0274303125745 0)
(10.0088343933 0.0381072421901 0)
(10.0129319407 0.0473484962282 0)
(10.0161139098 0.0560670760465 0)
(10.018453787 0.0647787265426 0)
(10.0200281712 0.0737847060432 0)
(10.0208451409 0.0833607288865 0)
(10.0209281746 0.0937766720511 0)
(10.0203552329 0.105279199413 0)
(10.0192505754 0.118093658726 0)
(10.0177827822 0.132429540998 0)
(10.0161731949 0.148474864446 0)
(10.014703679 0.166380628777 0)
(10.0137157923 0.186239692203 0)
(10.0136006654 0.208061706501 0)
(10.0147564119 0.231751293849 0)
(10.0178285066 0.257063219538 0)
(10.0006739612 0.0133519439815 0)
(10.0035245857 0.0254733572879 0)
(10.00740933 0.0360090250489 0)
(10.01123956 0.0454349597068 0)
(10.0145010686 0.054435364412 0)
(10.017163517 0.0634752228503 0)
(10.0192612609 0.0728510075223 0)
(10.0208103407 0.0828159591093 0)
(10.0218460015 0.0936086221149 0)
(10.0224526768 0.105443442444 0)
(10.0227611405 0.118507683765 0)
(10.0229438332 0.132962819063 0)
(10.023216398 0.148937619125 0)
(10.0238380209 0.166517143569 0)
(10.0251050912 0.185726159577 0)
(10.0273386651 0.206515337388 0)
(10.0308342985 0.228750699294 0)
(10.0362480329 0.252188503502 0)
(10.0005045616 0.0121645198906 0)
(10.0029220964 0.0234538827886 0)
(10.0063577977 0.0336707139808 0)
(10.0100183133 0.0431152006866 0)
(10.0134459335 0.0522745012965 0)
(10.0165469629 0.0615360709714 0)
(10.0193161134 0.0711711638815 0)
(10.0217688981 0.0814021998104 0)
(10.0239470166 0.0924287461873 0)
(10.0259359492 0.104423557931 0)
(10.0278630707 0.117528832325 0)
(10.0298913123 0.131853251023 0)
(10.0322153677 0.147468054168 0)
(10.0350566177 0.164397874629 0)
(10.0386538222 0.182613149124 0)
(10.0432517897 0.202022383693 0)
(10.0490463792 0.222472241259 0)
(10.0567079962 0.243731714486 0)
(10.0004007621 0.0109505424473 0)
(10.00256123 0.0212938302687 0)
(10.0057507509 0.0309786591587 0)
(10.0094030751 0.0402122301981 0)
(10.0131345869 0.0493285402478 0)
(10.0168242342 0.0586244843856 0)
(10.0204355076 0.0683253306437 0)
(10.0239758937 0.0786118966484 0)
(10.0274851355 0.0896372156158 0)
(10.0310412055 0.101525676444 0)
(10.0347562126 0.114369437991 0)
(10.0387696009 0.128225515065 0)
(10.0432404746 0.143112959631 0)
(10.0483404565 0.159008710187 0)
(10.0542436665 0.175845027898 0)
(10.0611186598 0.193508503098 0)
(10.069070444 0.211843940066 0)
(10.0787853509 0.230646537375 0)
(10.0003631045 0.00961192624178 0)
(10.0024539751 0.0188205508336 0)
(10.0056424458 0.0276957009505 0)
(10.0095110069 0.03640358689 0)
(10.0137402008 0.0451666623025 0)
(10.0182036447 0.0541912272422 0)
(10.0228433733 0.0636416904001 0)
(10.027653039 0.0736476054577 0)
(10.0326605397 0.0843102812042 0)
(10.0379256026 0.0957032541381 0)
(10.0435337093 0.107869468345 0)
(10.0495881266 0.120820355323 0)
(10.0562020132 0.134533993102 0)
(10.0634906702 0.148955743427 0)
(10.0715633083 0.163998124691 0)
(10.0805185042 0.179544495359 0)
(10.0903848462 0.195453364327 0)
(10.1018648058 0.211555733906 0)
(10.0003898744 0.00798088182482 0)
(10.0026052607 0.0157334378602 0)
(10.006068 0.0234215098119 0)
(10.0104262606 0.0311924345342 0)
(10.0153908562 0.0391847004596 0)
(10.0208340261 0.0475189492628 0)
(10.0266820624 0.0562917210268 0)
(10.0329105755 0.0655752430696 0)
(10.0395263371 0.0754179937648 0)
(10.0465614755 0.085844598952 0)
(10.0540660672 0.0968551221924 0)
(10.0621004212 0.108425014152 0)
(10.0707280436 0.120505694419 0)
(10.0800092735 0.133026171217 0)
(10.0899953751 0.145895563688 0)
(10.1007276459 0.159006766917 0)
(10.1121768247 0.17224133009 0)
(10.1250596599 0.185467523471 0)
(10.00049729 0.00574943990212 0)
(10.0030697831 0.0114590898459 0)
(10.0071399823 0.0173768930251 0)
(10.0123233247 0.0236291733637 0)
(10.0183083364 0.0302699322829 0)
(10.024956461 0.0373316916636 0)
(10.0321807998 0.0448403600851 0)
(10.0399368537 0.0528109685766 0)
(10.0482044942 0.0612429662486 0)
(10.0569831683 0.0701198808727 0)
(10.0662848394 0.0794097911159 0)
(10.0761269928 0.0890660413181 0)
(10.0865269042 0.0990282042933 0)
(10.0974972728 0.109223940892 0)
(10.1090424706 0.11957156436 0)
(10.1211602576 0.129983040879 0)
(10.1337800254 0.14036753495 0)
(10.1476236322 0.150630327427 0)
(10.0006775895 0.00322937646274 0)
(10.0037893829 0.00663433059025 0)
(10.0086998292 0.0105600039903 0)
(10.0148651174 0.015092518049 0)
(10.0218964064 0.0201804465053 0)
(10.0296461726 0.0257670235679 0)
(10.0380303591 0.0318190174404 0)
(10.0469943828 0.0383074613337 0)
(10.0564991517 0.0451967124272 0)
(10.0665223298 0.0524438432887 0)
(10.0770522998 0.0600002301869 0)
(10.0880810433 0.0678109771819 0)
(10.0995992953 0.0758154770337 0)
(10.111593919 0.0839481899886 0)
(10.1240455977 0.0921409006154 0)
(10.1369319965 0.100324568422 0)
(10.1501661038 0.108432002094 0)
(10.1644616045 0.116396889531 0)
(10.0008885078 0.000747756658027 0)
(10.0046274329 0.001969623049 0)
(10.0104500778 0.00413081639664 0)
(10.0175645968 0.00720711543202 0)
(10.0254932746 0.0109883556228 0)
(10.0341117693 0.0153289449306 0)
(10.0433625188 0.0201546130666 0)
(10.0531918133 0.0254065243733 0)
(10.0635515312 0.0310240919767 0)
(10.0744102843 0.0369478716714 0)
(10.0857463874 0.0431208671486 0)
(10.0975394331 0.0494858622637 0)
(10.1097665036 0.0559844258599 0)
(10.1224012804 0.0625569911956 0)
(10.1354130094 0.0691442173179 0)
(10.148770575 0.0756880203908 0)
(10.1623809036 0.0821330336959 0)
(10.1769651367 0.0884256404897 0)
(10.0011925596 -0.00194075288814 0)
(10.0057977752 -0.00291598146444 0)
(10.0127448588 -0.00232701340418 0)
(10.0208626421 -0.00047052532273 0)
(10.0296160363 0.00220351172738 0)
(10.0389710308 0.00547490673954 0)
(10.0489217086 0.00924895031207 0)
(10.0594166054 0.0134458102949 0)
(10.0704031978 0.0179860381927 0)
(10.0818497162 0.022801522312 0)
(10.0937325031 0.027833117983 0)
(10.106025538 0.033025225387 0)
(10.1186985001 0.0383230209508 0)
(10.1317175639 0.0436727339616 0)
(10.1450449141 0.0490219355211 0)
(10.1586428638 0.0543205461986 0)
(10.1724124659 0.0595219560902 0)
(10.1870617372 0.0645836189888 0)
(10.0016683419 -0.00497286932788 0)
(10.0074977508 -0.0081255097074 0)
(10.0158220106 -0.00880594248918 0)
(10.0249611553 -0.00789085086727 0)
(10.0344466998 -0.00613768893014 0)
(10.0444339776 -0.00379106281314 0)
(10.054974421 -0.000940129417654 0)
(10.0660118787 0.00231218702065 0)
(10.077495218 0.00587090646733 0)
(10.0894024626 0.00966326999282 0)
(10.1017122242 0.0136350727204 0)
(10.1143953439 0.0177372413936 0)
(10.1274166914 0.0219232626602 0)
(10.1407376623 0.0261488249837 0)
(10.1543164115 0.0303711467712 0)
(10.1681133045 0.0345482654619 0)
(10.182031585 0.0386392137815 0)
(10.196794504 0.0426043363804 0)
(10.0023983228 -0.00853532136365 0)
(10.0099754238 -0.0137182404989 0)
(10.0199402423 -0.0152031619182 0)
(10.0300362666 -0.0149104230244 0)
(10.0401106884 -0.0138580670698 0)
(10.0506004866 -0.0122022266866 0)
(10.0615936999 -0.0100171450856 0)
(10.073020013 -0.00743793555673 0)
(10.0848411356 -0.00457626925216 0)
(10.0970473195 -0.00149995205297 0)
(10.1096234921 0.00173791035735 0)
(10.1225407389 0.00508993845684 0)
(10.1357640991 0.00851129935075 0)
(10.1492543668 0.0119603368552 0)
(10.1629650169 0.0154000510991 0)
(10.1768488318 0.0187936021712 0)
(10.190799402 0.0221035081931 0)
(10.2055113743 0.0252930127817 0)
(10.0036366263 -0.0129142761875 0)
(10.0136825976 -0.0197191182556 0)
(10.0254899107 -0.0214172027701 0)
(10.0363891211 -0.0215348361534 0)
(10.0469418678 -0.0211506455119 0)
(10.057901189 -0.0202203069169 0)
(10.0693207941 -0.0187959797288 0)
(10.081101354 -0.0170251626268 0)
(10.0932252709 -0.0150068704363 0)
(10.1057035834 -0.01279466578 0)
(10.1185256763 -0.0104297114197 0)
(10.1316625422 -0.00795062902912 0)
(10.1450769157 -0.00539101019564 0)
(10.1587260243 -0.00278048164781 0)
(10.1725616331 -0.000150206586557 0)
(10.1865339037 0.00246669496441 0)
(10.2005366076 0.005030280403 0)
(10.2152914354 0.00748747011928 0)
(10.0055015225 -0.0184655527861 0)
(10.0189334943 -0.0259931480653 0)
(10.0325891922 -0.0271786744963 0)
(10.0439526798 -0.0272981206487 0)
(10.0547581922 -0.0270588730104 0)
(10.0660211359 -0.026249216636 0)
(10.0777033816 -0.0250025872468 0)
(10.0896902545 -0.0235033368157 0)
(10.1019944033 -0.0218383868094 0)
(10.1146413354 -0.0200459211692 0)
(10.127620855 -0.0181553944323 0)
(10.1409026098 -0.0161927463186 0)
(10.1544496763 -0.0141788050758 0)
(10.1682189014 -0.0121311645553 0)
(10.1821568973 -0.0100664557744 0)
(10.1962013562 -0.00800409077168 0)
(10.2102198355 -0.00597636478741 0)
(10.2248598899 -0.00404759983698 0)
(10.0086794426 -0.0256840126108 0)
(10.0266019464 -0.0323987038175 0)
(10.0419678294 -0.0331753931137 0)
(10.0536313036 -0.0341733128324 0)
(10.0647334486 -0.0348670787816 0)
(10.0763138733 -0.0348289930195 0)
(10.088205107 -0.034292664215 0)
(10.1003170222 -0.0334687958439 0)
(10.112706603 -0.032440189714 0)
(10.1254144985 -0.0312509924884 0)
(10.1384343455 -0.0299404306572 0)
(10.1517401528 -0.0285398066206 0)
(10.1652994048 -0.0270706912683 0)
(10.179071979 -0.0255472816953 0)
(10.1930056401 -0.0239779261597 0)
(10.2070335932 -0.0223659237284 0)
(10.2210028648 -0.0207223289925 0)
(10.2355176897 -0.0191133475006 0)
(10.0129784759 -0.0350504749645 0)
(10.0361349142 -0.0369538150537 0)
(10.0519583648 -0.0348901979261 0)
(10.0630160623 -0.0350730883792 0)
(10.0737857286 -0.0354830670343 0)
(10.0849712212 -0.0354563754061 0)
(10.0962386592 -0.035179081763 0)
(10.1075422929 -0.0347709413665 0)
(10.118984135 -0.0342467734192 0)
(10.1306231567 -0.033614473195 0)
(10.1424685541 -0.0328914458461 0)
(10.1545132691 -0.0320930917933 0)
(10.1667442662 -0.0312287516045 0)
(10.1791405413 -0.0303020726834 0)
(10.1916698669 -0.0293076328304 0)
(10.2042817768 -0.028219718439 0)
(10.216810333 -0.0269808946973 0)
(10.2296033699 -0.025499567098 0)
(10.0164774829 -0.0491720428051 0)
(10.0405220734 -0.0504675665419 0)
(10.0476374838 -0.0482012677594 0)
(10.0473941592 -0.0480115233391 0)
(10.0458847771 -0.0478644936237 0)
(10.0437139862 -0.0473608285496 0)
(10.0407053529 -0.0467137873385 0)
(10.0370938943 -0.0460189323419 0)
(10.0332076838 -0.0452846343383 0)
(10.0292770456 -0.0445153296516 0)
(10.025453635 -0.0437210073077 0)
(10.0218521772 -0.0429087041181 0)
(10.0185615698 -0.0420806152263 0)
(10.0156474683 -0.0412345457518 0)
(10.0131601817 -0.0403593558993 0)
(10.0111484906 -0.039414949476 0)
(10.0096041534 -0.0382893169274 0)
(10.0086527522 -0.0362982155794 0)
(9.85294557027 -0.0291635191778 0)
(9.72432571791 -0.0314171359602 0)
(9.58103770737 -0.0314550845612 0)
(9.43952084363 -0.0319580134857 0)
(9.3060971789 -0.0321716221257 0)
(9.18034755835 -0.0320509153418 0)
(9.06136636118 -0.0317517789724 0)
(8.94884734717 -0.0313535714778 0)
(8.84262389228 -0.0308878134383 0)
(8.74245885076 -0.0303762141506 0)
(8.648072835 -0.0298366125255 0)
(8.55918651894 -0.0292814022687 0)
(8.47552798933 -0.0287181760565 0)
(8.39683197759 -0.0281508457923 0)
(8.32284909133 -0.0275782486243 0)
(8.25336603494 -0.0269828423506 0)
(8.18843274984 -0.0262989612889 0)
(8.12658987586 -0.0248675871808 0)
(0.00439297187309 -0.121899690786 5.84266992381e-20)
(0.085561412312 -0.161052130027 0)
(-0.0656146804515 0.114487648315 0)
(-0.277189226349 0.257606966111 0)
(-0.459236612783 0.276096132091 0)
(-0.661393200858 0.279943711691 -1.18858224881e-20)
(-0.878618759841 0.281862698181 0)
(-1.1060753648 0.282748267419 0)
(-1.3410212963 0.282617229353 9.96253019755e-21)
(-1.58168932073 0.281484108468 0)
(-1.82660053478 0.279385587774 -1.05416302933e-20)
(-2.07444348838 0.276370069453 0)
(-2.32401520777 0.272493267268 -1.16269590849e-20)
(-2.5741942425 0.267814985734 -1.22695362847e-20)
(-2.82392560524 0.262398019124 0)
(-3.0722152466 0.256307153291 1.36590436275e-20)
(-3.3181276206 0.249609083882 1.43812879561e-20)
(-3.56078669394 0.242371889686 1.51097049058e-20)
(-3.7993778951 0.234664869317 0)
(-4.03315116229 0.226557911286 0)
(-4.2614238733 0.218121004312 0)
(-4.4835835963 0.209423398129 0)
(-4.6990902345 0.200532865078 0)
(-4.90747720637 0.191514840498 0)
(-5.10835168445 0.182431619753 -1.99260239458e-20)
(-5.30139363266 0.173341669667 -2.05323467959e-20)
(-5.48635394301 0.164299047307 0)
(-5.66305144929 0.155353096404 2.16643136972e-20)
(-5.83136949072 0.146548203458 2.21884079938e-20)
(-5.99125177786 0.137923967018 2.26841231649e-20)
(-6.14269826448 0.129515340668 0)
(-6.28576083476 0.121353173282 0)
(-6.42053956882 0.113464509104 -2.4003040542e-20)
(-6.54717914366 0.105873266048 0)
(-6.66586573984 0.0986004516547 0)
(-6.77682406853 0.091664612099 -2.50841736675e-20)
(-6.88031474446 0.0850816417574 0)
(-6.97663122047 0.0788648710027 0)
(-7.06609630587 0.0730243687798 0)
(-7.1490577369 0.0675666021352 0)
(-7.22588270578 0.0624934122847 0)
(-7.29695102573 0.0578015419608 5.33029672053e-20)
(-7.36264698141 0.0534815857855 0)
(-7.42334996708 0.0495177307738 0)
(-7.47942418693 0.0458871742701 5.4381062006e-20)
(-7.53120805459 0.0425605332327 5.46744324884e-20)
(-7.57900369161 0.0395019982268 0)
(-7.6230673405 0.036670325682 0)
(-7.66360112876 0.0340196644137 5.5354714688e-20)
(-7.70074743638 0.0315016561823 0)
(-7.73458653199 0.0290668780794 -5.56366945461e-20)
(-7.76513724324 0.026666719364 0)
(-7.79235986216 0.0242532937228 5.57776333e-20)
(-7.81616048686 0.0217812922488 0)
(-7.83639843464 0.0192101512725 5.57772438975e-20)
(-7.85289461366 0.0165077168509 5.57244180306e-20)
(-7.86544695895 0.0136562983737 0)
(-7.87385818467 0.0106693361679 0)
(-7.87797698076 0.00759497545902 0)
(-7.87772416546 0.00450023760526 5.5122827311e-20)
(-7.87311325081 0.00145161928604 0)
(-7.86424120672 -0.00149190540202 0)
(-7.85127747981 -0.00427302400514 0)
(-7.83446113972 -0.00684251645692 0)
(-7.81409052807 -0.00916270367195 0)
(-7.79050644439 -0.0112043644372 0)
(-7.76407535515 -0.0129499144608 0)
(-7.7351733473 -0.0143962156172 -5.23419348687e-20)
(-7.70416975096 -0.015553384837 0)
(-7.67141248353 -0.0164421945799 -5.13751804836e-20)
(-7.63721724296 -0.0170916819954 -5.08516765102e-20)
(-7.6018609594 -0.0175349783259 0)
(-7.56558028868 -0.0178064127802 4.97289155047e-20)
(-7.52857469245 -0.0179375589881 0)
(-7.49101374969 -0.0179554868024 -4.85176671776e-20)
(-7.45304699295 -0.0178805844003 0)
(-7.41481469994 -0.0177273030414 4.72403271613e-20)
(-7.37645707655 -0.0175043972776 -4.65853897583e-20)
(-7.33811934585 -0.0172176215635 0)
(-7.29995102278 -0.0168714328996 0)
(-7.26209917386 -0.0164725423379 0)
(-7.22469622613 -0.0160313242058 0)
(-7.18784379221 -0.0155640965708 -4.32661352368e-20)
(-7.15159452292 -0.015093231538 4.26026525655e-20)
(-7.11593524662 -0.0146485954199 -8.38754558616e-20)
(-7.08077515689 -0.0142671609782 -8.25374526824e-20)
(-7.04594120308 -0.0139939031061 -8.11850260321e-20)
(-7.01117936147 -0.0138814746272 0)
(-6.97615919063 -0.0139909902566 0)
(-6.94047855677 -0.0143890752897 0)
(-6.90366890458 -0.015145883258 -7.54781034699e-20)
(-6.8651970214 -0.0163260607216 0)
(-6.82445620326 -0.0179849998735 0)
(-6.78074614232 -0.020160682539 -7.05957618202e-20)
(-6.73324084004 -0.0228734540535 0)
(-6.68095137951 -0.0261294413575 6.67751515561e-20)
(-6.62268959942 -0.0299323490473 0)
(-6.55704408616 -0.0342946739854 -6.21503152074e-20)
(-6.48237684439 -0.0392485242849 0)
(-6.39685140907 -0.0448435988322 0)
(-6.29850120977 -0.0511315482508 0)
(-6.18532250014 -0.0581380556183 -4.83755475457e-20)
(-6.05538067919 -0.0658369763625 0)
(-5.90691521917 -0.0741356640086 -3.78300128135e-20)
(-5.73844694837 -0.0828790061088 -3.13061643099e-20)
(-5.54891146594 -0.0918682770592 0)
(-5.33778613971 -0.100887222803 0)
(-5.10518644552 -0.109735566475 0)
(-4.85186791644 -0.118237513289 5.37651195619e-21)
(-4.57916507807 -0.12620192899 0)
(-4.28892511224 -0.133270581834 0)
(-3.98321123525 -0.139136253304 4.72244677123e-20)
(-3.66447041075 -0.14368380334 6.48872341715e-20)
(-3.33560640924 -0.146721494977 0)
(-2.99967411192 -0.148150675255 -1.08113713511e-19)
(-2.65997253066 -0.147539160421 -1.35119443908e-19)
(-2.31915171124 -0.145263692761 1.67351254299e-19)
(-1.98025276241 -0.142448424256 0)
(-1.64616009642 -0.139801442153 0)
(-1.31958393738 -0.138555464193 0)
(-1.00184715528 -0.142697873731 -4.16445646169e-19)
(-0.701424239123 -0.15092470663 0)
(-0.399115920864 -0.161633661678 -7.99893766215e-19)
(-0.119504054245 -0.183623178526 0)
(0.205493859672 -0.188162541112 0)
(0.418946295374 -0.161774653799 0)
(0.616768989355 -0.133763876532 7.74370684835e-19)
(0.814142972085 -0.110638702306 6.09567700098e-19)
(1.00276142177 -0.0924524284214 0)
(1.17730031473 -0.0779177918991 0)
(1.33578446407 -0.0659413139868 0)
(1.47784291481 -0.0557627069647 0)
(1.60377601054 -0.0468996329284 0)
(1.71415851815 -0.0390364843753 0)
(1.80967457418 -0.0319785735974 5.95761396116e-19)
(1.89105436506 -0.0255954280497 0)
(1.95904514183 -0.019807965381 0)
(2.01440356099 -0.0145535671945 0)
(2.05789722136 -0.00979199441958 -5.20008730577e-19)
(2.09030687978 -0.00549926717769 -5.10872859674e-19)
(2.11245293482 -0.0016818828286 5.0457264917e-19)
(2.12520457427 0.00157188791059 5.00679746973e-19)
(2.13024223165 0.0041629228171 0)
(2.12904518346 0.00621225582524 0)
(2.12192122988 0.00792838508051 0)
(2.10930095841 0.00939538692097 4.98966560714e-19)
(2.09173516321 0.0106375565393 0)
(2.06983411208 0.0116699689302 0)
(2.04420115298 0.012508181555 -5.13682402914e-19)
(2.01539792892 0.0131681133845 0)
(1.98393653958 0.0136648180223 -5.29685869906e-19)
(1.95028375433 0.014013107311 0)
(1.91486604982 0.0142268361411 -5.49859877468e-19)
(1.87807430481 0.0143197160083 0)
(1.84026601548 0.0143044841339 0)
(1.80176767214 0.0141939306708 0)
(1.76287546359 0.0139997810345 0)
(1.72385697851 0.0137335868743 0)
(1.68495108416 0.0134054104878 0)
(1.64636938227 0.0130257358331 0)
(1.60829667669 0.0126040024544 0)
(1.57089249015 0.0121497342543 -6.79173496928e-19)
(1.53429005226 0.0116708352593 0)
(1.49859723717 0.0111760163011 0)
(1.46389628181 0.010673022719 -7.31636791789e-19)
(1.43024383265 0.0101702808966 0)
(1.39766854233 0.0096750658403 0)
(1.36616954756 0.00919621109288 -7.86490649243e-19)
(1.33571345948 0.00874248801589 0)
(1.30623076901 0.00832413379519 0)
(1.27760816365 0.00795144429904 -8.43086569284e-19)
(1.24967937226 0.00763880349552 8.62452302533e-19)
(1.22221140723 0.00740375852051 -8.8223402608e-19)
(1.19488399446 0.00727075134425 0)
(1.16725474225 0.00727261131365 0)
(1.13869995729 0.00746141440146 -1.89329025603e-18)
(1.10834642999 0.00791974868945 0)
(1.07447592304 0.00885267133286 1.99890151224e-18)
(1.03972039323 0.0102491163984 2.06546174741e-18)
(0.925575361188 0.016865271881 0)
(-0.162133015207 0.140093410407 -7.83337121055e-20)
(-0.329598691756 0.349702374092 0)
(-0.479276550389 0.449557737204 1.9352801835e-20)
(-0.661686300498 0.538012836528 -1.60956234912e-20)
(-0.851717216388 0.593695617835 -1.47350518352e-20)
(-1.05501754556 0.632874845282 6.50429565699e-21)
(-1.27160281428 0.661806914832 1.41070552808e-20)
(-1.49907233069 0.683295485241 0)
(-1.73483863965 0.698882173502 -6.91543363735e-21)
(-1.97683350384 0.709516551425 1.60545001742e-20)
(-2.22332176061 0.715826529133 2.5040949273e-20)
(-2.47279552737 0.718258449709 -1.83471671379e-20)
(-2.72390044748 0.71715509259 2.88384770014e-20)
(-2.97539490806 0.712799772955 9.87974856588e-21)
(-3.22612599485 0.705443067422 0)
(-3.47501733281 0.695318766632 -1.13533860807e-20)
(-3.72106324926 0.682654179082 -1.21102847921e-20)
(-3.96332762568 0.667675990829 -1.28718214065e-20)
(-4.20094506016 0.650613740374 2.84389223993e-20)
(-4.43312356917 0.631700935414 0)
(-4.6591476756 0.611174852098 3.13827287486e-20)
(-4.87838130344 0.589274919608 0)
(-5.09026998388 0.566240356074 -3.4216094709e-20)
(-5.29434201857 0.542307150391 0)
(-5.4902084048 0.51770478493 5.48553787436e-20)
(-5.67756131298 0.492653027381 -1.95490761925e-20)
(-5.85617139571 0.467358975957 -3.93866014205e-20)
(-6.02588394551 0.44201479477 -6.04097766329e-20)
(-6.18661435182 0.416796020884 -2.04333779528e-20)
(-6.33834294653 0.391860942678 -2.09867628372e-20)
(-6.4811098712 0.367350554539 0)
(-6.61501009172 0.343389533881 -4.47019908383e-20)
(-6.74018898497 0.320087383804 2.24869876703e-20)
(-6.85683829178 0.297540250745 0)
(-6.96519272575 0.275832256204 0)
(-7.06552684113 0.255036954495 2.37564164868e-20)
(-7.15815192373 0.235217679115 0)
(-7.24341250703 0.216427687252 0)
(-7.3216815037 0.198708904933 0)
(-7.39335469471 0.182090625491 0)
(-7.45884332545 0.166587008309 0)
(-7.51856511238 0.15219489956 5.20181757439e-20)
(-7.57293390632 0.138891134467 1.04382294773e-19)
(-7.62234575533 0.126631258992 0)
(-7.66716855462 0.115348404846 5.3316573648e-20)
(-7.70772912495 0.10495407536 -5.32165398459e-20)
(-7.7443021589 0.0953392936599 0)
(-7.77710033171 0.086378536691 0)
(-7.80626291733 0.0779347147347 -1.63044307252e-19)
(-7.83186243358 0.0698658035254 -1.09338882622e-19)
(-7.85390329511 0.062030777899 5.47026913935e-20)
(-7.87232982393 0.0542951567397 1.10156036724e-19)
(-7.88700966822 0.0465374658045 5.54114586712e-20)
(-7.89779530055 0.0386580710549 0)
(-7.90450923734 0.0305845258191 -1.66185621184e-19)
(-7.90695109598 0.0222803981476 -5.53482164341e-20)
(-7.90489462026 0.0137760711965 0)
(-7.89828480625 0.00518034117169 1.10953605951e-19)
(-7.88765828358 -0.00336236689265 -1.10737979966e-19)
(-7.87311039956 -0.0117259873455 -5.50686926878e-20)
(-7.85483228548 -0.0197874955431 0)
(-7.83305613368 -0.0274153531912 0)
(-7.80804998169 -0.0344894197938 0)
(-7.78011438918 -0.0409158507848 1.08527021598e-19)
(-7.74955338204 -0.0466275485241 0)
(-7.71665640216 -0.0515862792208 -1.07203079369e-19)
(-7.681693706 -0.0557893829559 0)
(-7.64490427899 -0.0592649537239 -5.29027396251e-20)
(-7.60648632596 -0.0620674066354 0)
(-7.56659733881 -0.0642692096057 -5.19827232502e-20)
(-7.52535849694 -0.0659528225895 -5.14801020205e-20)
(-7.48286363584 -0.0672006830814 0)
(-7.43919164376 -0.0680879015344 -5.03135041683e-20)
(-7.39442045001 -0.0686750413684 0)
(-7.34864107726 -0.069005516716 4.91841843169e-20)