/*--------------------------------*- C++ -*----------------------------------*\
| =========                 |                                                 |
| \\      /  F ield         | OpenFOAM: The Open Source CFD Toolbox           |
|  \\    /   O peration     | Version:  v1806                                 |
|   \\  /    A nd           | Web:      www.OpenFOAM.com                      |
|    \\/     M anipulation  |                                                 |
\*---------------------------------------------------------------------------*/
FoamFile
{
    version     2.0;
    format      ascii;
    class       volScalarField;
    location    "23";
    object      alpha;
}
// * * * * * * * * * * * * * * * * * * * * * * * * * * * * * * * * * * * * * //

dimensions      [0 0 -1 0 0 0 0];


internalField   nonuniform List<scalar> 
12225
(
0.39169311237
0.328760910006
0.349014555499
0.348739521514
0.360467460855
0.364655897388
0.370489289097
0.37441675485
0.376470859037
0.375487881509
0.370036393382
0.361491782283
0.354620747485
0.343055104366
0.32013484897
0.290043163756
0.250947403778
0.218297470894
0.221999068357
0.281132581881
0.312506982806
0.307974914283
0.316778644109
0.319038055993
0.3226068349
0.32477581634
0.32590207213
0.325323383721
0.32172838128
0.315370717213
0.308758303697
0.299042968249
0.281772372068
0.259258264932
0.234383996465
0.231788289361
0.372109816894
0.298773753662
0.317267930739
0.315351092615
0.324885425222
0.328086907938
0.332453395476
0.335337247216
0.337275074564
0.337772781782
0.336164881053
0.332339310622
0.326801716595
0.317978927145
0.303496929609
0.285155135343
0.268046126517
0.272597071394
0.304955903317
0.287332552909
0.312915544686
0.307273108662
0.315779223724
0.31741916578
0.320460930071
0.322239744927
0.323387309682
0.323503989168
0.322284311824
0.319579674226
0.315267962027
0.308423398971
0.298099646709
0.286240295523
0.278445403814
0.287647795762
0.33996652333
0.287495410163
0.311805545349
0.3049589842
0.3126820694
0.313397646244
0.315574544644
0.316459994158
0.316694638885
0.31596770273
0.314161413796
0.311200621866
0.306875044733
0.300741851854
0.292813918731
0.285285470306
0.283083243694
0.293197402771
0.325773526489
0.283860611763
0.308546651118
0.300441830853
0.307589424124
0.307604667303
0.309247540835
0.309648800462
0.309465264339
0.308444364339
0.30654704271
0.303743358225
0.299882442839
0.294848572798
0.289178608104
0.285036509778
0.28609780729
0.295682834572
0.329707916244
0.282532405231
0.306097740653
0.297142453528
0.303625705095
0.302999060808
0.304131460525
0.304095818284
0.303567951052
0.302345013494
0.300437262802
0.297856243745
0.294571582775
0.290694873821
0.287000846567
0.285366110763
0.28824613899
0.297002916423
0.327335785146
0.281075839731
0.303953839651
0.294269740993
0.300207609195
0.299065350833
0.299816107219
0.299476843681
0.29876676225
0.297500789435
0.295711430683
0.293450536936
0.290804481148
0.288032863305
0.285974291681
0.286104199055
0.289947790819
0.297859117535
0.32642319715
0.280345440264
0.30220810855
0.292032744353
0.297447417827
0.295866521071
0.296300176276
0.295751479158
0.294971866278
0.293769460832
0.292186244128
0.290320449116
0.28834496286
0.286596987703
0.285846335349
0.28719776669
0.291504400378
0.298695297439
0.325541438245
0.280025205615
0.301011641609
0.290475951682
0.295453949898
0.293513421723
0.293715769928
0.293047739559
0.29226785697
0.29117666647
0.289848601235
0.28842758359
0.287135240824
0.286311420113
0.286594949156
0.288763005212
0.293244630784
0.299764580851
0.325579939127
0.279956832723
0.300639729575
0.28977959691
0.294506636465
0.292362669456
0.292488404249
0.291800574157
0.29107786362
0.290147848385
0.289119392884
0.28814048378
0.287435715952
0.287305640221
0.288253920707
0.290800756961
0.295115153967
0.300894535155
0.329469751998
0.280076946801
0.302074243552
0.290658458584
0.295444519301
0.293209858173
0.293322147035
0.29264019332
0.292016064985
0.291248524063
0.290389872856
0.289608352135
0.28913985812
0.289272022773
0.290390955822
0.292852399947
0.296725931265
0.301715587734
0.332670439174
0.280739118245
0.303522451905
0.291713845647
0.296329169053
0.293931594821
0.29394969009
0.293197613852
0.2924916581
0.291651687592
0.290787230691
0.290071455022
0.289773782711
0.290103363406
0.291376234266
0.293804096262
0.297358547817
0.301778515005
0.336574789333
0.281566204123
0.30517863628
0.292853547207
0.297264163304
0.294526274404
0.294250593129
0.293289101502
0.29248106035
0.291643368123
0.290891976193
0.29041456925
0.29044561279
0.291130725255
0.292637211769
0.295091681184
0.298355654922
0.302282147085
0.341675535134
0.282472863786
0.307264965218
0.294239236893
0.298440821364
0.29530045704
0.294691197366
0.293481446224
0.292553811074
0.291758844137
0.29117878082
0.291010173552
0.291426804822
0.292452026059
0.294167885555
0.296600611162
0.299597313658
0.303018606094
0.347057452528
0.283442882836
0.309654612528
0.295934615022
0.300031983973
0.296546411951
0.295691442228
0.294301228571
0.293326465744
0.292584281787
0.292199101447
0.292283216456
0.292993333903
0.294228506624
0.296031385863
0.298352396752
0.301058508073
0.304052896622
0.351947327465
0.284331777788
0.312088855198
0.297803715025
0.301944453654
0.298255230301
0.297301994463
0.295860705371
0.294917554788
0.294294099636
0.294057775965
0.294331173842
0.295194898661
0.296520046694
0.29827920915
0.300442750358
0.302845020182
0.305488960725
0.35658869288
0.285018128382
0.314421029306
0.299674767456
0.304000033188
0.300249751521
0.299341093213
0.297944227695
0.297093105525
0.296587893861
0.29647752699
0.296866004253
0.297799779672
0.299118195514
0.300781849049
0.302765307146
0.304908137924
0.307244377737
0.359121179324
0.285105852075
0.315671541114
0.300747752408
0.305366743383
0.301761457486
0.301078182308
0.299884934612
0.299246977119
0.29894365054
0.299008711667
0.299524250422
0.300522836937
0.301829120718
0.303410123502
0.305252027478
0.307205613956
0.309313573139
0.353966552463
0.284516945087
0.314125464025
0.300040563771
0.305125145502
0.302175849401
0.302117261267
0.301562244576
0.30149878577
0.301706116436
0.302188177142
0.303010409261
0.304209302864
0.305622829083
0.307222665673
0.309004739107
0.310834797624
0.312746441869
0.349274956094
0.283366788878
0.312287809529
0.298821083362
0.304268639113
0.301841542942
0.302277245646
0.302184925146
0.302562034985
0.303132653444
0.303908550272
0.304931557312
0.306270849092
0.307741075575
0.309352114859
0.311080968338
0.312835904446
0.31462338082
0.347623012958
0.282581794173
0.31044587103
0.297497248172
0.303211826603
0.301244649031
0.302081271156
0.302391479895
0.303111155102
0.303970962176
0.304981229048
0.306162253939
0.307596185473
0.309119915788
0.310731217579
0.312431027429
0.314121655353
0.315848553747
0.339529277045
0.280817062835
0.30872938015
0.296280076065
0.30228533785
0.300750160935
0.301969267035
0.302640765452
0.303675359661
0.304811876389
0.306019099782
0.307359244321
0.308896139767
0.310487821685
0.31210964949
0.313810172881
0.315470003121
0.317133039558
0.346422630749
0.28040706077
0.306562162542
0.294641221276
0.300912114894
0.299825853282
0.301416809069
0.302457304673
0.30379732329
0.30518300532
0.306603538985
0.308098739826
0.309752683549
0.311418604741
0.313113914471
0.314849671965
0.316540286003
0.318197881095
0.319738426829
0.2781629322
0.304988972573
0.29389312813
0.300365458656
0.299699901204
0.301616927559
0.302933818584
0.304511487447
0.306093984252
0.307668452653
0.309254576124
0.310968889182
0.31267009015
0.314367119047
0.316115429846
0.317836106365
0.319513167302
0.362126888336
0.277994106513
0.302027860035
0.291245872147
0.297988571351
0.297696123229
0.299875618268
0.301476319115
0.303303541005
0.305129047429
0.306910054109
0.308673063789
0.310525988558
0.31236385228
0.314188747908
0.316036001226
0.317830934173
0.319440837129
0.269110780843
0.275102016522
0.299546128385
0.290944767307
0.297548584119
0.297848249897
0.300337901033
0.302254851675
0.304364472399
0.306470171162
0.308545343974
0.310460735648
0.312390779702
0.314297577958
0.316132416227
0.317987253636
0.319859191735
0.321900043327
0.412549965342
0.279132489987
0.291995932948
0.284972931134
0.291571900909
0.291998552734
0.294401224084
0.296153975137
0.298041093036
0.299916143683
0.301649115268
0.303265543652
0.304952063363
0.306627231093
0.308283138049
0.31006575307
0.3119480427
0.31346784273
0.152055796991
0.260703639137
0.284700392948
0.278657997702
0.284794608562
0.285864282887
0.288800356687
0.291447488978
0.29445867789
0.297714280657
0.301104179739
0.304281402758
0.307501017231
0.310854344849
0.314259051241
0.317729581815
0.321313670384
0.324788093728
0.32927534519
0.29668351291
0.301424617967
0.299785154822
0.307310501539
0.308283531489
0.310852011486
0.312838651866
0.314856681389
0.316629370959
0.318059909648
0.319395502999
0.3207918393
0.321868870728
0.322630689833
0.323269636577
0.323594421869
0.324338222352
0.476040510178
0.476400412954
0.476586517373
0.476568371936
0.476354519654
0.475979255984
0.475545312348
0.475086145277
0.474628348369
0.474190389456
0.473784233989
0.473416826949
0.473091466016
0.472809014961
0.472568613998
0.472368244982
0.472205302782
0.472076470022
0.471978685988
0.471909028571
0.471864280041
0.471842319389
0.471839969142
0.471856625583
0.471890510855
0.471942168517
0.472010098077
0.472094703893
0.47219549509
0.472313406505
0.472448314679
0.472600850406
0.47277074125
0.472958868147
0.473165114766
0.473389418105
0.473630698945
0.473889739305
0.474165392968
0.474457624276
0.474765061889
0.475086963127
0.475421625074
0.475767399979
0.476122142938
0.476483311122
0.47684828921
0.477213943616
0.477577003588
0.47793450448
0.478283581101
0.478622840169
0.478949143647
0.479258261919
0.479544830385
0.479803718536
0.480029533407
0.480216881177
0.480360244933
0.480454365879
0.480495176114
0.480481460164
0.480412270789
0.480284624016
0.480097568718
0.479854212559
0.47955662073
0.479206905071
0.478808370936
0.47836379318
0.47787742785
0.477353127915
0.476795643313
0.476209191402
0.475598420053
0.474967294129
0.474319761204
0.473660355917
0.472992857971
0.472319887736
0.47164347715
0.470966906598
0.470292216672
0.469622098341
0.468955776106
0.468295906589
0.467642581252
0.466989532773
0.466340496321
0.465691919234
0.465043045303
0.464393699316
0.463741725219
0.463113474681
0.462523472916
0.461933897996
0.46131312036
0.460675884397
0.460024073269
0.459363659187
0.45858928527
0.457722126892
0.457581308571
0.457535208695
0.457319429745
0.456880244082
0.456251026945
0.45590667871
0.455503860454
0.455140899395
0.454843975161
0.454588033561
0.454367903655
0.454161964677
0.453977339739
0.45380556079
0.453644567234
0.453490010166
0.453341311178
0.453199761048
0.453068326193
0.452948365398
0.452838608413
0.452737920623
0.452643544085
0.452554246265
0.452469300877
0.45238821819
0.452310645685
0.452236193587
0.452164502145
0.452095363728
0.452028601277
0.451964196885
0.451902088604
0.451842361
0.451785028321
0.451729754847
0.451677006506
0.451626919123
0.451581212092
0.451538471323
0.45149950493
0.451465828033
0.451439140867
0.451421256645
0.451413290074
0.451416048907
0.451430239245
0.451456409308
0.451495650251
0.451549486498
0.451619637864
0.451707735212
0.451815546972
0.451944886708
0.452097801412
0.452276527672
0.452484021593
0.452723870007
0.453001406613
0.453322310605
0.45369460138
0.454129522451
0.454642436894
0.455250215293
0.455973710148
0.456829466122
0.457830718123
0.459000215643
0.460350914241
0.461879483927
0.463568485528
0.465376081925
0.467242333322
0.469223244092
0.47126843442
0.473300366252
0.47521025279
0.476697272372
0.476142476461
0.476375655928
0.47627442986
0.475987886315
0.475639920741
0.475283893796
0.47494124578
0.474622253197
0.474331419213
0.474070900887
0.473841002117
0.473642305137
0.473473899193
0.473335382807
0.473225368072
0.47314274993
0.473085707076
0.473052456666
0.473040546211
0.473048506767
0.473073824635
0.473115091904
0.473169995848
0.473238355378
0.473318799125
0.473412184022
0.473517671565
0.473636106436
0.473767708151
0.473913792592
0.474074538312
0.474250932053
0.474443562684
0.474653617854
0.474880766122
0.475125721605
0.47538817949
0.475668428807
0.475965961067
0.476280921012
0.476612332648
0.476959440699
0.477320760961
0.477694560084
0.478078580635
0.478470060136
0.478865620325
0.479261641881
0.479653478421
0.480035944093
0.480401437369
0.480744905055
0.481063441051
0.481354063855
0.481612869935
0.481835981005
0.482019582248
0.482157954184
0.48224515399
0.482279078369
0.482258262193
0.482180449854
0.482046030618
0.481859003211
0.481618338222
0.481321425748
0.480968092169
0.480558692646
0.480094176942
0.479575577996
0.479004823732
0.478384039444
0.477716550963
0.477005921163
0.476256256232
0.475472214074
0.474658907903
0.473821666636
0.472966007884
0.472095961143
0.471214628847
0.470325847399
0.469433783118
0.4685402881
0.467643691504
0.466749251147
0.465863644824
0.464977280188
0.464069351075
0.463158211823
0.462274441145
0.461384800433
0.460449663569
0.459499501083
0.458619402064
0.457814638352
0.456977109186
0.456288802522
0.455606893512
0.454893067894
0.454207126793
0.453390906752
0.452786511233
0.452135008591
0.451534314505
0.450955650832
0.450611430053
0.450346964799
0.450111196613
0.449867017266
0.449619430734
0.449363124604
0.449100951572
0.448836423063
0.448577947598
0.448321104138
0.448066183748
0.447811218747
0.447555967568
0.447303376617
0.447057096121
0.446818991492
0.44658915233
0.446365945551
0.446147487729
0.445932846307
0.445721303811
0.445512411612
0.445305671436
0.445100891871
0.444897979994
0.444696904164
0.444497520287
0.444299697205
0.444103034027
0.44390715519
0.443711432897
0.443515087722
0.443317396232
0.443118619236
0.442918917015
0.442717009314
0.442512487553
0.442305647283
0.442097368198
0.441888085075
0.441677404892
0.441464342809
0.441247678558
0.441026398679
0.44079939123
0.440565448011
0.440323354635
0.44007241932
0.439812775467
0.439545247713
0.439271817797
0.43899508688
0.438718632128
0.43844573223
0.438181376507
0.437931103679
0.437700306117
0.437493022137
0.437312938755
0.437163027243
0.437039757737
0.436950875356
0.43689560396
0.43687231744
0.436882654496
0.436933549328
0.437034465835
0.437187700141
0.437462217143
0.437767060262
0.438126673335
0.438532202092
0.438941568704
0.439372395148
0.47577368424
0.475848897131
0.475814214708
0.475699185998
0.475577621996
0.475477659884
0.475390115987
0.475308520331
0.475229142548
0.47515184743
0.475077185289
0.47500675595
0.474942202263
0.474885425362
0.474837831038
0.474800648151
0.474774384832
0.474759381998
0.474755249079
0.474761548241
0.474777384276
0.474802751692
0.474836124531
0.474877884779
0.474927673637
0.474986253371
0.475053464116
0.475130586023
0.475218083212
0.47531732659
0.475428912417
0.475554307063
0.47569389476
0.475848718458
0.476019122142
0.476205635501
0.47640780675
0.476626212981
0.476860292372
0.477109774474
0.477373739569
0.477651176026
0.477940507864
0.478239843938
0.478546818311
0.478858699498
0.479172185895
0.479483675122
0.479789114951
0.480084156518
0.480362621981
0.480618093635
0.480843654564
0.481034780223
0.481187954808
0.481300354244
0.48136963307
0.481395856931
0.481379905741
0.481320263917
0.481214256318
0.4810597211
0.480851270801
0.480585160847
0.480263151023
0.479884497036
0.479448072672
0.478953795082
0.478403265998
0.477798990622
0.477144774602
0.476445122294
0.47570517661
0.474930351771
0.47412613584
0.473297993822
0.472451164115
0.471590845386
0.470721913371
0.469849049413
0.468974353626
0.468100729107
0.467232561411
0.466372602565
0.465517017473
0.464664152631
0.463828141817
0.463011774441
0.462191118594
0.461356288431
0.4605408241
0.459772212571
0.458975190801
0.458173587017
0.457403020338
0.456662228265
0.455977942151
0.455448140576
0.454844890562
0.454054233025
0.453194969804
0.452580239781
0.452251407696
0.451909323004
0.451719153086
0.451480640341
0.45108752794
0.450523144742
0.449984254731
0.44951501014
0.449080349627
0.448677386187
0.448304938241
0.447960127391
0.447638616716
0.447332521017
0.447038576882
0.446753392838
0.446475747945
0.446207433691
0.445950463105
0.445705301737
0.445470586084
0.445244109584
0.445024756623
0.444811797974
0.444604737059
0.444403173151
0.444206758809
0.444014995533
0.443827185899
0.443642621558
0.443460833515
0.443281522775
0.443104435513
0.442929253411
0.442755420184
0.442582559599
0.442410518026
0.442240401872
0.442072261671
0.441905082598
0.441737670448
0.441570365103
0.441404674833
0.441241765825
0.441082145983
0.4409258141
0.440772890635
0.440623535832
0.440477937361
0.440336077083
0.440198076216
0.440063907265
0.439933316779
0.439805786304
0.439680588862
0.439556568789
0.439432533547
0.439306781485
0.439177606064
0.439043296477
0.438902114504
0.438752166889
0.438592063164
0.43842017175
0.438233873255
0.438032774424
0.43782011604
0.437598955328
0.437374402416
0.437156438394
0.436957228023
0.43680083171
0.436713537505
0.436712339183
0.436815976925
0.437031179319
0.437312972313
0.437509566595
0.475305285337
0.475424167201
0.475685627756
0.47582629766
0.475903037189
0.47596267664
0.47599936827
0.47601345693
0.476007156821
0.475983546175
0.475945788458
0.475897800429
0.475842861684
0.475784467102
0.475725358078
0.475668046774
0.475614266752
0.475565399607
0.475521969203
0.475485000993
0.47545415709
0.475429758894
0.475411661008
0.475400516113
0.475395964477
0.475399413479
0.475411204176
0.475432659632
0.475464588105
0.475508647001
0.475565738073
0.47563720489
0.475723913916
0.475827222593
0.475947071162
0.47608438754
0.476239103707
0.476411344793
0.476600511512
0.476806308402
0.477027520103
0.477262861111
0.477510380818
0.477767755468
0.478032176199
0.478300382533
0.478568547569
0.4788327773
0.479088558938
0.479331046366
0.479555576325
0.479758585953
0.479934373603
0.480078088989
0.480185263307
0.480252153582
0.480275341254
0.480253184163
0.480187098611
0.480079813172
0.479931999934
0.47974257949
0.479508859371
0.479225485703
0.478885951414
0.478486251466
0.478024308529
0.477499030732
0.476910687229
0.476261157611
0.475553852754
0.47479384614
0.473987650836
0.473142199411
0.472264866912
0.471363948795
0.470446821625
0.469519103524
0.468587935569
0.467660070354
0.466737758271
0.465820319274
0.464915786162
0.464033409657
0.463164908407
0.462302391547
0.461459901022
0.460670607902
0.459888415629
0.459102929926
0.458348157252
0.457640790183
0.456968637569
0.456310757942
0.455698285138
0.455081482187
0.454400959542
0.453664633599
0.452825722511
0.452027861938
0.451465799997
0.451212889104
0.451030185166
0.450809033357
0.450620255497
0.450300411913
0.449774364089
0.449107368926
0.448459735114
0.447876616456
0.447351496703
0.446886148795
0.446473176149
0.446102536567
0.445764247733
0.445449210387
0.445152406153
0.444869697331
0.444599821811
0.444343629712
0.444102072425
0.443874121438
0.443656813432
0.443447900274
0.443246228755
0.443051110451
0.442861894766
0.442677929692
0.442498520867
0.442323007275
0.442150496439
0.441980411276
0.441812539173
0.441646561696
0.441482084748
0.441318414009
0.441154978885
0.440991629054
0.440829121209
0.440668725329
0.440510702011
0.440353377334
0.44019486617
0.440035216358
0.439875592722
0.439716950236
0.43955957914
0.439403349827
0.43924804779
0.439093428681
0.438939324249
0.438785557424
0.438632274099
0.438479610633
0.43832769376
0.438176668539
0.438026819745
0.437878664805
0.437732854871
0.437590086131
0.437450747149
0.437315257163
0.437183940152
0.437056496027
0.436932174431
0.436809490177
0.436685013114
0.436556550542
0.436422326747
0.436279511153
0.436126625974
0.43596535571
0.435799270497
0.435635848327
0.435493425954
0.435377674035
0.435298359425
0.43525683737
0.43520127192
0.435003031868
0.474763632163
0.475427694347
0.476082701828
0.476323091746
0.476408516895
0.47646444341
0.476497918365
0.476512069945
0.476506553613
0.476482778061
0.476441849113
0.476386233
0.476318575885
0.476242211833
0.476159857978
0.476074425053
0.475987835017
0.475902283253
0.475818869898
0.47573867928
0.475662212344
0.47559066241
0.475523696325
0.475462494278
0.475407525188
0.47535984713
0.475320075955
0.475289900704
0.475270258507
0.475262799963
0.475268548408
0.475289255376
0.475325565497
0.47537863809
0.475449017491
0.475537413381
0.475643472598
0.475767700806
0.475909446341
0.476068249991
0.476242919427
0.476432178358
0.476634047679
0.476846287891
0.477066090404
0.477290421193
0.47751560995
0.477737815727
0.477952944718
0.478156337832
0.478341821794
0.478505051296
0.478640709123
0.478743671109
0.47880991368
0.478835966698
0.478818032852
0.478753609893
0.478642269437
0.478482590767
0.478273454499
0.478014324066
0.47770504431
0.477346543122
0.476937918296
0.476476627786
0.475960312234
0.475387282251
0.474757595778
0.474072417688
0.473334531923
0.472548253952
0.471720411488
0.470856761899
0.469963944915
0.469050482638
0.468125028614
0.4671909802
0.466252053344
0.465320991774
0.464404035116
0.463491066396
0.462588341409
0.461714004437
0.460856353217
0.460001081859
0.45916831047
0.458377516342
0.457636971328
0.456911911412
0.456185293256
0.455508972389
0.454844265391
0.454207722165
0.45354570846
0.452773100053
0.45194094548
0.451127933614
0.450419340745
0.449950906588
0.449737768827
0.449653102985
0.449505715476
0.449287188979
0.449020292024
0.448619832529
0.44808657649
0.447492014926
0.446911678145
0.44636976998
0.445879785019
0.445447324453
0.445065820029
0.444725743403
0.444417604366
0.444133365736
0.443867578843
0.443616212237
0.443377803683
0.4431525161
0.442940258985
0.442738838446
0.442545050559
0.442357032416
0.442174169852
0.441996299851
0.441823262151
0.441654800603
0.441490535986
0.441330071107
0.441173123903
0.441019396497
0.440868440494
0.440719846882
0.440573053606
0.440427410822
0.440282586604
0.440138965884
0.439998115047
0.439861346628
0.439728806464
0.439597958675
0.439466495283
0.439334024465
0.439201305636
0.439069215651
0.438938064669
0.438807836369
0.438678345593
0.4385493592
0.438420741336
0.43829237813
0.438164128068
0.438035894041
0.437907602149
0.437779308162
0.43765102804
0.437522747966
0.437394576638
0.437266645662
0.437138789807
0.437010843543
0.43688253258
0.436753179463
0.436622108211
0.436488177163
0.43634904409
0.436203660872
0.436051813002
0.435892362236
0.435726148639
0.435556177716
0.435385584282
0.435219848699
0.43506951787
0.434935714645
0.434813143218
0.434685990995
0.434491632868
0.434116680026
0.474274456915
0.476111528577
0.47697083858
0.476966293855
0.476861777154
0.476813514204
0.476791688826
0.476776589954
0.476754427498
0.476718892249
0.476666986423
0.476599941823
0.476519142903
0.476427687385
0.476327803884
0.476222447156
0.476113484226
0.476003115384
0.475892424944
0.475783323396
0.475676112138
0.475571878222
0.475471281866
0.475375400145
0.475284437915
0.475200123588
0.475123248664
0.475055393425
0.474997687336
0.474951938998
0.474919306913
0.474901284132
0.474898854908
0.474913387769
0.474944955484
0.474994434291
0.475061734421
0.475146885939
0.475249112577
0.475367913574
0.475501786187
0.475649298599
0.47580822168
0.475976197242
0.476150300536
0.476327511027
0.476504193326
0.476676919237
0.476841709038
0.476994037268
0.477128008226
0.477239386334
0.477322429633
0.477371942844
0.477383283595
0.477352348882
0.477275390406
0.477153114607
0.476987104413
0.476778348833
0.476526936477
0.476232765894
0.475893911416
0.475508529245
0.475071652148
0.474579760003
0.47402929616
0.473418084568
0.472746499205
0.472017493763
0.471233566246
0.470400651859
0.469527760848
0.468623505913
0.467691981224
0.466743024716
0.465790352644
0.464839444104
0.463886504196
0.462940856218
0.462026943391
0.461109396682
0.460204657192
0.45932587611
0.458484159255
0.457683414537
0.456901070449
0.456143126626
0.455409189921
0.454680998949
0.454000134072
0.453322589676
0.452573036284
0.45181087994
0.451029967692
0.45026297321
0.449576595487
0.449014804113
0.44860194201
0.448371650816
0.44825744651
0.448135392974
0.447934004363
0.447674901894
0.447347963377
0.44692195862
0.446427073325
0.445909115291
0.44540084556
0.444918639058
0.44447749211
0.444081998532
0.443727963811
0.443408673315
0.443117098836
0.442847124996
0.442594113791
0.442355125935
0.442129235465
0.441916884745
0.44171774803
0.441529405487
0.441349243214
0.441175846639
0.441008856132
0.44084822025
0.440693824408
0.440545353534
0.440402309118
0.440264060539
0.440129880616
0.439998838987
0.439870182371
0.439743268844
0.43961737482
0.439491761933
0.439366214353
0.439241762071
0.439120287281
0.43900353522
0.438891222545
0.438780708418
0.438669708575
0.438557575095
0.438444899911
0.438332352546
0.438220263891
0.43810867085
0.437997472614
0.437886706087
0.437776321337
0.437666274494
0.437556500337
0.437446847129
0.437337224557
0.437227520066
0.437117670121
0.437007573393
0.436897210391
0.436786509365
0.436675167428
0.436562874636
0.436449134349
0.436333073717
0.436213662223
0.436089541813
0.435958430372
0.435819137821
0.435671104862
0.435513076745
0.435346020697
0.43517274019
0.434995653656
0.434818623316
0.434650366568
0.434490678307
0.434331196518
0.434149836302
0.433886304285
0.433452251702
0.474023702447
0.477522197275
0.478089435673
0.477505815355
0.477160791567
0.477010307871
0.476934826512
0.476881069398
0.476823437158
0.476754140248
0.476669259576
0.476570009813
0.476457398056
0.476334446235
0.47620286312
0.476065530854
0.475923840772
0.475780217656
0.475635591069
0.47549136304
0.475348270012
0.475207830809
0.475070035522
0.474936357187
0.474807507161
0.474684672546
0.474568690995
0.474461336561
0.474363629893
0.474277284155
0.474203379109
0.474143630782
0.474098716121
0.474069723916
0.47405716873
0.474061607172
0.474082637823
0.474120504512
0.474174301957
0.474243299383
0.474325959133
0.474420802301
0.474525605887
0.474638168333
0.474755779913
0.474875966846
0.474995616415
0.475111928991
0.47522199221
0.475322356228
0.475406434121
0.475470681777
0.475508748798
0.475513421615
0.475478317243
0.47539757581
0.475267974321
0.475092801967
0.474873843278
0.474613047252
0.474311458916
0.473971812004
0.473594407483
0.47317672633
0.472711549302
0.472194880612
0.471621190409
0.470986172425
0.470290184765
0.46953732115
0.46873071693
0.467873238122
0.466977684141
0.466058162066
0.465117667456
0.464162119222
0.463206524891
0.462256750046
0.461303252803
0.460363182019
0.459445183298
0.458563187278
0.45772050903
0.456890861782
0.45608355529
0.455309056539
0.454568032643
0.453859470415
0.453146112809
0.452403804625
0.451675514854
0.450928009591
0.450172139332
0.449453175017
0.448775042887
0.448183435095
0.447705658461
0.447346581586
0.447086490841
0.446911975537
0.446755972019
0.446561339066
0.446316807063
0.44602956619
0.445680744157
0.445267504269
0.444820147895
0.444365421248
0.443920890469
0.44349877442
0.443109274272
0.442754927566
0.442433589428
0.442141313133
0.441873679395
0.441626377777
0.441396016067
0.441180447226
0.440979107057
0.440792057552
0.440618166187
0.440454773607
0.440299170024
0.440149805271
0.440006011295
0.43986749496
0.439733968822
0.439605055454
0.439480243471
0.439358934289
0.439240544609
0.439124607184
0.4390107518
0.438898480262
0.438787092479
0.438675910234
0.438564984868
0.438455734738
0.438350256448
0.438250228762
0.438154875222
0.438061609691
0.437968166766
0.437873912202
0.437779262121
0.437684668667
0.437590324347
0.437496139746
0.437402127906
0.437308240302
0.437214494115
0.437120842585
0.43702723325
0.436933617177
0.436839878152
0.436745866186
0.436651477106
0.436556597384
0.436461171278
0.436365028614
0.436267787677
0.436169021487
0.43606817649
0.435964221825
0.435855999896
0.435742121142
0.435620460308
0.43548979795
0.435349405802
0.435197958641
0.435036123013
0.43486621714
0.434689594528
0.434508237499
0.434328415547
0.434148384534
0.433958205717
0.433732567881
0.433417021139
0.432946162491
0.474140504207
0.479448393701
0.479094341384
0.477811017589
0.477329360922
0.477113075867
0.476982016907
0.476868412168
0.476750657832
0.476623642321
0.47648395088
0.476333865761
0.476173372668
0.47600534332
0.47583052791
0.475651534445
0.475469194698
0.475285579314
0.475101161506
0.474917829156
0.474735734562
0.474556195076
0.474379832577
0.474207699096
0.474039987796
0.473878362932
0.473723431552
0.473576618605
0.473438844314
0.473311703331
0.473196086479
0.473093248652
0.473003939143
0.472929202728
0.472868993234
0.472823931391
0.472793747529
0.472778244786
0.472776520009
0.472787906371
0.472810809752
0.472843864371
0.472885079918
0.47293263707
0.472984496227
0.473038976069
0.473094362513
0.47314925541
0.473202108725
0.473251179206
0.473291261483
0.473316314223
0.473318390723
0.473285985636
0.473207537523
0.473072898086
0.472881683695
0.472640700488
0.472354184249
0.472027347829
0.471667053205
0.471280851477
0.470873616949
0.470435082608
0.469956939157
0.469431449762
0.468851120224
0.468207399512
0.467497380513
0.466729559891
0.465911825559
0.465043666744
0.464135573487
0.463214098172
0.462264826725
0.4613018156
0.460347713124
0.459410335694
0.458501321401
0.457625489412
0.4567616438
0.455921457095
0.455116134879
0.454344194442
0.453607722123
0.452900642262
0.452199632534
0.45148406995
0.450750892276
0.450015735905
0.449310208027
0.44861362392
0.447963704272
0.44737373272
0.446845739461
0.446401746741
0.446046485294
0.445772643384
0.445553459559
0.445366980319
0.445171203784
0.444947839819
0.444693471883
0.444399657241
0.444055482624
0.443672214782
0.443273580194
0.442875694218
0.442489518741
0.4421232404
0.441782650569
0.441469160519
0.441181893778
0.440918739432
0.440676869817
0.440453142835
0.440244952861
0.440050659828
0.439869831574
0.439702273796
0.439546612727
0.439400423417
0.439261488528
0.439128532756
0.439001030447
0.43887880827
0.438761728101
0.438649557486
0.438541910928
0.438438282735
0.438338121997
0.438240899943
0.438145996347
0.438052665672
0.437959939647
0.437867097127
0.437774427056
0.43768356497
0.437596766444
0.437515342943
0.437438317379
0.437363252368
0.437288135389
0.437212411144
0.437136329118
0.437060209521
0.436984074602
0.436907871155
0.436831534794
0.436755060238
0.436678493218
0.43660181148
0.436524974656
0.436447886423
0.436370409553
0.436292361291
0.436213580196