/*--------------------------------*- C++ -*----------------------------------*\
| =========                 |                                                 |
| \\      /  F ield         | OpenFOAM: The Open Source CFD Toolbox           |
|  \\    /   O peration     | Version:  v1806                                 |
|   \\  /    A nd           | Web:      www.OpenFOAM.com                      |
|    \\/     M anipulation  |                                                 |
\*---------------------------------------------------------------------------*/
FoamFile
{
    version     2.0;
    format      ascii;
    class       surfaceScalarField;
    location    "23";
    object      phi;
}
// * * * * * * * * * * * * * * * * * * * * * * * * * * * * * * * * * * * * * //

dimensions      [0 3 -1 0 0 0 0];
oriented        oriented;


internalField   nonuniform List<scalar> 
24170
(
3.07335785221e-06
1.15048345628e-07
2.98617255524e-06
8.71852689927e-08
2.90582216649e-06
8.03502797804e-08
2.8282834285e-06
7.75392879031e-08
2.75378114861e-06
7.45022836825e-08
2.68242304513e-06
7.13586961592e-08
2.61402990087e-06
6.83930859605e-08
2.54835401617e-06
6.56764055896e-08
2.48512944821e-06
6.32245870998e-08
2.42406853129e-06
6.10614209135e-08
2.36484734877e-06
5.92212767878e-08
2.30709462556e-06
5.77532126096e-08
2.25036561832e-06
5.67292962856e-08
2.19409753389e-06
5.62686531772e-08
2.1375100175e-06
5.65882456544e-08
2.07934071383e-06
5.81708131763e-08
2.0169307394e-06
6.24123806839e-08
7.62032326644e-08
1.94072946484e-06
3.43143788375e-06
1.00859517163e-07
3.42609887427e-06
9.25241837302e-08
3.41878967853e-06
8.76593495097e-08
3.40832591805e-06
8.80034997511e-08
3.3951764879e-06
8.76517605004e-08
3.37996788905e-06
8.65678184329e-08
3.36302642732e-06
8.53345974666e-08
3.34453848571e-06
8.41648284239e-08
3.32461724912e-06
8.31460217147e-08
3.30330841732e-06
8.23707843267e-08
3.28058098469e-06
8.19490720411e-08
3.25631836153e-06
8.20164642535e-08
3.23029381493e-06
8.27544916078e-08
3.20212391061e-06
8.44394250174e-08
3.17116676326e-06
8.75465495057e-08
3.13632883018e-06
9.30104858015e-08
3.09575078317e-06
1.02992986303e-07
1.20947949084e-07
3.05100724445e-06
3.67985511523e-06
8.35213287683e-08
3.68399520894e-06
8.83841023813e-08
3.68627113336e-06
8.53833969089e-08
3.68730890889e-06
8.69660857242e-08
3.68687354953e-06
8.80871841358e-08
3.68516305432e-06
8.82786664192e-08
3.68228075485e-06
8.82169077558e-08
3.67823661161e-06
8.82092419249e-08
3.67300285117e-06
8.83798185805e-08
3.66652351513e-06
8.88503460631e-08
3.65870457459e-06
8.97680655817e-08
3.64940499884e-06
9.1316220555e-08
3.63841964923e-06
9.37399536007e-08
3.62545573164e-06
9.74035217745e-08
3.61010566448e-06
1.02896885344e-07
3.59188404749e-06
1.11232649875e-07
3.57068462421e-06
1.24193040514e-07
1.43088409523e-07
3.54854330329e-06
3.93955774315e-06
6.93519436775e-08
3.94534886658e-06
8.25929051828e-08
3.94842705372e-06
8.23051521409e-08
3.95068431737e-06
8.47091180618e-08
3.95190224435e-06
8.68693769893e-08
3.95216423099e-06
8.80170327229e-08
3.95157192929e-06
8.88093537364e-08
3.95013608307e-06
8.96454242462e-08
3.94781987299e-06
9.06962822259e-08
3.94456104421e-06
9.21095597258e-08
3.94026985014e-06
9.40596219234e-08
3.93482621407e-06
9.67603333425e-08
3.92807553243e-06
1.00491149436e-07
3.9198309468e-06
1.0564869958e-07
3.90990154342e-06
1.12826994763e-07
3.89821684001e-06
1.22918212515e-07
3.88523008348e-06
1.37180763811e-07
1.56168681623e-07
3.87215002332e-06
4.21836296266e-06
5.81161232269e-08
4.22460190124e-06
7.63539974574e-08
4.22777821421e-06
7.91288403525e-08
4.23009496021e-06
8.23926121674e-08
4.23150758785e-06
8.54568223034e-08
4.23201048246e-06
8.75143547655e-08
4.23169306003e-06
8.91268065395e-08
4.23058053978e-06
9.07580924647e-08
4.22864758464e-06
9.26292715093e-08
4.22584492519e-06
9.49123199954e-08
4.22210346159e-06
9.78011158504e-08
4.21733586958e-06
1.01527983097e-07
4.21144179485e-06
1.06385250641e-07
4.20432656938e-06
1.12763936872e-07
4.19595325392e-06
1.21200323965e-07
4.18646967182e-06
1.32401900762e-07
4.17646464126e-06
1.4718568932e-07
1.65785679886e-07
4.16684647238e-06
4.51796897886e-06
4.9234277185e-08
4.5242027307e-06
7.01201808206e-08
4.52751586975e-06
7.58156985224e-08
4.52983715216e-06
8.00714869944e-08
4.53131514562e-06
8.39789853757e-08
4.53189377231e-06
8.69359396691e-08
4.5316332645e-06
8.93875057482e-08
4.53056580477e-06
9.18257756951e-08
4.52867669605e-06
9.45186316722e-08
4.52592857843e-06
9.7660696311e-08
4.52227135068e-06
1.0145865087e-07
4.51764797626e-06
1.06151683156e-07
4.51200641493e-06
1.12027140811e-07
4.50532709754e-06
1.19443545401e-07
4.49768006802e-06
1.28847615607e-07
4.48932811257e-06
1.40753988892e-07
4.4808730748e-06
1.55640782111e-07
1.73518446233e-07
4.4731402614e-06
4.83972104357e-06
4.22332125345e-08
4.84566151615e-06
6.41797150599e-08
4.84909248731e-06
7.2384749891e-08
4.85142023775e-06
7.77438314762e-08
4.85293549539e-06
8.24638058185e-08
4.85357720936e-06
8.62943014657e-08
4.85337384172e-06
8.9590923603e-08
4.85235764975e-06
9.28420057027e-08
4.85052372783e-06
9.63525865291e-08
4.84784715523e-06
1.0033727607e-07
4.84429729026e-06
1.05008532305e-07
4.83984775336e-06
1.10601204969e-07
4.83449258699e-06
1.17382270655e-07
4.82827665004e-06
1.25659371345e-07
4.82134735555e-06
1.35776719527e-07
4.81402793266e-06
1.48073236688e-07
4.80688795913e-06
1.62780521845e-07
1.7975605874e-07
4.80064848875e-06
5.18510811599e-06
3.67060106071e-08
5.19058346244e-06
5.87043287473e-08
5.19407675363e-06
6.88914449045e-08
5.19643221174e-06
7.5388470662e-08
5.19799442927e-06
8.09016901955e-08
5.19872255803e-06
8.55663395307e-08
5.19861746113e-06
8.96961612496e-08
5.19770580517e-06
9.37538579774e-08
5.19599208884e-06
9.80664652387e-08
5.19346629949e-06
1.02863290061e-07
5.19011979021e-06
1.08355241906e-07
5.18595855825e-06
1.14762678764e-07
5.18102110602e-06
1.22319862495e-07
5.17540733555e-06
1.31273226941e-07
5.1693196258e-06
1.41864368617e-07
5.16310870946e-06
1.54283985599e-07
5.15729886505e-06
1.6858953595e-07
1.8453737459e-07
5.15251694054e-06
5.55571769091e-06
3.23257002437e-08
5.56064867202e-06
5.37733276726e-08
5.56413628091e-06
6.54038172134e-08
5.56653423062e-06
7.29905438516e-08
5.56815824558e-06
7.92776981085e-08
5.56899450168e-06
8.47301101437e-08
5.56902676358e-06
8.96639204324e-08
5.56827476886e-06
9.45058668218e-08
5.56675266142e-06
9.95885888573e-08
5.56446768461e-06
1.05148265317e-07
5.56143519867e-06
1.11387777642e-07
5.5576935215e-06
1.18504333231e-07
5.55332168941e-06
1.26691667377e-07
5.54846349463e-06
1.36131267896e-07
5.54335639915e-06
1.46971229499e-07
5.53835467677e-06
1.59285372705e-07
5.5339272652e-06
1.73016528189e-07
1.87872497651e-07
5.53059027126e-06
5.9532735768e-06
2.88281789238e-08
5.95764953258e-06
4.9397329011e-08
5.96107050808e-06
6.19828650286e-08
5.96352012424e-06
7.05409701869e-08
5.96523074752e-06
7.75672080551e-08
5.96620871723e-06
8.37522643359e-08
5.96643096467e-06
8.94418736712e-08
5.96591102141e-06
9.50259791802e-08
5.96467160481e-06
1.00828229348e-07
5.9627376072e-06
1.07082569674e-07
5.96014821227e-06
1.1397740478e-07
5.95697171911e-06
1.21681024595e-07
5.95332112608e-06
1.30342387027e-07
5.94937198015e-06
1.40080431387e-07
5.94537950109e-06
1.50963655268e-07
5.94168542523e-06
1.62979269248e-07
5.93870213488e-06
1.75998905078e-07
1.89716595755e-07
5.93685744571e-06
6.37963611581e-06
2.60041043205e-08
6.38349378585e-06
4.55396328682e-08
6.38680826333e-06
5.86683458842e-08
6.38931857541e-06
6.80306868989e-08
6.39114983801e-06
7.57359562209e-08
6.39231430537e-06
8.25878830642e-08
6.39278862121e-06
8.89676106236e-08
6.39258243182e-06
9.52322894924e-08
6.3917259564e-06
1.01684865156e-07
6.39026104006e-06
1.08547645016e-07
6.38824940293e-06
1.15989196954e-07
6.38578537742e-06
1.24145202519e-07
6.38300820677e-06
1.33119607229e-07
6.38011306776e-06
1.42975590978e-07
6.37735842044e-06
1.53718206858e-07
6.3750618522e-06
1.65275633344e-07
6.37357843475e-06
1.77482124547e-07
1.90045119373e-07
6.37324861347e-06
5.74283045527e-06
2.40080760033e-08
5.74573955686e-06
4.26305581307e-08
5.74844674126e-06
5.59611907532e-08
5.75062581516e-06
6.58516585153e-08
5.75229965136e-06
7.40621986761e-08
5.75347176359e-06
8.14158642264e-08
5.75412435109e-06
8.83151345714e-08
5.75426447265e-06
9.50922895058e-08
5.75392249376e-06
1.02026964192e-07
5.75314512485e-06
1.09325176011e-07
5.75199918418e-06
1.17135319137e-07
5.75057968863e-06
1.2556430459e-07
5.74901744785e-06
1.34681845809e-07
5.74748306377e-06
1.44509478726e-07
5.74618842137e-06
1.55012680674e-07
5.74537813327e-06
1.6608543429e-07
5.74531269797e-06
1.77546546151e-07
1.89113199412e-07
5.74624380968e-06
7.00009872912e-06
2.20647563626e-08
7.00309008227e-06
3.96392378156e-08
7.0060870012e-06
5.29643187599e-08
7.00866068647e-06
6.3278026376e-08
7.01075649045e-06
7.19664902238e-08
7.01236218906e-06
7.98102725364e-08
7.01345937333e-06
8.72180947121e-08
7.01405710922e-06
9.44947103678e-08
7.01419560681e-06
1.01888675328e-07
7.01393973106e-06
1.09581356372e-07
7.01337990126e-06
1.17694586932e-07
7.01263914114e-06
1.26305033066e-07
7.01187559225e-06
1.35444580096e-07
7.01128558094e-06
1.45099298256e-07
7.01109702432e-06
1.55200355799e-07
7.01155941354e-06
1.65622504955e-07
7.01292157523e-06
1.76183246809e-07
1.86632895965e-07
7.01540109877e-06
8.53273820615e-06
2.01736709179e-08
8.53580792486e-06
3.65696078108e-08
8.53912703677e-06
4.96451399567e-08
8.54219886738e-06
6.02062732708e-08
8.54488433071e-06
6.92809680701e-08
8.54714322087e-06
7.75514906861e-08
8.54895427118e-06
8.54070311547e-08
8.55032955251e-06
9.31195712543e-08
8.55131958824e-06
1.00898764181e-07
8.55200748823e-06
1.08893053925e-07
8.55250815301e-06
1.17193624236e-07
8.5529689184e-06
1.25843445763e-07
8.55357142237e-06
1.34841628793e-07
8.55452655847e-06
1.4414335539e-07
8.55606758554e-06
1.53658903299e-07
8.55843360315e-06
1.63255504791e-07
8.56185222242e-06
1.7276403831e-07
1.8197269953e-07
8.56651103215e-06
1.0401101487e-05
1.82912303153e-08
1.04043101741e-05
3.33607941341e-08
1.04080475911e-05
4.59077810471e-08
1.04117915954e-05
5.6462034046e-08
1.04153278356e-05
6.57447952365e-08
1.04185780989e-05
7.43009574483e-08
1.04215140238e-05
8.24711879042e-08
1.04241496542e-05
9.04836837793e-08
1.04265446106e-05
9.85036896819e-08
1.04287973975e-05
1.06639608047e-07
1.04310416896e-05
1.14948815633e-07
1.04334418722e-05
1.23442302667e-07
1.04361907603e-05
1.32092536521e-07
1.04394996521e-05
1.40833768215e-07
1.04435898003e-05
1.49568622883e-07
1.04486746122e-05
1.5817007967e-07
1.04549454516e-05
1.66492849463e-07
1.74367471861e-07
1.04625505947e-05
1.26787717665e-05
1.63092204931e-08
1.26822899393e-05
2.98426004098e-08
1.26866697857e-05
4.1527636477e-08
1.26913978549e-05
5.17339122803e-08
1.26962023864e-05
6.09399166932e-08
1.27009638348e-05
6.95394968097e-08
1.27056383478e-05
7.77962543556e-08
1.27102383484e-05
8.58836855643e-08
1.27148254466e-05
9.39158940208e-08
1.2719505637e-05
1.01959214877e-07
1.27244175658e-05
1.10035755493e-07
1.2729729194e-05
1.18130899818e-07
1.2735623687e-05
1.26197219435e-07
1.27422959267e-05
1.34162110233e-07
1.27499331085e-05
1.41930819183e-07
1.27587088286e-05
1.49395141501e-07
1.27687621253e-05
1.56438920775e-07
1.62938367486e-07
1.27801922178e-05
1.54554639979e-05
1.40250695434e-08
1.54596322625e-05
2.56740497438e-08
1.54650936078e-05
3.60660725278e-08
1.54713491413e-05
4.54781507417e-08
1.54780855196e-05
5.42033729207e-08
1.54851396597e-05
6.24851481424e-08
1.54924435497e-05
7.04922434415e-08
1.54999955386e-05
7.83314356748e-08
1.55078479535e-05
8.60632968891e-08
1.55160954262e-05
9.37112312961e-08
1.55248643909e-05
1.01266731287e-07
1.55343000122e-05
1.08694947546e-07
1.5544557273e-05
1.1594023436e-07
1.55557875259e-05
1.22931743121e-07
1.55681299829e-05
1.29588900676e-07
1.5581698153e-05
1.35826999991e-07
1.55965746408e-05
1.41563188103e-07
1.46714585635e-07
1.56127984768e-05
1.88405620077e-05
1.11001740685e-08
1.88459737079e-05
2.0262131486e-08
1.88532794753e-05
2.87601555775e-08
1.88619563689e-05
3.68010867525e-08
1.88716411915e-05
4.45185216956e-08
1.8882120214e-05
5.20059895428e-08
1.88932865419e-05
5.93260119034e-08
1.89051063911e-05
6.65114406261e-08
1.89176017797e-05
7.35680810454e-08
1.89308333953e-05
8.04793860457e-08
1.89448891632e-05
8.72112359333e-08
1.89598677663e-05
9.37161679958e-08
1.8975870839e-05
9.99375955555e-08
1.89929886461e-05
1.05813844033e-07
1.90112957118e-05
1.11282348467e-07
1.90308393096e-05
1.16283301115e-07
1.90516396599e-05
1.20763376552e-07
1.24673617707e-07
1.9073680316e-05
2.29675232674e-05
6.91405329704e-09
2.29752200817e-05
1.25652484175e-08
2.29856710501e-05
1.83091622482e-08
2.29982144318e-05
2.42576386864e-08
2.30123893286e-05
3.03437268511e-08
2.30279111471e-05
3.64841307895e-08
2.30446136053e-05
4.2623783896e-08
2.30624071186e-05
4.87178942449e-08
2.30812584414e-05
5.47171214425e-08
2.31011698596e-05
6.05679492414e-08
2.31221660018e-05
6.62155634477e-08
2.31442768097e-05
7.16054208834e-08
2.31675304431e-05
7.66845210055e-08
2.31919415532e-05
8.14029156037e-08
2.32175085755e-05
8.57159579751e-08
2.32442064058e-05
8.95857315479e-08
2.32719874616e-05
9.29829750919e-08
9.58848863978e-08
2.33007765099e-05
1.68145029949e-05
3.11632372202e-09
1.68213489281e-05
5.71933556057e-09
1.68304700277e-05
9.18848830326e-09
1.68412534987e-05
1.34741345776e-08
1.68533321164e-05
1.82655335478e-08
1.68664919091e-05
2.33242015597e-08
1.68805965787e-05
2.85195290798e-08
1.68955566558e-05
3.37577691121e-08
1.69113203358e-05
3.89538245859e-08
1.6927857346e-05
4.40310009491e-08
1.69451495798e-05
4.89236194397e-08
1.69631808128e-05
5.35743249788e-08
1.69819325937e-05
5.79328698327e-08
1.70013797667e-05
6.19559316556e-08
1.70214878843e-05
6.56077405153e-08
1.70422128234e-05
6.88609058017e-08
1.70634989048e-05
7.1696466934e-08
7.41022135429e-08
1.70852813188e-05
1.46386284971e-05
-9.43346655735e-10
1.46457993294e-05
-1.4511205945e-09
1.46550478239e-05
-5.99464677345e-11
1.46656989535e-05
2.8234177393e-09
1.46774437198e-05
6.52088140416e-09
1.46901196031e-05
1.06488551998e-08
1.47036080619e-05
1.50312443529e-08
1.47178274295e-05
1.95388892078e-08
1.47327254881e-05
2.40560950222e-08
1.47482665236e-05
2.84903529181e-08
1.47644200543e-05
3.2770418724e-08
1.47811556254e-05
3.68390295066e-08
1.47984401326e-05
4.06486905393e-08
1.48162356944e-05
4.4160477969e-08
1.48344998324e-05
4.73438856769e-08
1.4853184259e-05
5.01763566132e-08
1.48722377192e-05
5.26431400679e-08
5.47357019693e-08
1.48916038108e-05
1.27446168145e-05
-5.42792823324e-09
1.27522372807e-05
-9.07149285537e-09
1.27615593918e-05
-9.38167338101e-09
1.27719041031e-05
-7.52109627512e-09
1.27830922985e-05
-4.66689482265e-09
1.27950249083e-05
-1.28361786745e-09
1.28076060602e-05
2.45058855448e-09
1.28207705194e-05
6.3749270301e-09
1.28344791871e-05
1.0347890427e-08
1.28487013757e-05
1.42687487873e-08
1.28634063702e-05
1.80658853604e-08
1.28785609566e-05
2.1684866569e-08
1.28941282883e-05
2.50817209565e-08
1.29100673361e-05
2.82216913729e-08
1.29263329672e-05
3.10785403066e-08
1.29428758265e-05
3.36336083835e-08
1.29596430828e-05
3.58759873059e-08
3.78008580245e-08
1.29765779454e-05
1.10960976256e-05
-1.05964361331e-08
1.11042962567e-05
-1.72699595043e-08
1.11135881171e-05
-1.86735577447e-08
1.11234716925e-05
-1.74044724339e-08
1.11339718112e-05
-1.51669349594e-08
1.11450418144e-05
-1.23532096916e-08
1.11566046288e-05
-9.11191911264e-09
1.11686201795e-05
-5.6402678527e-09
1.11810679855e-05
-2.09938541319e-09
1.11939264338e-05
1.41061357236e-09
1.12071684453e-05
4.82433081338e-09
1.12207622374e-05
8.09150153267e-09
1.12346716432e-05
1.11727048857e-08
1.12488569017e-05
1.40369154423e-08
1.12632754631e-05
1.66601048441e-08
1.1277885383e-05
1.90241073141e-08
1.12926471285e-05
2.11141522911e-08
2.2919411645e-08
1.13075288063e-05
9.66141253675e-06
-1.6794325802e-08
9.67027180568e-06
-2.61291979213e-08
9.67936044594e-06
-2.77620080367e-08
9.68864314247e-06
-2.66871413766e-08
9.69835592892e-06
-2.48795777336e-08
9.70846371228e-06
-2.24610153218e-08
9.71891690785e-06
-1.9564909104e-08
9.72971168078e-06
-1.64347822675e-08
9.74084692928e-06
-1.32344959109e-08
9.7523089692e-06
-1.00510338305e-08
9.76407528825e-06
-6.9417641472e-09
9.77611895875e-06
-3.95180893547e-09
9.78840812629e-06
-1.11622584791e-09
9.80090592285e-06
1.53942132536e-09
9.81357031566e-06
3.99608116644e-09
9.8263563506e-06
6.23825238701e-09
9.83921843258e-06
8.25230628467e-09
1.00264783946e-08
9.85211143864e-06
8.4131393246e-06
-2.45812141335e-08
8.42261222879e-06
-3.56020683305e-08
8.43127272913e-06
-3.64225869712e-08
8.43989803341e-06
-3.53124064475e-08
8.44883342834e-06
-3.38149771889e-08
8.4580134577e-06
-3.1640892884e-08
8.46742228642e-06
-2.89736736654e-08
8.47708648779e-06
-2.60989109283e-08
8.48701686823e-06
-2.31647266454e-08
8.49720648406e-06
-2.0240711955e-08
8.50763985913e-06
-1.73750285363e-08
8.51829460939e-06
-1.46065432004e-08
8.52914202575e-06
-1.19633855105e-08
8.54014664508e-06
-9.46503387941e-09
8.55126869959e-06
-7.12581762688e-09
8.56246720066e-06
-4.96006639466e-09
8.57370816435e-06
-2.98851148262e-09
-1.24759879222e-09
8.58498227272e-06
7.32725080153e-06
-3.45476996948e-08
7.33703825872e-06
-4.53895342183e-08
7.34501208754e-06
-4.43963783486e-08
7.35289929494e-06
-4.31996420179e-08
7.360972771e-06
-4.188845474e-08
7.3691611853e-06
-3.98293749591e-08
7.37750688221e-06
-3.73193433557e-08
7.38605856977e-06
-3.46505675197e-08
7.3948304421e-06
-3.19366579463e-08
7.40381831472e-06
-2.92285425831e-08
7.41300975118e-06
-2.65665563032e-08
7.42238577603e-06
-2.39825506715e-08
7.431920739e-06
-2.14984321119e-08
7.44158263589e-06
-1.91269165839e-08
7.45133168281e-06
-1.68748343388e-08
7.46111809298e-06
-1.47465181098e-08
7.47088267208e-06
-1.27529506135e-08
-1.09332458032e-08
7.48056838638e-06
6.38316535453e-06
-4.76471194579e-08
6.3927086197e-06
-5.49328220318e-08
6.40000823904e-06
-5.16960525573e-08
6.40729402997e-06
-5.04854843262e-08
6.41457600815e-06
-4.9170446926e-08
6.42184417415e-06
-4.70975567142e-08
6.4292035794e-06
-4.46787760338e-08
6.43671499235e-06
-4.21620188861e-08
6.44439686556e-06
-3.96185830837e-08
6.45225106621e-06
-3.70829051705e-08
6.46027101704e-06
-3.45865399672e-08
6.46844279145e-06
-3.2154499484e-08
6.47674645195e-06
-2.98021619518e-08
6.48515585791e-06
-2.75364081677e-08
6.4936362475e-06
-2.53553170895e-08
6.50213715032e-06
-2.32474642399e-08
6.51058496035e-06
-2.12008547692e-08
-1.92375504139e-08
6.51888940224e-06
5.56221579581e-06
-6.43984589469e-08
5.57019974476e-06
-6.29168200882e-08
5.57661469301e-06
-5.81110708537e-08
5.58300410476e-06
-5.68749759879e-08
5.58914523412e-06
-5.53116326921e-08
5.59515064507e-06
-5.31030640689e-08
5.60114949099e-06
-5.0677692382e-08
5.60719680663e-06
-4.82094088351e-08
5.61331640929e-06
-4.57383159598e-08
5.61952131846e-06
-4.32879018489e-08
5.62581637885e-06
-4.0881770784e-08
5.63219952796e-06
-3.85378554428e-08
5.63866368771e-06
-3.62665392371e-08
5.64519743933e-06
-3.4070324095e-08
5.65178222756e-06
-3.19402560236e-08
5.65837831051e-06
-2.98437204841e-08
5.66488108846e-06
-2.77036016313e-08
-2.53103268107e-08
5.67095378492e-06
4.84626590245e-06
-8.30571740159e-08
4.84828676896e-06
-6.49377481485e-08
4.84959521844e-06
-5.94196094979e-08
4.84974822641e-06
-5.70280876624e-08
4.84886396435e-06
-5.44274596327e-08
4.84737289276e-06
-5.16121046839e-08
4.8455237412e-06
-4.88286288845e-08
4.84346204972e-06
-4.6147813678e-08
4.8412991942e-06
-4.35755894276e-08
4.83912455102e-06
-4.11134159749e-08
4.83700677768e-06
-3.87642222843e-08
4.83499748719e-06
-3.65288580502e-08
4.83313574286e-06
-3.44050640951e-08
4.83145246188e-06
-3.23872564701e-08
4.82997559172e-06
-3.04635882543e-08
4.82873240933e-06
-2.86006834076e-08
4.82773977614e-06
-2.67110910336e-08
-2.39797397014e-08
4.82640915751e-06
4.11961905453e-06
4.05468129928e-06
3.99526168029e-06
3.9382335845e-06
3.8838061129e-06
3.83219399828e-06
3.78336535851e-06
3.73721752787e-06
3.69364191717e-06
3.6525284687e-06
3.61376419845e-06
3.57723529089e-06
3.5428301854e-06
3.51044288859e-06
3.47997926194e-06
3.4513785509e-06
3.42466744784e-06
3.40068765811e-06
7.11929974369e-08
-7.11948103984e-08
7.61056231957e-08
-4.92341173969e-09
1.40596018718e-08
6.20480571508e-08
-1.4548882904e-07
1.59542872881e-07
-3.40439227469e-07
1.9495523391e-07
-5.48175580643e-07
2.07735017155e-07
-7.65980930838e-07
2.1781085506e-07
-9.92728362809e-07
2.26747914748e-07
-1.22732319556e-06
2.34599877447e-07
-1.46871324853e-06
2.41391385921e-07
-1.71586465985e-06
2.47156016219e-07
-1.96778910648e-06
2.51926192535e-07
-2.22351702513e-06
2.5573206231e-07
-2.48211530512e-06
2.5860029041e-07
-2.7426666166e-06
2.60555084238e-07
-3.00428264216e-06
2.61618248692e-07
-3.26608984751e-06
2.61810683876e-07
-3.52724016707e-06
2.61152736479e-07
-3.78690242798e-06
2.59665569532e-07
-4.0442712813e-06
2.57371505634e-07
-4.29856318289e-06
2.54295129676e-07
-4.5490237528e-06
2.50463542182e-07
-4.7949275906e-06
2.45907181481e-07
-5.03558424483e-06
2.40660044218e-07
-5.27034098491e-06
2.34760270826e-07
-5.49858749239e-06
2.28250325232e-07
-5.71976111927e-06
2.21177350706e-07
-5.93335028764e-06
2.13593320072e-07
-6.13890156359e-06
2.05555096189e-07
-6.33602164438e-06
1.97124390851e-07
-6.52438535764e-06
1.8836741281e-07
-6.70373560289e-06
1.79354506931e-07
-6.87389123818e-06
1.70159157838e-07
-7.03474428515e-06
1.60857133221e-07
-7.18626598035e-06
1.51524863e-07
-7.32850022152e-06
1.42238102813e-07
-7.46156698097e-06
1.33069700885e-07
-7.58565141736e-06
1.24088103344e-07
-7.70100368279e-06
1.15354989302e-07
-7.80792420049e-06
1.06923974932e-07
-7.90676031214e-06
9.88386037734e-08
-7.99788884304e-06
9.11317261791e-08
-8.08171084574e-06
8.38242450934e-08
-8.15863336064e-06
7.69254336461e-08
-8.2290639742e-06
7.04326043914e-08
-8.29339352565e-06
6.43322413991e-08
-8.35199199479e-06
5.86003419339e-08
-8.40519369048e-06
5.32042900175e-08
-8.45329550017e-06
4.81036726405e-08
-8.4965451955e-06
4.32524010645e-08
-8.53514262912e-06
3.85995261918e-08
-8.5692310373e-06
3.40914357452e-08
-8.59890140877e-06
2.96728642451e-08
-8.62418722584e-06
2.52891814572e-08
-8.64507006279e-06
2.08855903097e-08
-8.66147528189e-06
1.64089283508e-08
-8.67328059782e-06
1.18084493154e-08
-8.68031462087e-06
7.03806133707e-09
-8.68235662215e-06
2.04530862809e-09
-8.67920592753e-06
-3.1463518861e-09
-8.67076536841e-06
-8.43694442071e-09
-8.6570181607e-06
-1.37426511071e-08
-8.63802996452e-06
-1.89845651828e-08
-8.61395033363e-06
-2.40748968189e-08
-8.58502930066e-06
-2.89172387696e-08
-8.55161158275e-06
-3.34127136118e-08
-8.51414140405e-06
-3.74661998019e-08
-8.47314486869e-06
-4.09913596597e-08
-8.42922064155e-06
-4.39202474713e-08
-8.38300642764e-06
-4.62090447297e-08
-8.33515758866e-06
-4.784492358e-08
-8.28630467933e-06
-4.88477013843e-08
-8.23702865539e-06
-4.92719835028e-08
-8.18781984836e-06
-4.92031835565e-08
-8.13906123452e-06
-4.87539423941e-08
-8.09100002404e-06
-4.8054639189e-08
-8.04374836096e-06
-4.72458115778e-08
-7.99727508358e-06
-4.64658586733e-08
-7.95142629729e-06
-4.58423150628e-08
-7.90593726509e-06
-4.54809716493e-08
-7.86046922157e-06
-4.54606636819e-08
-7.81463280796e-06
-4.58276769972e-08
-7.76802767692e-06
-4.65968719207e-08
-7.72026339977e-06
-4.77542626467e-08
-7.67098710015e-06
-4.92659224344e-08
-7.61988704693e-06
-5.10876054755e-08
-7.56669569181e-06
-5.31784055626e-08
-7.51116555404e-06
-5.55144014556e-08
-7.45304419343e-06
-5.81053765584e-08
-7.39201939014e-06
-6.10007707762e-08
-7.32768308329e-06
-6.43074039262e-08
-7.25946847059e-06
-6.81787868893e-08
-7.1866127231e-06
-7.28178028397e-08
-7.10811672056e-06
-7.84555053444e-08
-7.02273832792e-06
-8.53385704481e-08
-6.92898975746e-06
-9.37086153604e-08
-6.82516398238e-06
-1.03787795949e-07
-6.70937428909e-06
-1.15752809188e-07
-6.57962410949e-06
-1.29715450985e-07
-6.43389651344e-06
-1.45693607178e-07
-6.27027728741e-06
-1.63585897802e-07
-6.08709600645e-06
-1.83143125552e-07
-5.88308423779e-06
-2.03972173583e-07
-5.6574857097e-06
-2.2555046267e-07
-5.4101589061e-06
-2.47282538437e-07
-5.1416313369e-06
-2.68477851426e-07
-4.85323966718e-06
-2.8835218362e-07
-4.54713477508e-06
-3.06061058588e-07
-4.2260764845e-06
-3.2102697518e-07
-3.89321287274e-06
-3.32826245711e-07
-3.55225019402e-06
-3.40939439527e-07
-3.20689337835e-06
-3.45326314886e-07
-2.86099468674e-06
-3.4588548413e-07
-2.51825288598e-06
-3.4272174309e-07
-2.18147530578e-06
-3.36778735402e-07
-1.85412656738e-06
-3.27346844795e-07
-1.53697498844e-06
-3.17172561573e-07
-1.23506878817e-06
-3.01921958927e-07
-9.46706707572e-07
-2.88403069419e-07
-6.87074619121e-07
-2.59663733423e-07
-4.57628326095e-07
-2.29454592649e-07
-1.89413010747e-07
-2.68156307856e-07
1.23596210704e-07
-3.12910131676e-07
4.2560174606e-07
-3.01900967878e-07
6.84532697613e-07
-2.58872178431e-07
9.05657894537e-07
-2.21068357716e-07
1.09799982675e-06
-1.9232753265e-07
1.26696260829e-06
-1.68946549241e-07
1.41574510938e-06
-1.48803397206e-07
1.54655343363e-06
-1.30823835885e-07
1.66099367622e-06
-1.14487834512e-07
1.76043329339e-06
-9.94801101e-08
1.84600636279e-06
-8.56419347787e-08
1.91878575328e-06
-7.28419583309e-08
1.97971233938e-06
-6.10154199321e-08
2.0297118408e-06
-5.00852319062e-08
2.06961496478e-06
-4.00142701178e-08
2.10024600761e-06
-3.07493891082e-08
2.12237106317e-06
-2.22709862381e-08
2.13677715964e-06
-1.45613166414e-08
2.14429639984e-06
-7.67892165597e-09
2.14607242977e-06
-1.9283531688e-09
2.14324207254e-06
2.68929571831e-09
2.13641911864e-06
6.68974329665e-09
2.12595359644e-06
1.0339782367e-08
2.11222135826e-06
1.36105285756e-08
2.09565036807e-06
1.6454767145e-08
2.0766390294e-06
1.88975124944e-08
2.05555240927e-06
2.09767811168e-08
2.03271328456e-06
2.27302254137e-08
2.00841778626e-06
2.41891018917e-08
1.98292744383e-06
2.53840281263e-08
1.95648229453e-06
2.63405989875e-08
1.92929255668e-06
2.70854187013e-08
1.90154969493e-06
2.76404240973e-08
1.87341907053e-06
2.80293422715e-08
1.84504911812e-06
2.82711073388e-08
1.81656556424e-06
2.83870448899e-08
1.78807840208e-06
2.83935810701e-08
1.75967818036e-06
2.83100047531e-08
1.73144041942e-06
2.81506692818e-08
1.70342398921e-06
2.79335217603e-08
1.67567251171e-06
2.76717223395e-08
1.64821495811e-06
2.73827701666e-08
1.62106326364e-06
2.70801062486e-08
1.59421479977e-06
2.67826566276e-08
1.56764578653e-06
2.65063823191e-08
1.54131499547e-06
2.6274546186e-08
1.51515195786e-06
2.6109622914e-08
1.48906020058e-06
2.60448893804e-08
1.46289781845e-06
2.61175095293e-08
1.43647665539e-06
2.63823827992e-08
1.40952940225e-06
2.69091323337e-08
1.38169356694e-06
2.7802963821e-08
1.35244544513e-06
2.92142702701e-08
1.32103017777e-06
3.13855317509e-08
1.28628327509e-06
3.47149819717e-08
1.24622062232e-06
4.00375205415e-08
1.19753746065e-06
4.86638503946e-08
7.31056574583e-08
1.12443109232e-06
-1.35905338276e-07
6.47122430291e-08
-3.2225740747e-07
1.81428001867e-07
-5.09497554259e-07
2.49289756648e-07
-6.61777081336e-07
3.11821761228e-07
-8.27141264328e-07
3.60321745983e-07
-1.01480482152e-06
3.95398921822e-07
-1.21995803765e-06
4.22966876535e-07
-1.43858826391e-06
4.45379196232e-07
-1.66785707951e-06
4.63871791912e-07
-1.90564941809e-06
4.79185200496e-07
-2.15027255368e-06
4.9178221183e-07
-2.40030674931e-06
5.01962179285e-07
-2.65449799467e-06
5.09926285863e-07
-2.91171092479e-06
5.15815229485e-07
-3.1708851268e-06
5.19732171215e-07
-3.43102151992e-06
5.21756816558e-07
-3.69116288548e-06
5.21954844072e-07
-3.95039190695e-06
5.20384071725e-07
-4.2078226168e-06
5.17099026135e-07
-4.4626026768e-06
5.12154053732e-07
-4.71391060513e-06
5.05605840728e-07
-4.96095948156e-06
4.97515148656e-07
-5.20299769568e-06
4.87948345021e-07
-5.43931302028e-06
4.76978471299e-07
-5.66923578547e-06
4.64686245999e-07
-5.892142804e-06
4.51160796e-07
-6.10746231326e-06
4.36500330095e-07
-6.31467775714e-06
4.20812554096e-07
-6.51333397702e-06
4.04214953209e-07
-6.70304040051e-06
3.8683473021e-07
-6.88347770723e-06
3.68808367998e-07
-7.05439989888e-06
3.50280635835e-07
-7.21564025364e-06
3.3140303843e-07
-7.36711096982e-06
3.12331620967e-07
-7.50880680943e-06
2.93224043902e-07
-7.64080121666e-06
2.74236103531e-07
-7.76324617174e-06
2.55517810586e-07
-7.87636388871e-06
2.37209245186e-07
-7.98044234705e-06
2.19436429152e-07
-8.0758227393e-06
2.0230757544e-07
-8.16289121906e-06
1.85909846473e-07
-8.24206358182e-06
1.70307035604e-07
-8.31377492419e-06
1.55538102809e-07
-8.3784636526e-06
1.41616836931e-07
-8.43656099687e-06
1.28532223601e-07
-8.48847620747e-06
1.16249888406e-07
-8.53458809438e-06
1.04714351526e-07
-8.57523309289e-06
9.3851640763e-08
-8.61069960897e-06
8.35722905014e-08
-8.64121916655e-06
7.37743477355e-08
-8.66696484282e-06
6.43475106413e-08
-8.68804798635e-06
5.51772864292e-08
-8.70452015213e-06
4.61476595078e-08
-8.71636875977e-06
3.71407730245e-08
-8.72352665381e-06
2.80464625294e-08
-8.72588100934e-06
1.87666882839e-08
-8.72327535266e-06
9.20614580901e-09
-8.71551213451e-06
-7.21440700205e-10
-8.70256308062e-06
-1.09000489078e-08
-8.68455616864e-06
-2.11491679456e-08
-8.66157641843e-06
-3.14126807098e-08
-8.63371824763e-06
-4.1596487679e-08
-8.6011404357e-06
-5.155816694e-08
-8.56408737957e-06
-6.11233875494e-08
-8.52289543091e-06
-7.01047188478e-08
-8.47798591292e-06
-7.83174113574e-08
-8.42985484502e-06
-8.55925966155e-08
-8.37904846157e-06
-9.17928125112e-08
-8.32613861565e-06
-9.68254427775e-08
-8.27169008995e-06
-1.00652750347e-07
-8.21623187981e-06
-1.03298595319e-07
-8.16022495359e-06
-1.04849829017e-07
-8.10403967549e-06
-1.0545265162e-07
-8.0479346381e-06
-1.05303148694e-07
-7.99204974754e-06
-1.04633587013e-07
-7.93640360058e-06
-1.0369479563e-07
-7.8809059713e-06
-1.02737262523e-07
-7.82537337289e-06
-1.0199170682e-07
-7.76955674353e-06
-1.01652023497e-07
-7.71316856454e-06
-1.01861616322e-07
-7.6559161477e-06
-1.02705394449e-07
-7.59752776764e-06
-1.04207778657e-07
-7.53777759789e-06
-1.06338304112e-07
-7.47649758721e-06
-1.09024486319e-07
-7.41358189398e-06
-1.12170998197e-07
-7.34897425625e-06
-1.15683109889e-07
-7.28264613035e-06
-1.1949298237e-07
-7.21455956047e-06
-1.23587466919e-07
-7.1446148055e-06
-1.28031258541e-07
-7.07260170124e-06
-1.32993409187e-07