/*--------------------------------*- C++ -*----------------------------------*\
| =========                 |                                                 |
| \\      /  F ield         | OpenFOAM: The Open Source CFD Toolbox           |
|  \\    /   O peration     | Version:  v1806                                 |
|   \\  /    A nd           | Web:      www.OpenFOAM.com                      |
|    \\/     M anipulation  |                                                 |
\*---------------------------------------------------------------------------*/
FoamFile
{
    version     2.0;
    format      ascii;
    class       surfaceScalarField;
    location    "23";
    object      phia;
}
// * * * * * * * * * * * * * * * * * * * * * * * * * * * * * * * * * * * * * //

dimensions      [0 3 -1 0 0 0 0];
oriented        oriented;


internalField   nonuniform List<scalar> 
24170
(
1.96669620047e-07
1.29648990377e-07
2.85530063014e-07
-8.23260746773e-08
2.72739160045e-07
1.60154905355e-08
2.82933349714e-07
-1.06713837323e-08
2.88528189545e-07
-5.92809414007e-09
2.96699672255e-07
-9.38879376843e-09
3.05998251937e-07
-1.06046682781e-08
3.17474886092e-07
-1.25621282628e-08
3.30703786573e-07
-1.43911155042e-08
3.46123480686e-07
-1.59162257859e-08
3.63166319737e-07
-1.7582902459e-08
3.83894783745e-07
-2.08047356822e-08
4.13576329759e-07
-2.97323267131e-08
4.59673473676e-07
-4.58882782312e-08
5.19744976582e-07
-5.97916739942e-08
5.69027916219e-07
-4.87942460468e-08
6.29611154349e-07
-5.9937433594e-08
-5.51289401222e-07
1.18152852584e-06
7.97759344842e-07
-3.10871907135e-07
3.87432330826e-07
3.38369396329e-07
4.69578302814e-07
-6.09721021665e-08
4.71722516321e-07
-1.16874136005e-08
4.87424500735e-07
-2.14115755359e-08
5.00736800778e-07
-2.36702231271e-08
5.16550278758e-07
-2.78192726228e-08
5.34030715605e-07
-3.14305898537e-08
5.53324837497e-07
-3.49970826356e-08
5.74631020313e-07
-3.79447149259e-08
5.97839531944e-07
-4.12959069354e-08
6.24973890393e-07
-4.80583347985e-08
6.58804204352e-07
-6.35448067859e-08
7.00153653569e-07
-8.7040272663e-08
7.40603413161e-07
-9.99236351857e-08
7.74808348491e-07
-8.25249843042e-08
8.64343652019e-07
-1.48854164776e-07
-6.6952758685e-07
9.83049928419e-07
-1.34801234321e-07
1.91120393964e-07
4.57036011587e-07
-2.52292092795e-07
3.73459184911e-07
2.31507266455e-08
3.80431872018e-07
-1.99659063004e-08
3.79148252177e-07
-2.11610271245e-08
3.82261192917e-07
-2.80535965651e-08
3.85402770502e-07
-3.20898230344e-08
3.90399843441e-07
-3.72328595481e-08
3.96837125687e-07
-4.21468452908e-08
4.05417124378e-07
-4.68439348042e-08
4.16758777788e-07
-5.29302187512e-08
4.33253136205e-07
-6.46033867089e-08
4.56870736738e-07
-8.71574419334e-08
4.86357866597e-07
-1.16394551752e-07
5.17937619952e-07
-1.3132153825e-07
5.69602443532e-07
-1.33925186177e-07
6.84257513298e-07
-2.63191639241e-07
-6.89985546705e-07
7.04866478269e-07
8.73544303294e-07
-2.80682646244e-07
3.65223231964e-07
2.61930216978e-07
4.60762077074e-07
-6.96685900904e-08
4.52409603184e-07
-1.15656898291e-08
4.63581290339e-07
-3.30913209464e-08
4.6836961464e-07
-3.42443294638e-08
4.75926644026e-07
-4.11788011375e-08
4.83398648329e-07
-4.60488663927e-08
4.91535457156e-07
-5.13785542972e-08
5.00423105649e-07
-5.64037335663e-08
5.1076312342e-07
-6.36917093134e-08
5.23811521302e-07
-7.78026835348e-08
5.39068316066e-07
-1.02406814434e-07
5.52931379034e-07
-1.30117991869e-07
5.66557469677e-07
-1.44720703938e-07
6.03532725646e-07
-1.70596465503e-07
6.65509170324e-07
-3.24807426525e-07
-6.34356579666e-07
6.10181093156e-07
2.22620215315e-08
1.14134580273e-07
5.1873335157e-07
-2.36361123488e-07
4.19943105118e-07
2.78915582603e-08
4.41910227394e-07
-3.51299270656e-08
4.41775833143e-07
-3.42667178716e-08
4.50128031398e-07
-4.37474715372e-08
4.57397441266e-07
-4.94010784195e-08
4.66692338895e-07
-5.59644925372e-08
4.77213485647e-07
-6.23896567644e-08
4.89855611753e-07
-6.92972539259e-08
5.05439381122e-07
-7.94675635326e-08
5.24578729018e-07
-9.69875810242e-08
5.45257269565e-07
-1.23061954952e-07
5.64057464588e-07
-1.48818062857e-07
5.85986280808e-07
-1.66511329463e-07
6.26303406016e-07
-2.10727394425e-07
6.57072895308e-07
-3.55370308364e-07
-5.62867454768e-07
5.85663829463e-07
8.19031173468e-07
-2.51387328358e-07
4.1791837152e-07
1.66211145604e-07
4.85061023361e-07
-3.88349299881e-08
4.87049559081e-07
-3.78896776965e-08
4.93704063816e-07
-4.20509623427e-08
4.98633277827e-07
-5.00548723653e-08
5.04670950927e-07
-5.66992126793e-08
5.11321220176e-07
-6.36815696947e-08
5.18889569608e-07
-7.0748263601e-08
5.28125875587e-07
-7.90865944266e-08
5.39953333509e-07
-9.16261752239e-08
5.5438487076e-07
-1.11587612543e-07
5.69272543341e-07
-1.37975394454e-07
5.83598545013e-07
-1.63083731091e-07
6.04504623716e-07
-1.87288598756e-07
6.36796444565e-07
-2.42851308243e-07
6.45485901198e-07
-3.63857102186e-07
-4.99319396356e-07
5.82179601458e-07
2.09155451262e-07
1.73267176722e-08
5.22030939168e-07
-1.50380948993e-07
5.05856275588e-07
-2.49144046037e-08
5.08368289226e-07
-4.21390236528e-08
5.152510815e-07
-5.01382013608e-08
5.22172789557e-07
-5.79152697131e-08
5.29859271447e-07
-6.50291622422e-08
5.3825715675e-07
-7.25195320297e-08
5.47558632833e-07
-8.03291711864e-08
5.58319901959e-07
-9.00322661306e-08
5.70880461662e-07
-1.04285885346e-07
5.84372067009e-07
-1.25111694392e-07
5.96762433377e-07
-1.50341897951e-07
6.08804280133e-07
-1.75062582045e-07
6.26363792993e-07
-2.04755881014e-07
6.4635342645e-07
-2.62709675652e-07
6.40119032728e-07
-3.57440335085e-07
-4.46923898726e-07
5.87633649336e-07
6.73118121077e-07
-1.40714998396e-07
5.21594736546e-07
-9.76728975378e-10
5.36867385973e-07
-4.16588159999e-08
5.45125562566e-07
-5.17147214719e-08
5.50171557117e-07
-5.64243705076e-08
5.56414571464e-07
-6.52568871146e-08
5.63087068507e-07
-7.26479818137e-08
5.70693551724e-07
-8.08306449241e-08
5.79403003939e-07
-8.9591032203e-08
5.89707399395e-07
-1.00691058421e-07
6.01447807245e-07
-1.16270219206e-07
6.13331660873e-07
-1.37117509089e-07
6.23858242583e-07
-1.6091635814e-07
6.34409718102e-07
-1.85596767502e-07
6.47780200555e-07
-2.18073461148e-07
6.56891992076e-07
-2.71713774715e-07
6.42468217535e-07
-3.42986750069e-07
-4.03212958367e-07
5.98837057861e-07
5.10114449243e-07
-1.01533798803e-07
5.71075737187e-07
-6.6134199893e-08
5.75166874e-07
-4.84353669457e-08
5.7995669711e-07
-5.8223936457e-08
5.85943900409e-07
-6.35063854059e-08
5.91995898714e-07
-7.20194610892e-08
5.98553138393e-07
-7.96476915499e-08
6.05781724201e-07
-8.83312186274e-08
6.14006656539e-07
-9.79733153962e-08
6.23477997168e-07
-1.10254161195e-07
6.33739771136e-07
-1.26555368179e-07
6.43514188464e-07
-1.46894494573e-07
6.52026349431e-07
-1.69400496857e-07
6.60461987708e-07
-1.93991977507e-07
6.68889172092e-07
-2.26436924497e-07
6.6971429649e-07
-2.72451588093e-07
6.51680585502e-07
-3.24871854005e-07
-3.66273253621e-07
6.14605602316e-07
6.16406659528e-07
-1.28228924027e-07
6.06148962436e-07
-5.9719263141e-08
6.13006222084e-07
-5.77705407385e-08
6.18245901554e-07
-6.52370243865e-08
6.23844472213e-07
-7.03981080467e-08
6.29658448673e-07
-7.88784151261e-08
6.35900843804e-07
-8.6663447213e-08
6.42725017714e-07
-9.57682721196e-08
6.50377040161e-07
-1.06045067651e-07
6.58835215701e-07
-1.1899891963e-07
6.67422306885e-07
-1.35338214721e-07
6.75096495572e-07
-1.54693017815e-07
6.8154046961e-07
-1.75866844935e-07
6.87261050817e-07
-1.9972417108e-07
6.90718461659e-07
-2.29840039917e-07
6.85716067408e-07
-2.67378323495e-07
6.66358131317e-07
-3.05528805218e-07
-3.34151728919e-07
6.34217952875e-07
6.47714650035e-07
-1.43690664334e-07
6.50385299918e-07
-6.65656115376e-08
6.54533652667e-07
-6.48012534313e-08
6.59348360953e-07
-7.18729519251e-08
6.64495761328e-07
-7.67678084358e-08
6.69878171649e-07
-8.50101078647e-08
6.7561630591e-07
-9.29326795511e-08
6.81850957794e-07
-1.02319002042e-07
6.88666354288e-07
-1.13087214473e-07
6.95840234271e-07
-1.26286053441e-07
7.02608976021e-07
-1.42185353384e-07
7.08227978575e-07
-1.60289278771e-07
7.12490951551e-07
-1.80141451105e-07
7.15214648125e-07
-2.02380204852e-07
7.1426862816e-07
-2.28847005303e-07
7.053640196e-07
-2.58371317272e-07
6.85795333582e-07
-2.85910825668e-07
-3.05749667812e-07
6.57306850421e-07
5.82925397578e-07
-1.58409491428e-07
5.83875870485e-07
-7.19183686199e-08
5.86592600081e-07
-7.05853519445e-08
5.90145806449e-07
-7.74300699531e-08
5.94059678404e-07
-8.20743255321e-08
5.98151994111e-07
-8.99965772601e-08
6.02505073142e-07
-9.79238386005e-08
6.07167240208e-07
-1.07371483149e-07
6.12109327736e-07
-1.18266836746e-07
6.17018853729e-07
-1.31302441444e-07
6.21293840866e-07
-1.46514645542e-07
6.24445027922e-07
-1.63540509591e-07
6.26362300325e-07
-1.81829899499e-07
6.26359265276e-07
-2.02380749598e-07
6.22895742336e-07
-2.25169325974e-07
6.13526553687e-07
-2.48942363461e-07
5.97321079705e-07
-2.69648244861e-07
-2.84073363177e-07
5.75569588898e-07
7.09429872452e-07
-1.71880094421e-07
7.09913271611e-07
-7.58027445392e-08
7.1234109268e-07
-7.54744949966e-08
7.15711173986e-07
-8.26406911827e-08
7.19600509113e-07
-8.71458726781e-08
7.23634521529e-07
-9.49280957241e-08
7.27925052154e-07
-1.02759439444e-07
7.32395678342e-07
-1.12250223141e-07
7.36936463412e-07
-1.23014383678e-07
7.41091371823e-07
-1.35629278382e-07
7.44222859493e-07
-1.49840119165e-07
7.46074926449e-07
-1.65270702845e-07
7.46102724805e-07
-1.81905667745e-07
7.43745305613e-07
-1.99697742854e-07
7.37204785582e-07
-2.18582456764e-07
7.25161485973e-07
-2.3661822765e-07
7.07035652825e-07
-2.51589656531e-07
-2.612415785e-07
6.84337705676e-07
8.61661155936e-07
-1.84251149453e-07
8.62407590971e-07
-7.94902414317e-08
8.64423005233e-07
-7.9763584188e-08
8.67350581767e-07
-8.67029517314e-08
8.70767492528e-07
-9.1655471458e-08
8.74402638743e-07
-9.89467052431e-08
8.78117532856e-07
-1.06941810769e-07
8.81903683683e-07
-1.16084008089e-07
8.85379707778e-07
-1.26643974013e-07
8.88091360654e-07
-1.38316638999e-07
8.89414139095e-07
-1.51337475768e-07
8.89071799799e-07
-1.64896220465e-07
8.86587766322e-07
-1.79248947167e-07
8.81010281176e-07
-1.93946268897e-07
8.71269943921e-07
-2.08534401854e-07
8.56338576398e-07
-2.21553499008e-07
8.36578257294e-07
-2.31564401424e-07
-2.37574273083e-07
8.1282471515e-07
1.04608625966e-06
-1.9308122624e-07
1.04668066238e-06
-8.25985718389e-08
1.04816028847e-06
-8.27965900266e-08
1.04991749414e-06
-8.98363091719e-08
1.05253759135e-06
-9.45254228609e-08
1.05487930084e-06
-1.01816683016e-07
1.057504729e-06
-1.09292963881e-07
1.05960345734e-06
-1.18276824796e-07
1.061335072e-06
-1.27886510698e-07
1.06149237105e-06
-1.38752444501e-07
1.06032675479e-06
-1.49821485867e-07
1.05679261459e-06
-1.61559228809e-07
1.05104293007e-06
-1.73042648308e-07
1.04172040761e-06
-1.84561784514e-07
1.02860493491e-06
-1.94933635813e-07
1.01094415302e-06
-2.03727227891e-07
9.89450306046e-07
-2.09729244101e-07
-2.12756074531e-07
9.64892152459e-07
1.26827623391e-06
-1.96077972232e-07
1.27020570373e-06
-8.65864587238e-08
1.27052356904e-06
-8.46347248419e-08
1.27075885929e-06
-9.06933557114e-08
1.27132773524e-06
-9.56229095236e-08
1.27190541641e-06
-1.02158630086e-07
1.27200678525e-06
-1.09401885468e-07
1.27184289513e-06
-1.17451575057e-07
1.2702337258e-06
-1.26292469522e-07
1.2675205624e-06
-1.35406094979e-07
1.26230575642e-06
-1.44879877128e-07
1.25538564486e-06
-1.54020159859e-07
1.24521244705e-06
-1.6296894863e-07
1.23236226662e-06
-1.71017101152e-07
1.21547721216e-06
-1.78012757169e-07
1.19561262071e-06
-1.83150864331e-07
1.17227033281e-06
-1.86349132327e-07
-1.87392779003e-07
1.1475736572e-06
1.5645194977e-06
-2.16768049331e-07
1.54017940828e-06
-6.35055268313e-08
1.53733185122e-06
-8.28228133045e-08
1.53525671394e-06
-8.91350560993e-08
1.53276160171e-06
-9.33342134488e-08
1.52980522386e-06
-9.91122318028e-08
1.52632300789e-06
-1.05631224731e-07
1.52194924368e-06
-1.12717376604e-07
1.51627939914e-06
-1.20159835179e-07
1.50871793495e-06
-1.27644148505e-07
1.49919467639e-06
-1.3496143464e-07
1.48719450868e-06
-1.41802146322e-07
1.47271198244e-06
-1.48011295674e-07
1.45525017652e-06
-1.53267525486e-07
1.43511829932e-06
-1.57346709085e-07
1.41225854205e-06
-1.59964868607e-07
1.38744812092e-06
-1.60966985474e-07
-1.59926528967e-07
1.36022299951e-06
1.75284007688e-06
-8.76593497065e-08
1.85587354225e-06
-1.6783542544e-07
1.86516269261e-06
-9.32309234645e-08
1.85854603982e-06
-8.29408590903e-08
1.85074975965e-06
-8.56447342147e-08
1.8427151171e-06
-9.1012795011e-08
1.83440687707e-06
-9.69818113132e-08
1.82492257148e-06
-1.03020724288e-07
1.81427101105e-06
-1.08998883984e-07
1.80151690119e-06
-1.14695505338e-07
1.78707733539e-06
-1.19972520274e-07
1.77011524608e-06
-1.24628665082e-07
1.75122595059e-06
-1.2851464518e-07
1.72968634325e-06
-1.31476555579e-07
1.7063522502e-06
-1.33358376006e-07
1.68071735227e-06
-1.34047042241e-07
1.65410784071e-06
-1.33632329205e-07
-1.32814780391e-07
1.62727587425e-06
2.72754134865e-06
-5.21184462086e-07
2.35510729828e-06
2.01646236987e-07
2.26939243394e-06
-8.38411669438e-09
2.24049250565e-06
-5.52768455112e-08
2.22389545377e-06
-6.90716352016e-08
2.20930478631e-06
-7.66244381226e-08
2.19521361075e-06
-8.23731184002e-08
2.17978363217e-06
-8.74284789245e-08
2.16343079222e-06
-9.20227417763e-08
2.1450980375e-06
-9.61381311503e-08
2.12551958857e-06
-9.97476587143e-08
2.10390108738e-06
-1.02769367587e-07
2.08121813342e-06
-1.05158409508e-07
2.0568208201e-06
-1.06832528534e-07
2.03197700353e-06
-1.07818845933e-07
2.00646657298e-06
-1.08273814701e-07
1.98167971613e-06
-1.08124758697e-07
-1.06334434762e-07
1.95550550729e-06
8.69721052212e-07
2.84500764636e-07
1.52498811394e-06
-4.56990533738e-07
1.61056802523e-06
-9.79663581838e-08
1.6121433421e-06
-5.86344260029e-08
1.60292809379e-06
-6.09270801139e-08
1.59134497121e-06
-6.54967323164e-08
1.57867182431e-06
-6.97069579776e-08
1.56446242823e-06
-7.33485737721e-08
1.54934884822e-06
-7.6514972137e-08
1.53261466471e-06
-7.94010035685e-08
1.5150556786e-06
-8.1681455951e-08
1.4959106386e-06
-8.35135635742e-08
1.4759090642e-06
-8.46728202304e-08
1.45454285089e-06
-8.5287495902e-08
1.43223226348e-06
-8.51165650818e-08
1.40815265538e-06
-8.40127775909e-08
1.38226305669e-06
-8.19674626947e-08
-8.0919334287e-08
1.35693881671e-06
2.5407285943e-06
-7.94417128676e-07
1.51413195041e-06
5.66044259477e-07
1.42823413144e-06
-1.23891463808e-08
1.42440210514e-06
-5.72142370233e-08
1.42135627782e-06
-5.89625355168e-08
1.41483023641e-06
-6.03910201438e-08
1.4069504593e-06
-6.22295697643e-08
1.39777720727e-06
-6.45466210603e-08
1.3878044511e-06
-6.67824943024e-08
1.37727264531e-06
-6.87817913253e-08
1.36616556328e-06
-7.05665792155e-08
1.35476060475e-06
-7.18756017629e-08
1.34297287579e-06
-7.27108911138e-08
1.33095417955e-06
-7.30051645347e-08
1.31895135057e-06
-7.28777961578e-08
1.30780212859e-06
-7.26702580592e-08
1.29853286041e-06
-7.25040981848e-08
-6.95429127461e-08
1.28722838801e-06
-2.98198151233e-07
7.76204694152e-07
1.17983194396e-06
-9.11487177382e-07
1.22130745199e-06
-5.64447337789e-08
1.20214857125e-06
-3.82268722215e-08
1.18552021372e-06
-4.32663807721e-08
1.1722810473e-06
-4.69817549099e-08
1.15811858956e-06
-4.8731595347e-08
1.14325343592e-06
-5.01701121987e-08
1.12783938336e-06
-5.15951339472e-08
1.11180272388e-06
-5.30371906087e-08
1.0955011225e-06
-5.42294378186e-08
1.07885707061e-06
-5.52043232253e-08
1.06218747066e-06
-5.58585934672e-08
1.04558562607e-06
-5.62403698024e-08
1.02916860124e-06
-5.6241216026e-08
1.01219581193e-06
-5.55319064312e-08
9.9380650096e-07
-5.39647002125e-08
-5.62937492615e-08
9.80670461691e-07
3.11782301707e-06
-1.22906135746e-06
1.07575693934e-06
1.13215134126e-06
1.09845216678e-06
-7.62142568149e-08
1.11405176143e-06
-5.32996038866e-08
1.12122071311e-06
-4.96281911381e-08
1.11814797385e-06
-4.42273303814e-08
1.11445991226e-06
-4.4929865359e-08
1.1097521071e-06
-4.54561361136e-08
1.10416916511e-06
-4.61762068692e-08
1.09791830238e-06
-4.66384692436e-08
1.09066711291e-06
-4.70028252135e-08
1.08265809407e-06
-4.70643082875e-08
1.07376831043e-06
-4.68929301316e-08
1.06410436452e-06
-4.634021871e-08
1.05355383458e-06
-4.55701553066e-08
1.04340778067e-06
-4.51648928567e-08
1.03504380602e-06
-4.55338748209e-08
-3.9646158947e-08
1.01856261133e-06
-1.53133165479e-06
1.27105552714e-06
1.04259652344e-06
-1.43849680005e-06
9.2213699781e-07
4.53021657967e-08
9.00802928758e-07
-2.98128189248e-08
8.77308877452e-07
-2.49162319646e-08
8.67274099338e-07
-3.28663781691e-08
8.54375011981e-07
-3.15111056847e-08
8.41721700525e-07
-3.24855026889e-08
8.28978879591e-07
-3.30961906655e-08
8.16392108511e-07
-3.395165587e-08
8.04152792172e-07
-3.45431806972e-08
7.92309993343e-07
-3.50468440537e-08
7.81079856083e-07
-3.5399123864e-08
7.70574941153e-07
-3.56530068014e-08
7.60833313809e-07
-3.56309468239e-08
7.50428647821e-07
-3.460148126e-08
7.36726995678e-07
-3.17035587428e-08
-3.67971799545e-08
7.33985331767e-07
3.37846851528e-06
-1.26072769932e-06
6.12305384736e-07
1.33215077284e-06
8.82706287283e-07
-2.21213077716e-07
8.71514131499e-07
-1.60359765149e-08
8.89457743825e-07
-4.12982405051e-08
8.81572302941e-07
-2.41421803774e-08
8.78686882453e-07
-2.77086446748e-08
8.73423632577e-07
-2.66193850774e-08
8.67905283855e-07
-2.72033979191e-08
8.61771051457e-07
-2.73943264027e-08
8.55221257443e-07
-2.76553927239e-08
8.48273413536e-07
-2.77944481276e-08
8.40963943993e-07
-2.78377030693e-08
8.33278381153e-07
-2.77178893482e-08
8.25349624904e-07
-2.74821244209e-08
8.18709156271e-07
-2.78194769231e-08
8.17213656673e-07
-2.99982554124e-08
-2.09563419353e-08
8.01454798105e-07
-1.45687435445e-06
9.3366629842e-07
1.0609270157e-06
-1.1811225334e-06
6.44944678291e-07
1.97809944232e-07
6.90557553241e-07
-5.900462039e-08
6.53374509248e-07
-1.88483539429e-09
6.5330229079e-07
-2.26577815276e-08
6.42421009556e-07
-1.59655457128e-08
6.34584894776e-07
-1.81816206127e-08
6.25781997671e-07
-1.79233419056e-08
6.17259068392e-07
-1.84891843847e-08
6.08702358574e-07
-1.871642098e-08
6.0005453635e-07
-1.87884799978e-08
5.91311091061e-07
-1.87900673824e-08
5.8252614559e-07
-1.86817190484e-08
5.73710183025e-07
-1.84614628804e-08
5.63400156189e-07
-1.73120412441e-08
5.46949690315e-07
-1.33931940461e-08
-2.26536250491e-08
5.48828900565e-07
2.39969357425e-06
-8.23122890241e-07
3.68297715394e-07
8.54805791666e-07
7.45947834319e-07
-1.76624544962e-07
6.81241663355e-07
1.06258939375e-08
7.03664016435e-07
-2.41738159105e-08
6.9014218265e-07
-8.10538799909e-09
6.88105679515e-07
-1.30445803282e-08
6.81916893038e-07
-1.13993257465e-08
6.76514736245e-07
-1.20852111426e-08
6.70513431286e-07
-1.20849069432e-08
6.64553389184e-07
-1.22434124844e-08
6.58394330209e-07
-1.23981090144e-08
6.52436049592e-07
-1.25884640775e-08
6.4682183318e-07
-1.28416938432e-08
6.4166796404e-07
-1.31215803337e-08
6.38726341528e-07
-1.42163964283e-08
6.44532065078e-07
-1.90325020682e-08
-9.15403441617e-09
6.3118478242e-07
-8.36940943681e-07
5.74890592335e-07
7.64929611448e-07
-7.42268580668e-07
4.77391478839e-07
1.15223250045e-07
5.1768150156e-07
-2.49238547603e-08
4.93685559482e-07
1.17871510503e-09
4.93825017397e-07
-7.35534133547e-09
4.86738657802e-07
-5.05429634686e-09
4.81938842833e-07
-5.99666636021e-09
4.76396852035e-07
-6.10827228114e-09
4.71274904076e-07
-6.47883852005e-09
4.66245921547e-07
-6.73445766615e-09
4.61237386507e-07
-7.05867900891e-09
4.56274644043e-07
-7.40869546585e-09
4.51389900737e-07
-7.75346653226e-09
4.46471206822e-07
-8.03450340749e-09
4.39807623647e-07
-7.40365918575e-09
4.22596256704e-07
-1.68437309626e-09
-1.47444168591e-08
4.28358140859e-07
1.3229715048e-06
-2.58072282415e-07
4.50027579655e-07
1.36207429946e-07
6.06864832913e-07
-3.65590655713e-08
5.78683540922e-07
8.67773550102e-09
5.85351939881e-07
-3.72991643526e-09
5.79340140884e-07
-2.60789011074e-10
5.76893068449e-07
-1.60007172651e-09
5.72839904124e-07
-1.24538810719e-09
5.6875617336e-07
-1.49169759158e-09
5.64316413563e-07
-1.45970015507e-09
5.59639330408e-07
-1.46725096045e-09
5.54518692301e-07
-1.55854152396e-09
5.49029145949e-07
-1.65650690534e-09
5.43106392638e-07
-1.59935327597e-09
5.36438767948e-07
-1.17410908263e-09
5.30736323035e-07
-1.53697635801e-09
5.35974706904e-07
-6.73815895668e-09
1.16298997225e-08
5.09790616974e-07
1.6261973572e-07
2.99227556049e-07
2.6318555257e-07
2.72040575662e-07
2.68422525886e-07
2.68278955793e-07
2.66766866999e-07
2.65591054527e-07
2.64179230724e-07
2.62814190574e-07
2.61413473662e-07
2.59901802052e-07
2.58290255002e-07
2.56731212709e-07
2.55593292001e-07
2.54097309716e-07
2.47408297609e-07
2.59088646505e-07
7.24782582278e-08
-8.51674896161e-08
7.80822883019e-08
-1.62759072283e-08
4.25133232695e-08
2.20071985089e-08
7.03228604912e-10
3.31876336701e-08
-4.40536933519e-08
3.72621982258e-08
-8.04170871032e-08
3.22154610956e-08
-1.10872907542e-07
2.61928213983e-08
-1.35480209617e-07
2.10059683673e-08
-1.5545877339e-07
1.68536100752e-08
-1.72515805973e-07
1.37936896599e-08
-1.86368187444e-07
1.16957571505e-08
-1.99354826477e-07
1.03073971701e-08
-2.10165980057e-07
9.47761686354e-09
-2.2104722905e-07
8.93241740703e-09
-2.30360960891e-07
8.60147549645e-09
-2.39919062928e-07
8.28193289686e-09
-2.48252684857e-07
7.9926945919e-09
-2.56678327328e-07
7.62272933828e-09
-2.64133442285e-07
7.23528351312e-09
-2.71549739813e-07
6.77723229787e-09
-2.78172346061e-07
6.32817122934e-09
-2.84702684575e-07
5.84146624748e-09
-2.90639550137e-07
5.38433129443e-09
-2.96480906285e-07
4.9291398453e-09
-3.01767408217e-07
4.51619082684e-09
-3.07061543795e-07
4.10558536112e-09
-3.11782866034e-07
3.75530335603e-09
-3.16620024149e-07
3.40963540941e-09
-3.20819143261e-07
3.12401108167e-09
-3.25233591114e-07
2.83561323333e-09
-3.2887807588e-07
2.61815778836e-09
-3.32846660874e-07
2.37779671622e-09
-3.35978486581e-07
2.2012128329e-09
-3.39469055969e-07
1.99435680271e-09
-3.42008068792e-07
1.85681554968e-09
-3.44970265723e-07
1.65492235941e-09
-3.47000024875e-07
1.51368206808e-09
-3.49411890757e-07
1.30254249574e-09
-3.50918793612e-07
1.14221215379e-09
-3.52732708628e-07
9.00662216692e-10
-3.53684369428e-07
7.04263524537e-10
-3.54820955271e-07
4.23296880988e-10
-3.55154907536e-07
1.77680509947e-10
-3.5553481391e-07
-1.52844771699e-10
-3.55176595446e-07
-4.60066206885e-10
-3.54744984262e-07
-8.51060456909e-10
-3.53654665991e-07
-1.22920154194e-09
-3.52420334773e-07
-1.68444747194e-09
-3.5055977233e-07
-2.12800792888e-09
-3.48552300095e-07
-2.64578849125e-09
-3.45951717141e-07
-3.13784390567e-09
-3.43237540213e-07
-3.68649469231e-09
-3.39898016754e-07
-4.19276051501e-09
-3.36488742338e-07
-4.74431563983e-09
-3.32370017281e-07
-5.21496426494e-09
-3.28295423584e-07
-5.73691818357e-09
-3.23446467202e-07
-6.18666109985e-09
-3.18550100944e-07
-6.79806043088e-09
-3.12746044403e-07
-7.18201951589e-09
-3.07097386686e-07
-7.65646244361e-09
-3.00513722191e-07
-7.98759821248e-09
-2.9408018363e-07
-8.37142930961e-09
-2.86685592551e-07
-8.58179125045e-09
-2.79548550495e-07
-8.8516007401e-09
-2.71606139736e-07
-8.96262667562e-09
-2.63931706169e-07
-9.16919167568e-09
-2.5557442285e-07
-9.26592855877e-09
-2.47404395836e-07
-9.47020191204e-09
-2.38652168337e-07
-9.58275526782e-09
-2.30023412056e-07
-9.78610915726e-09
-2.20928697339e-07
-9.90952899966e-09
-2.11970794991e-07
-1.01103217433e-08
-2.02637337233e-07
-1.02339509472e-08
-1.93520708235e-07
-1.04340312309e-08
-1.84125016698e-07
-1.05427141175e-08
-1.75032986231e-07
-1.07142777119e-08
-1.65722938634e-07
-1.07896814099e-08
-1.56695598321e-07
-1.08988721077e-08
-1.47428877347e-07
-1.08810361676e-08
-1.38516811821e-07
-1.08993273857e-08
-1.29467450637e-07
-1.07827212814e-08
-1.20805856887e-07
-1.06660414594e-08
-1.12096381821e-07
-1.03935500182e-08
-1.03956430239e-07
-1.01299374889e-08
-9.59236874906e-08
-9.71088464884e-09
-8.84472884587e-08
-9.31130857042e-09
-8.09958761215e-08
-8.80374366371e-09
-7.37409723428e-08
-8.36599718113e-09
-6.65488908738e-08
-7.99864646144e-09
-5.9421352207e-08
-7.60960664946e-09
-5.27797678754e-08
-7.35290695259e-09
-4.65050842378e-08
-7.14044454435e-09
-4.04762109275e-08
-7.15083450261e-09
-3.43934104732e-08
-7.32233595537e-09
-2.8164796258e-08
-7.820585064e-09
-2.14641989204e-08
-8.49035162563e-09
-1.4272783281e-08
-9.52033097559e-09
-6.18798946069e-09
-1.07098656407e-08
2.80438284578e-09
-1.23415575496e-08
1.32026446063e-08
-1.41389087598e-08
2.51981236039e-08
-1.64265411272e-08
4.03509755482e-08
-1.89847033081e-08
5.91079385936e-08
-2.29604791504e-08
8.42431157325e-08
-2.79815801427e-08
1.15664762982e-07
-3.58235023046e-08
1.57348877352e-07
-4.51701868519e-08
2.05667378032e-07
-5.46130426713e-08
2.59294042714e-07
-5.87449019779e-08
3.09048613183e-07
-5.81487651888e-08
3.55300135273e-07
-5.28126686007e-08
3.86061108925e-07
-4.15970943252e-08
4.03242669075e-07
-2.61292096395e-08
4.28298953124e-07
-4.06571135242e-08
5.03730842684e-07
-9.02180000681e-08
6.1743183161e-07
-1.40124297137e-07
7.8878923943e-07
-1.99543304979e-07
8.85401075339e-07
-1.4422509854e-07
9.02902591087e-07
-7.65504363685e-08
8.7259228749e-07
-6.90506957695e-08
6.75225533884e-07
7.07304536945e-08
4.86473590517e-07
4.98323635434e-08
2.38070280553e-07
1.25230247881e-07
-5.07699000182e-08
2.02445405569e-07
-2.42117967145e-07
1.36188994569e-07
-3.76366279565e-07
7.65095561025e-08
-4.65923989508e-07
4.27371191581e-08
-5.39912623202e-07
1.9558554943e-08
-5.94110717012e-07
1.01997788842e-08
-6.45913616539e-07
9.68942488529e-10
-6.84750788126e-07
-4.76346459211e-10
-7.23103807101e-07
-4.98508900924e-09
-7.4782716688e-07
-3.59043193819e-09
-7.68218813845e-07
-5.97521295222e-09
-7.69366493759e-07
-2.70026139262e-09
-7.59780895323e-07
-3.50450023382e-09
-7.22718180864e-07
3.49298370068e-09
-6.77716642453e-07
5.12169448933e-09
-6.26039427737e-07
1.70755431202e-08
-6.10198721722e-07
1.48552327179e-08
-6.11840697694e-07
1.99518618915e-08
-6.34468863137e-07
1.10958698367e-08
-6.37255055004e-07
1.15237555866e-08
-6.35330435765e-07
2.72206573082e-09
-6.10583328104e-07
5.56072570058e-09
-5.95774692481e-07
-6.71138873524e-09
-5.68728632588e-07
-3.11244139407e-09
-5.7060171644e-07
-1.43905337607e-08
-5.74742663816e-07
-7.74587104737e-09
-6.3373245867e-07
-2.04764805259e-08
-7.17297025193e-07
-1.10597922643e-08
-8.94113191168e-07
-2.65733289108e-08
-1.12483578322e-06
-1.2834853667e-08
-1.50129074196e-06
-3.16725776575e-08
-1.96990878766e-06
-1.03860490387e-08
-2.65977919893e-06
-3.17362923853e-08
-3.4998980412e-06
2.65105699973e-09
-4.67635534236e-06
-1.87945103687e-08
-6.09521239552e-06
3.66725560461e-08
-8.02055056098e-06
1.93616288686e-08
-1.03197422319e-05
1.05866884451e-07
-1.33517831169e-05
9.64312978746e-08
-1.69168335628e-05
2.23544755996e-07
-2.14905312288e-05
2.28774929526e-07
-2.67766162317e-05
4.11954888283e-07
-3.3389354587e-05
4.36000408864e-07
-4.09050075543e-05
6.74587179058e-07
-5.01147357535e-05
7.15344837996e-07
-6.04521223856e-05
1.00457186575e-06
-7.28685322836e-05
1.01689128695e-06
-8.65572808865e-05
1.22479475866e-06
-0.00010264676962
1.09789844106e-06
-0.000120340708989
1.33964429097e-06
-0.000141004443957
1.28605472966e-06
-0.000163780427488
1.67904217948e-06
-0.000190655555728
2.26803498329e-06
-0.000221848046928
4.46274013615e-06
-0.00026082368153
8.30594113637e-06
-0.000307614853464
1.40343459083e-05
-0.000364956050037
2.12372401631e-05
2.58761418589e-05
-0.000427733647891
7.94378324929e-08
-1.71870211551e-07
4.56846096103e-08
1.37575581744e-08
3.05554908659e-09
6.17029877432e-08
-2.32654342894e-08
5.76891706246e-08
-3.00120507301e-08
4.20248481381e-08
-2.67366069774e-08
2.72593267837e-08
-1.85623020507e-08
1.60546778489e-08
-8.46640148013e-09
8.9452509597e-09
1.33457997451e-09
5.22697985372e-09
9.18992014835e-09
3.90692172871e-09
1.52418730008e-08
4.11617814244e-09
1.86167346857e-08
5.18348870724e-09
2.03350055456e-08
6.66760517321e-09
1.9727663099e-08
8.24354819468e-09
1.79248729844e-08
9.7203215981e-09
1.43959303871e-08
1.09580194496e-08
1.00958455778e-08
1.18995881584e-08
4.65418963125e-09
1.25165865198e-08
-1.22147747205e-09
1.28296998543e-08
-7.71982171249e-09
1.28670514552e-08
-1.43754602221e-08
1.26603519778e-08
-2.12672880266e-08
1.22648788287e-08
-2.80566635528e-08
1.17127390814e-08
-3.48222698786e-08
1.1040356187e-08
-4.12471602581e-08
1.02811733698e-08
-4.74389693855e-08
9.46110439272e-09
-5.30939342717e-08
8.59230254748e-09
-5.84266421778e-08
7.69050762859e-09
-6.30072786838e-08
6.7749613374e-09
-6.71667398867e-08
5.8405183622e-09
-7.04034352041e-08
4.90147336161e-09
-7.31818960028e-08
3.94370278531e-09
-7.48733419624e-08
2.99433808883e-09
-7.6027616069e-08
2.02105992145e-09
-7.60043929708e-08
1.04583196134e-09
-7.53985473936e-08
4.25403720728e-11
-7.35735779491e-08
-9.69333558375e-10
-7.11229765499e-08
-2.02018524646e-09
-6.74548081129e-08
-3.08022050828e-09
-6.30943386399e-08
-4.17750693156e-09
-5.7550543958e-08
-5.28876019476e-09
-5.12529911148e-08
-6.43560551944e-09
-4.38303781325e-08
-7.59918060198e-09
-3.56110787907e-08
-8.79707722275e-09
-2.63438954197e-08
-1.0014795678e-08
-1.62718754237e-08
-1.12670109179e-08
-5.25583601209e-09
-1.25388873127e-08
6.52250005284e-09
-1.38400777457e-08
1.91484853527e-08
-1.51534207733e-08
3.24610777098e-08
-1.64831986204e-08
4.65171029218e-08
-1.78058764245e-08
6.11413639878e-08
-1.91260164456e-08
7.64666746884e-08
-2.03999580807e-08
9.22862195223e-08
-2.16404309459e-08
1.08742379424e-07
-2.28068677579e-08
1.25523290513e-07
-2.38998499358e-08
1.42781849636e-07
-2.4802834807e-08
1.60136383849e-07
-2.57135798066e-08
1.78117170841e-07
-2.66496026267e-08
1.96208889298e-07
-2.74346746821e-08
2.1471985097e-07
-2.80221712315e-08
2.33222262811e-07
-2.8510289261e-08
2.52098205974e-07
-2.88756820892e-08
2.70949322131e-07
-2.92034659836e-08
2.90100632682e-07
-2.9414811875e-08
3.09136954677e-07
-2.95666190171e-08
3.28264757219e-07
-2.95949549549e-08
3.47144549304e-07
-2.9578259519e-08
3.65930030951e-07
-2.9468608748e-08
3.84353314624e-07
-2.93293119717e-08
4.02502967684e-07
-2.91011916841e-08
4.20121139224e-07
-2.88400402227e-08
4.37265855209e-07
-2.84815907439e-08
4.5367861829e-07
-2.80778127995e-08
4.69406361101e-07
-2.7563787957e-08
4.84175537303e-07
-2.69995718052e-08
4.98125252636e-07
-2.62929971024e-08
5.11032495774e-07
-2.55156171862e-08
5.23032908658e-07