/*--------------------------------*- C++ -*----------------------------------*\
| =========                 |                                                 |
| \\      /  F ield         | OpenFOAM: The Open Source CFD Toolbox           |
|  \\    /   O peration     | Version:  v1806                                 |
|   \\  /    A nd           | Web:      www.OpenFOAM.com                      |
|    \\/     M anipulation  |                                                 |
\*---------------------------------------------------------------------------*/
FoamFile
{
    version     2.0;
    format      ascii;
    class       volScalarField;
    location    "23";
    object      rho;
}
// * * * * * * * * * * * * * * * * * * * * * * * * * * * * * * * * * * * * * //

dimensions      [0 0 0 0 0 0 0];


internalField   nonuniform List<scalar> 
12225
(
0.58537803945
0.64987378737
0.629031341998
0.629313825181
0.617281554477
0.612991029944
0.607021231141
0.603005707757
0.60090675919
0.601911092995
0.607484476817
0.616231946048
0.623276578747
0.635155566699
0.658775460036
0.689945447784
0.730715488779
0.765002721586
0.761104491218
0.699210344858
0.666659451163
0.671349221216
0.662242921695
0.659908363135
0.65622297076
0.653984360402
0.652822320357
0.65341936363
0.657129892295
0.663698192587
0.670538277564
0.680604053599
0.698544579305
0.72202270757
0.748082163058
0.750808849023
0.605364001008
0.680883249405
0.661737274949
0.663718479903
0.653871257807
0.65056878898
0.646067866053
0.64309731164
0.641102154783
0.640589843908
0.642245101207
0.646185414952
0.651894273804
0.661002590664
0.675987077577
0.69502585318
0.712846312049
0.708100328807
0.674475573329
0.692762143195
0.666236875174
0.672075816201
0.663275908424
0.661580992813
0.658438689683
0.656601938188
0.655417332732
0.655296901856
0.65655592786
0.659348882907
0.66380441865
0.670884946846
0.681582413132
0.693897567627
0.702007526975
0.692434486481
0.638332321679
0.692592870323
0.66738502677
0.674472381971
0.666478354812
0.66573828008
0.663487486511
0.662572252029
0.662329740599
0.663081083884
0.664948478119
0.668010846401
0.672487984627
0.678842519956
0.687067787692
0.694890325991
0.697180745293
0.686669629587
0.652954937433
0.696372133903
0.67075736247
0.679153562639
0.671748315512
0.671732533828
0.670031894956
0.669616608932
0.669806556716
0.670863244345
0.672827632588
0.675731746223
0.679733548925
0.684955616151
0.690843678168
0.695149207481
0.694045704911
0.684089811496
0.648897428977
0.697753796603
0.673292922516
0.682575342773
0.675853648289
0.676502970174
0.675329647694
0.675366574048
0.675913489086
0.677180771019
0.679158298643
0.681834885957
0.685243110013
0.689268453159
0.693106933393
0.694806474737
0.691812636482
0.682720104862
0.651343421007
0.699269394729
0.675513670395
0.68555641566
0.679396401344
0.680580841831
0.679802331392
0.680154122809
0.68089050022
0.682203606908
0.684060136673
0.686406825466
0.689154601792
0.692034282712
0.694174120708
0.694039059652
0.690044528122
0.681831905012
0.652284723534
0.700029557973
0.677322658937
0.687878945587
0.682258972706
0.683899198781
0.68344921884
0.684018577752
0.684827652191
0.686075736786
0.687719544369
0.689657394033
0.691709937136
0.693526752121
0.694307156654
0.692902243252
0.688427638596
0.680964617165
0.653194384985
0.700362876246
0.678562834578
0.689495859311
0.68432733618
0.686341540426
0.686131474198
0.686825016151
0.68763479578
0.688768023404
0.690147575418
0.691624077865
0.692967235397
0.693823624787
0.693528871311
0.691275522656
0.68662059644
0.679855758965
0.653154662531
0.700434045297
0.678948391802
0.690219264653
0.685310521414
0.687536342076
0.687405781308
0.68812005082
0.688870644409
0.689836695898
0.690905205365
0.69192243725
0.692654915512
0.692790116601
0.691804549527
0.689158470142
0.684678940471
0.678684234582
0.649142958197
0.700309019697
0.677461399909
0.689306278945
0.684337122992
0.686656698074
0.686540118362
0.687248170493
0.687896266496
0.688693390171
0.689585276648
0.690397176596
0.690883941011
0.690746617693
0.689584151671
0.687027832648
0.683007473388
0.677833137379
0.645844239259
0.699619824196
0.675960632669
0.688210119856
0.683419135997
0.685907426351
0.685888642077
0.686669410437
0.687402402609
0.688274672988
0.689172520033
0.689916057114
0.690225305122
0.689882908958
0.688560749483
0.686039781484
0.682351164549
0.67776791302
0.641823071228
0.698759108583
0.674244858493
0.687026641453
0.682449078763
0.685290138011
0.685576291375
0.686574426388
0.687413406994
0.688283313084
0.689063720645
0.689559622268
0.689527374707
0.688815739734
0.687251266354
0.684703301513
0.681316878231
0.67724592513
0.636574285889
0.697815742764
0.67208424787
0.68558807932
0.681228545464
0.68448662905
0.685118957576
0.6863747363
0.687337865288
0.688163387968
0.688765827368
0.688940951441
0.688508227469
0.687443555444
0.685662143686
0.683137496457
0.680029201621
0.676482716371
0.631041779181
0.696806636642
0.669610593937
0.683828538959
0.679578495088
0.683193730616
0.684080879123
0.685523731335
0.686535634675
0.687306225925
0.687706192953
0.687618846298
0.686881503482
0.685599217526
0.68372812327
0.681320257563
0.678514250591
0.675411042421
0.626020070351
0.69588209067
0.667091955664
0.681889373606
0.67759592079
0.681421038323
0.682409832615
0.683905233668
0.684884020677
0.685531131202
0.685776442043
0.68549264812
0.684596178904
0.68322108599
0.681396167354
0.679152609326
0.676662597463
0.673923429868
0.621257957648
0.695168321864
0.664680039779
0.679948887547
0.675465811336
0.679352707782
0.680294892585
0.681743622107
0.68262653817
0.683150691184
0.683265202767
0.682862147539
0.681893455741
0.680526039868
0.678801054779
0.676745203363
0.674525051745
0.672105564076
0.618661386799
0.695077100667
0.663387219587
0.678836402819
0.674050018139
0.677785593125
0.678493855484
0.679730965258
0.680392490754
0.680707051845
0.680639579444
0.680104964101
0.679069578899
0.677715460581
0.676077022641
0.674168839428
0.672145700189
0.66996355221
0.6239477896
0.695689516956
0.664985650681
0.679569599139
0.67430026526
0.677356092782
0.677416814899
0.677992081492
0.678057859555
0.677842954485
0.67734331611
0.67649121033
0.675249001756
0.673784777344
0.672128044761
0.67028319974
0.668389343108
0.666411774338
0.628763902383
0.696885789937
0.666886156117
0.680834163883
0.675187529247
0.677702585118
0.677251004965
0.677346686528
0.676955858255
0.676364536336
0.675560593112
0.674500792404
0.673113649418
0.671591308645
0.669923662336
0.668134641874
0.666319244532
0.664470820877
0.630460728189
0.697702413521
0.668791771909
0.68220728047
0.676282495753
0.678321292463
0.677454116238
0.677132614223
0.676386813504
0.675495930461
0.674449339521
0.673226111107
0.671741315295
0.67016398803
0.668496516134
0.666738015581
0.664989588915
0.663204243435
0.63878220399
0.699538704429
0.670568216251
0.683470074876
0.677242618234
0.678833905888
0.677570202672
0.676874267355
0.675802200154
0.674624766925
0.673374365899
0.671986632709
0.670395606123
0.66874836341
0.667070445553
0.665311677193
0.663595554998
0.661876671653
0.631694064243
0.69996542226
0.672811975441
0.685170829269
0.678666010129
0.679792225781
0.678142833494
0.677064395558
0.675675833189
0.674240332983
0.672769128834
0.671221032143
0.669509099784
0.667785325181
0.666031713168
0.664236859606
0.662489267077
0.660776362336
0.65918490594
0.702301646984
0.674441318371
0.685947357939
0.679232743366
0.679922825901
0.677935400636
0.676570577985
0.67493594512
0.673296812754
0.671666495595
0.670024613463
0.668250603385
0.666490745048
0.664735781024
0.662928388207
0.661150161599
0.659417579995
0.615581265612
0.702477442322
0.677509473766
0.688696144503
0.681697625982
0.68200097951
0.679740625185
0.678081147503
0.676187461293
0.674296223551
0.672451733497
0.670626509649
0.668708870491
0.666807499139
0.664920214442
0.663010487735
0.661155505892
0.659492293106
0.711735653246
0.705489823919
0.680082277767
0.689008887235
0.682154026899
0.68184317788
0.679261314688
0.677274214064
0.675088247209
0.672907236641
0.670758715544
0.668776390685
0.666779646273
0.66480768484
0.662910830796
0.660993987363
0.659060170181
0.656952655086
0.564175003067
0.701292174635
0.687917172949
0.695215321714
0.688357535159
0.687914452383
0.68541993662
0.683600919414
0.681643147586
0.679698605336
0.677902037213
0.676226833944
0.67447955098
0.672744595065
0.671030141556
0.66918511561
0.667237617753
0.665665685937
0.835243845338
0.72051234963
0.695498738294
0.70178617693
0.695400760354
0.694288496436
0.691236710074
0.688486745284
0.685360300842
0.681982144488
0.678466905615
0.675174306171
0.671839846537
0.668369118071
0.664847520956
0.661260231768
0.657558096308
0.65397169156
0.649343385221
0.683051483249
0.678134739029
0.679834425797
0.672037100027
0.67102973427
0.668371532341
0.666316402942
0.664229612762
0.662397195591
0.660918916535
0.659539121316
0.658096954686
0.656984839656
0.656198344916
0.655538791931
0.655203563504
0.654435926347
0.500150314248
0.499789595572
0.499603078975
0.499621264308
0.499835591533
0.500211709773
0.500646675206
0.501106962706
0.501565916876
0.502005020451
0.502412270276
0.502780694478
0.503106977752
0.503390245944
0.503631354429
0.503832321608
0.50399575591
0.504124981358
0.504223065565
0.504292937931
0.504337825036
0.504359853835
0.504362211381
0.504345503236
0.504311512945
0.504259695606
0.50419155685
0.504106691716
0.504005593384
0.503887325134
0.503752011956
0.503599022504
0.503428631557
0.503239957326
0.503033118445
0.502808180239
0.502566227236
0.502306477647
0.502030083378
0.501737082811
0.501428853558
0.501106142825
0.500770660323
0.500424060128
0.500068494253
0.499706512985
0.49934073859
0.498974311955
0.498610510538
0.49825230419
0.497902562321
0.497562679044
0.497235795956
0.496926147378
0.496639103608
0.49637979956
0.496153632386
0.495965999723
0.49582242249
0.495728163528
0.495687293977
0.495701029827
0.495770320136
0.495898155521
0.49608549284
0.496329225914
0.496627294043
0.496977591065
0.497376816223
0.497822200671
0.49830949181
0.498834840433
0.499393497776
0.499981247537
0.500593440514
0.501226110443
0.501875306752
0.502536488414
0.503205869336
0.503880824367
0.504559317315
0.505238058413
0.505915000204
0.506587441504
0.507256158906
0.50791848429
0.508574323407
0.509229966419
0.509881662531
0.51053297814
0.511184672633
0.511836922142
0.512491892958
0.513123108397
0.513715963578
0.514308456647
0.514932379049
0.515572920177
0.51622819281
0.516892197379
0.517670888164
0.518543017525
0.518684656738
0.518731026179
0.518948072314
0.519389864811
0.520022881408
0.520369341209
0.520774658535
0.521139898143
0.521438705226
0.521696283418
0.521917831011
0.522125104729
0.522310933209
0.522483837853
0.522645891584
0.522801471139
0.5229511582
0.523093652858
0.523225968199
0.52334673552
0.523457232856
0.523558601863
0.523653618692
0.523743523925
0.523829048548
0.523910685426
0.523988789317
0.524063752514
0.524135937115
0.524205552065
0.524272775548
0.524337625502
0.524400164217
0.524460306457
0.524518037792
0.524573696205
0.524626812447
0.524677249668
0.524723276365
0.524766316418
0.524805555972
0.524839469186
0.524866343776
0.524884353676
0.52489237625
0.524889598022
0.524875307944
0.524848954043
0.524809437689
0.524755224078
0.524684581824
0.524595869354
0.524487306855
0.524357069426
0.524203097564
0.52402314141
0.523814227353
0.523572747696
0.523293337354
0.522970285335
0.522595527419
0.522157757966
0.521641531153
0.521029893327
0.52030189694
0.519440946562
0.518433795874
0.517257652637
0.51589960591
0.514363143408
0.51266594265
0.510850178254
0.5089761518
0.506987719251
0.504935552407
0.502897482992
0.500982548375
0.499492081825
0.500048114291
0.499814407928
0.49991586145
0.500203059486
0.500551840969
0.500908726707
0.501252224155
0.501572027726
0.501863618086
0.502124827694
0.502355347291
0.502554588992
0.502723462535
0.502862367598
0.502972693652
0.503055547111
0.503112753199
0.503146099047
0.503158043739
0.503150060298
0.503124669722
0.503083284205
0.503028223446
0.502959669474
0.50287899806
0.502785350425
0.502679568102
0.502560804809
0.50242884131
0.502282359155
0.502121180528
0.501944317431
0.501751181044
0.501540582466
0.501312856076
0.501067288218
0.500804186947
0.500523265185
0.500225035461
0.499909355654
0.499577207048
0.499229349653
0.498867273849
0.498492719371
0.49810795064
0.497715737456
0.497319465702
0.496922761718
0.496530279472
0.49614721184
0.495781169442
0.495437208995
0.495118236154
0.4948272317
0.494568099335
0.494344717253
0.494160900124
0.494022369739
0.493935071959
0.493901109857
0.493921949154
0.493999848655
0.494134421186
0.494321667624
0.494562624292
0.494859911863
0.495213713766
0.495623685759
0.496088889792
0.496608305931
0.497180019
0.497801916849
0.498470684886
0.499182770596
0.499934076122
0.500719949149
0.501535278841
0.502374735447
0.503232796951
0.504105430624
0.504989531254
0.505881255164
0.506776425017
0.507673183518
0.508573208814
0.509471223264
0.510360519606
0.51125072813
0.512162751008
0.51307815762
0.513966219805
0.514860332074
0.51580033312
0.516755610099
0.517640601323
0.518449968852
0.519292421563
0.519984875578
0.520670983291
0.521389300016
0.522079649207
0.5229012326
0.523509682263
0.524165633839
0.524770502362
0.525353253128
0.525699935747
0.525966307949
0.526203787528
0.52644975062
0.526699157522
0.526957360584
0.527221487074
0.527488000025
0.527748427559
0.528007223526
0.528264094385
0.528521022734
0.528778252027
0.529032812849
0.529281025856
0.529521009968
0.529752673746
0.529977662246
0.530197873191
0.530414246079
0.530627503745
0.530838098101
0.531046531192
0.531252995751
0.531457585239
0.531660331342
0.531861379147
0.532060860717
0.532259180148
0.532456716059
0.5326541015
0.532852122552
0.533051508932
0.533251997736
0.533453427418
0.53365708949
0.533863396365
0.534072050206
0.534282163829
0.534493298776
0.534705851694
0.534920816408
0.535139424454
0.535362698902
0.535591762381
0.53582783487
0.536072142836
0.536325385582
0.536587429759
0.536857444356
0.53713343028
0.537412762783
0.537691831312
0.537967325877
0.538234208766
0.538486886589
0.538719912737
0.538929207041
0.539111043692
0.53926241951
0.539386896345
0.539476651086
0.539532465728
0.539555981301
0.539545542553
0.539494147343
0.539392240144
0.539237505313
0.538960311504
0.538652512953
0.538289436573
0.537880032321
0.5374667858
0.537031911056
0.50041776108
0.500342371792
0.500377135421
0.50049243511
0.500614288237
0.500714490216
0.500802245752
0.500884039988
0.500963612177
0.501041097758
0.50111594496
0.501186549846
0.501251265269
0.501308185081
0.501355899679
0.50139317683
0.501419506891
0.50143454791
0.501438691356
0.501432376151
0.501416499817
0.501391067949
0.501357610506
0.501315744691
0.501265830406
0.501207103707
0.501139725153
0.501062411756
0.500974698694
0.500875212236
0.50076335535
0.500637658945
0.500497738873
0.500342550883
0.50017175155
0.499984811509
0.499782185274
0.499563296308
0.499328709673
0.499078698488
0.498814186559
0.498536189727
0.498246289168
0.497946381558
0.497638838863
0.49732639872
0.497012369233
0.496700358985
0.496394426265
0.496098925518
0.495820041936
0.495564199722
0.495338321986
0.495146935494
0.494993556908
0.494881010628
0.494811642495
0.494785385068
0.494801356659
0.494861075195
0.49496722082
0.495121961095
0.495330695222
0.495597179578
0.495919660549
0.496298893915
0.496736020048
0.497231136407
0.497782654701
0.498388082581
0.499043625087
0.499744786606
0.500486430322
0.501263145538
0.502069445091
0.502899862126
0.503749154003
0.504612114784
0.505483859249
0.506359694065
0.507237513453
0.508114404175
0.508985962681
0.50984942282
0.510708632218
0.511565249671
0.512405074464
0.513225295719
0.514049954703
0.514888989899
0.515708691018
0.516481412913
0.517282816929
0.518088951358
0.518863989763
0.519609188467
0.520297638903
0.520830726557
0.521437783994
0.52223353787
0.52309847614
0.523717353441
0.524048433876
0.524392879642
0.524584371866
0.524824552911
0.525220438897
0.525788856148
0.526331655294
0.526804349408
0.527242243086
0.527648236461
0.52802351274
0.528370965901
0.528694960999
0.529003440534
0.529299690885
0.529587128349
0.529866982167
0.530137445246
0.530396486836
0.530643635914
0.530880265456
0.531108598744
0.53132975953
0.53154448219
0.53175326666
0.531956516317
0.532154580888
0.532347962504
0.532537363994
0.532723499322
0.532906841151
0.533087690756
0.533266303896
0.533443001422
0.533618344263
0.533792711804
0.533966258926
0.534137869402
0.534307492062
0.534476150536
0.534645049562
0.534813846245
0.534981018788
0.53514539036
0.535306448212
0.535464193257
0.535618503644
0.535769217367
0.535916144731
0.536059303725
0.536198571708
0.536333976121
0.536465772461
0.536594483715
0.536720843394
0.536846017762
0.536971210416
0.537098138947
0.537228526048
0.537364098896
0.537506612529
0.537657978705
0.537819601872
0.537993130117
0.538181209088
0.538384237378
0.538598944641
0.538822245429
0.539048980923
0.539269072817
0.539470236018
0.539628170842
0.539716325841
0.53971753599
0.539612876432
0.539395558892
0.539111009806
0.538912501822
0.500887282882
0.500768112045
0.500506025458
0.500365024152
0.50028810543
0.500228327494
0.500191551003
0.500177429827
0.500183744472
0.50020740966
0.500245254822
0.500293354382
0.500348421354
0.500406952863
0.500466201152
0.500523648125
0.500577556028
0.500626539852
0.500670074338
0.500707131426
0.500738049685
0.500762506826
0.50078064851
0.500791820407
0.500796383077
0.500792925714
0.500781106449
0.500759599074
0.500727593504
0.500683428538
0.500626200576
0.500554563279
0.500467648725
0.500364097052
0.500243969143
0.500106336089
0.499951267442
0.499778639338
0.49958905411
0.499382809694
0.499161125981
0.498925293091
0.498677267478
0.498419379206
0.498154443986
0.497885729458
0.497617070058
0.497352366668
0.49709613923
0.496853240722
0.49662834015
0.496425003726
0.496248939464
0.496105002323
0.495997665203
0.49593067443
0.495907452121
0.495929642308
0.49599582713
0.496103275504
0.496251316829
0.496441035669
0.496675133421
0.496958978957
0.497299098847
0.497699516412
0.498162326772
0.498688640505
0.499278206982
0.499929163667
0.500638114342
0.501399996114
0.502208301388
0.503056099202
0.5039360113
0.504839731808
0.505759871531
0.506690800986
0.507625358153
0.508556765946
0.509482763063
0.51040402954
0.511312494431
0.51219885774
0.51307142909
0.513938131382
0.514784848134
0.515578224365
0.516364581141
0.51715436724
0.517913383931
0.518624827917
0.519300943672
0.519962786458
0.520579023749
0.521199690767
0.521884561641
0.522625692806
0.523470205831
0.524273519998
0.524839497419
0.525094190019
0.525278188739
0.525500916408
0.525691046899
0.526013197905
0.526543083642
0.527215021746
0.527867537106
0.528455120237
0.528984316542
0.52945332145
0.529869574493
0.530243186228
0.530584210939
0.53090181598
0.53120105683
0.531486102366
0.531758222922
0.53201655924
0.532260149867
0.532490029995
0.532709186415
0.532919885178
0.533123288404
0.533320089623
0.533510944334
0.533696509585
0.53387748525
0.534054537684
0.534228566834
0.534400154591
0.534569515219
0.534736969775
0.5349029157
0.535068053405
0.53523295855
0.535397782792
0.535561762567
0.535723616253
0.535883080677
0.536041844884
0.536201811273
0.536362931673
0.536524030584
0.536684144157
0.536842979359
0.537000666891
0.53715742317
0.53731349476
0.537469051439
0.537624271907
0.537779008855
0.537933124583
0.53808649109
0.538238961863
0.538390249308
0.538539830909
0.538687049068
0.538831200646
0.538971893049
0.539108702672
0.539241302067
0.539369993945
0.53949553575
0.539619427076
0.539745131827
0.539874864538
0.540010418847
0.540154653952
0.540309063102
0.540471945824
0.540639696899
0.540804763432
0.540948623083
0.541065546024
0.54114566453
0.541187607918
0.541243737726
0.541443996099
0.501430286923
0.500764576366
0.500108025666
0.499867089977
0.499781473545
0.499725422556
0.499691873383
0.499677690491
0.499683219024
0.499707047228
0.499748067068
0.499803807203
0.499871615988
0.499948152282
0.500030693139
0.50011632143
0.500203110903
0.500288861121
0.500372469318
0.500452848506
0.500529496401
0.500601216673
0.500668343069
0.500729692381
0.500784794347
0.500832588126
0.500872456164
0.500902705109
0.500922395369
0.500929872183
0.500924109656
0.500903352015
0.500866953234
0.500813751506
0.500743201691
0.500654593106
0.500548280666
0.500423758594
0.500281681363
0.500122510667
0.499947443087
0.499757759346
0.499555444463
0.499342744205
0.49912247434
0.498897676099
0.498672027784
0.498449378044
0.498233828227
0.498030045383
0.497844212905
0.497680682145
0.497544777822
0.4974416311
0.497375270746
0.497349171634
0.497367137195
0.49743167459
0.497543214693
0.497703183824
0.497912707894
0.498172330434
0.498482214344
0.498841438731
0.49925091785
0.499713211141
0.500230697377
0.500805086364
0.501436338679
0.502123306831
0.50286322088
0.503651774905
0.504482141713
0.505348564775
0.506244399161
0.507161106752
0.508090011842
0.509027709925
0.509970474192
0.510905508073
0.511826539492
0.512743725627
0.513650778091
0.514529455684
0.515391507395
0.51625130781
0.517088624224
0.51788385771
0.518628669042
0.519358008274
0.520089016417
0.520769514691
0.521438413147
0.52207904997
0.522745403837
0.5235231842
0.524361037961
0.52517974677
0.525893408791
0.526365247185
0.526579947879
0.526665237003
0.526813712828
0.527033860644
0.527302750285
0.527706225428
0.528243545151
0.528842702251
0.529427590391
0.529973807208
0.530467736773
0.530903717344
0.531288356988
0.531631252066
0.531941964149
0.532228592506
0.532496628109
0.532750133973
0.532990582782
0.533217808422
0.533431900469
0.533635070306
0.533830548601
0.534020213757
0.534204684724
0.534384125414
0.534558696997
0.534728657422
0.534894388855
0.535056291655
0.535214650071
0.535369764354
0.535522086676
0.535672029527
0.535820159885
0.535967133389
0.536113284913
0.536258225915
0.536400375443
0.536538408583
0.536672177818
0.536804242317
0.536936931477
0.537070640837
0.53720460393
0.537337935665
0.537470322907
0.537601782064
0.537732499976
0.53786271195
0.537992555098
0.538122144352
0.538251622564
0.53838108777
0.538510614578
0.538640146686
0.53876966798
0.538899192408
0.539028610215
0.539157788502
0.5392868941
0.539416094158
0.539545665669
0.539676292797
0.539808658286
0.539943915243
0.540084429401
0.540231259749
0.540384623464
0.540545670777
0.540713553874
0.540885237568
0.541057555669
0.541224972203
0.541376832342
0.541512000422
0.541635825177
0.541764280643
0.541960636886
0.542339465135
0.501920730423
0.500079132887
0.499217927557
0.499222481935
0.499327221706
0.499375588369
0.499397460794
0.499412592268
0.499434802655
0.499470414953
0.499522433757
0.49958962505
0.499670601899
0.49976226032
0.49986236725
0.499967961721
0.500077172764
0.500187795237
0.500298742388
0.500408099256
0.500515563631
0.500620045742
0.500720883603
0.500816997315
0.500908181257
0.500992702508
0.501069767284
0.501137791039
0.501195641133
0.501241504088
0.501274218175
0.501292286332
0.501294721677
0.501280152214
0.501248505134
0.501198902315
0.501131434258
0.501046071513
0.500943593125
0.500824502073
0.500690305845
0.500542440818
0.500383142505
0.500214775592
0.500040272368
0.499862660766
0.499685584533
0.499512479283
0.499347332892
0.49919467966
0.499060426534
0.498948816456
0.498865601746
0.498815986961
0.498804623011
0.498835621063
0.498912737906
0.499035267656
0.49920162721
0.499410829588
0.499662791107
0.499957619604
0.500297252453
0.500683546577
0.501121491858
0.501614630423
0.502166544022
0.502779433334
0.503452944625
0.50418413844
0.504970532807
0.505806197217
0.506682112931
0.507589655287
0.508524730499
0.509477475112
0.510434123913
0.511389175515
0.512346441472
0.513296554772
0.514214946277
0.515137150899
0.516046641701
0.516930188408
0.51777660911
0.518581955172
0.519368913988
0.520131440924
0.520869920934
0.521602722114
0.522287989928
0.522970004404
0.523724605967
0.524492006339
0.525278407758
0.526050907987
0.526742308913
0.527308279313
0.527724251393
0.527956291589
0.528071367042
0.52819435438
0.528397290047
0.528658394435
0.528987877477
0.529417228725
0.529916045571
0.530438169075
0.530950576699
0.53143675501
0.53188157489
0.532280393242
0.532637429829
0.532959448355
0.533253531259
0.533525842334
0.533781056706
0.534022136974
0.53425001533
0.534464243773
0.534665149283
0.534855171794
0.535036947485
0.535211902813
0.535380399979
0.535542490271
0.535698288726
0.535848112734
0.535992464858
0.536131981062
0.536267394837
0.536399644818
0.536529491024
0.53665758116
0.536784645418
0.536911428981
0.537038149676
0.537163767847
0.537286383521
0.5374042348
0.537517607383
0.537629166827
0.537741218959
0.537854417895
0.537968166131
0.538081787783
0.538194948781
0.538307611838
0.538419878701
0.538531712084
0.538643162375
0.538754273842
0.53886511232
0.538975831004
0.53908652108
0.5391972962
0.539308220528
0.539419396395
0.539530843499
0.539642634317
0.539755074746
0.539868477841
0.539983345232
0.540100558542
0.540221158714
0.540346517603
0.540478940518
0.540619630022
0.540769151707
0.540928773749
0.541097520039
0.541272559474
0.541451449577
0.541630288982
0.541800270763
0.541961601279
0.542122728128
0.542305965068
0.542572235477
0.543010827676
0.502172152765
0.498665427162
0.498097074863
0.498681842166
0.499027574668
0.499178374604
0.499254016219
0.49930788813
0.499365644055
0.499435090526
0.499520155646
0.499619622828
0.499732483557
0.499855709982
0.499987590182
0.500125236048
0.500267253463
0.500411212298
0.500556180938
0.500700754065
0.500844193409
0.500984976315
0.501123112504
0.501257125029
0.501386300412
0.501509448153
0.501625728011
0.501733360859
0.501831322837
0.501917895721
0.501991996319
0.502051903504
0.502096938033
0.502126007818
0.50213859665
0.502134146309
0.502113059335
0.502075091445
0.502021150696
0.501951970286
0.501869092521
0.501774000814
0.501668924592
0.501556071666
0.501438159169
0.501317667465
0.501197717234
0.501081115008
0.500970780086
0.500870170329
0.500785888058
0.500721485139
0.500683326497
0.500678642453
0.500713831273
0.500794767838
0.50092468515
0.501100289485
0.501319796394
0.501581257365
0.501883630888
0.502224182919
0.502602619087
0.50302147378
0.50348799712
0.504006209729
0.504581674159
0.505218729565
0.505917039024
0.50667251871
0.507482046313
0.508342769696
0.509241862881
0.510165178979
0.511109721996
0.512069557319
0.513029614273
0.513983998343
0.514942297191
0.515887273
0.516810225508
0.517697133651
0.518544644797
0.51937918365
0.52019137716
0.520970682212
0.521716412761
0.522429574338
0.523147660086
0.523894992361
0.524628314511
0.525381091215
0.526142401412
0.526866642261
0.527549842593
0.528145944357
0.528627399554
0.528989270067
0.529251399867
0.52942729065
0.529584528717
0.529780708502
0.530027194267
0.530316744878
0.530668393241
0.531085011797
0.531536062939
0.531994584825
0.532442864342
0.532868575428
0.533261423364
0.533618841167
0.533942985292
0.534237831126
0.534507832235
0.534757333679
0.534989755162
0.535207260794
0.535410418027
0.535599162647
0.535774635948
0.535939520281
0.536096549302
0.536247286744
0.536392406288
0.536532203317
0.536666967525
0.536797079462
0.536923054944
0.537045497859
0.537164996729
0.537282022997
0.537396950199
0.5375102811
0.537622722317
0.537734958445
0.537846937642
0.537957228013
0.53806371282
0.538164697001
0.538260964141
0.538355124968
0.53844946658
0.538544629347
0.538640193172
0.538735701556
0.53883096012
0.538926059135
0.539020985422
0.539115787973
0.53921044943
0.539305017003
0.539399543665
0.539494078826
0.539588739847
0.539683678201
0.539778999105
0.539874817232
0.539971188905
0.540068286018
0.540166494128
0.540266244534
0.54036809641
0.540473091064
0.540582397894
0.540697420707
0.540820306553
0.540952287751
0.54109410063
0.541247084676
0.541410567517
0.541582208203
0.541760640132
0.541943861265
0.542125537829
0.542307431884
0.542499585575
0.542727575587
0.543046428305
0.543522255992
0.502055038411
0.496735698489
0.497090346851
0.498376031994
0.49885865621
0.499075390174
0.499206725506
0.499320572469
0.499438580483
0.499565872597
0.499705871809
0.49985629176
0.500017147672
0.500185562158
0.500360783995
0.500540199659
0.500722975802
0.500907037066
0.501091909198
0.501275699649
0.50145825562
0.501638256224
0.501815077689
0.501987664873
0.502155823675
0.502317884897
0.502473239258
0.502620457265
0.50275861543
0.502886113887
0.503002058497
0.503105190007
0.503194756208
0.503269708603
0.503330092874
0.503375285978
0.50340555798
0.503421106061
0.503422835884
0.503411416215
0.503388445912
0.503355294887
0.503313959426
0.503266264313
0.503214255209
0.503159618397
0.503104072954
0.503049023054
0.502996019115
0.50294680927
0.502906613497
0.502881489976
0.502879407614
0.502911904266
0.502990574876
0.50312559893
0.503317365518
0.503559054619
0.503846424605
0.504174254116
0.504535667206
0.504923095443
0.505331654231
0.505771650153
0.5062514292
0.506778766697
0.507361198719
0.50800732712
0.508720093949
0.50949099493
0.510312134247
0.511184048452
0.512096224655
0.513022004936
0.513975881738
0.514943741764
0.515902824027
0.516845264351
0.517759349694
0.518640217936
0.519509175421
0.520354471733
0.521164819045
0.521941693473
0.522682980031
0.523394780281
0.524100564943
0.524821099235
0.525559473349
0.526299944214
0.527010670376
0.527712481035
0.528367361493
0.528961906827
0.529494050318
0.529941574629
0.530299689283
0.530575747122
0.53079671501
0.530984719414
0.531182104376
0.531407312453
0.531663792202
0.531960061702
0.53230713314
0.532693653761
0.533095701645
0.533497025115
0.533886566159
0.534256063287
0.534599669417
0.534915955579
0.535205801215
0.535471331988
0.535715397622
0.535941165968
0.536151264232
0.536347345733
0.53652984507
0.536698956937
0.536856066618
0.53700362066
0.537143856389
0.537278060515
0.537406763184
0.537530138963
0.537648326911
0.537761561338
0.537870231091
0.537974846402
0.538075963202
0.538174115123
0.538269928176
0.538364154933
0.538457772904
0.538551510156
0.538645074961
0.538736815938
0.538824455541
0.538906669359
0.538984443733
0.5390602396
0.539136089032
0.539212552757
0.539289378873
0.539366244049
0.539443125818
0.539520077911
0.53959716535
0.539674393475
0.539751716109
0.53982915573
0.539906753112
0.539984605538
0.540062851613
0.540141675928
0.540221241558