/*--------------------------------*- C++ -*----------------------------------*\
| =========                 |                                                 |
| \\      /  F ield         | OpenFOAM: The Open Source CFD Toolbox           |
|  \\    /   O peration     | Version:  v1806                                 |
|   \\  /    A nd           | Web:      www.OpenFOAM.com                      |
|    \\/     M anipulation  |                                                 |
\*---------------------------------------------------------------------------*/
FoamFile
{
    version     2.0;
    format      ascii;
    class       volScalarField;
    location    "23";
    object      sensitivity;
}
// * * * * * * * * * * * * * * * * * * * * * * * * * * * * * * * * * * * * * //

dimensions      [0 2 -3 0 0 0 0];


internalField   nonuniform List<scalar> 
12225
(
-5.28778496533
-9.67394666525
-7.79811220226
-8.43485126076
-8.24273011872
-8.36010134462
-8.31760949991
-8.28173298206
-8.22214334416
-8.23697931281
-8.38625696995
-8.67129892045
-8.95757434718
-9.06947199013
-9.34688247709
-11.2544720131
-16.0003314235
-18.9885704657
-27.0041525837
-9.72640997408
-13.1770244172
-12.5431547661
-13.1490364106
-13.3923896866
-13.7050373207
-13.9863653185
-14.3205245528
-14.7690067051
-15.3669542994
-16.0525273604
-16.6471364424
-17.027993706
-17.6766008875
-19.9223212415
-23.9182102231
-24.2846411882
9.0737400471
-12.3788571001
-9.65691247199
-10.69323365
-10.41486387
-10.5196876773
-10.4524531912
-10.4332579481
-10.4615724059
-10.6306588369
-10.9643170149
-11.3958747052
-11.7542540408
-11.9887630311
-12.6257207209
-14.7170560498
-17.9470225426
-18.3897674431
-26.9958866283
-8.46932081751
-11.8441951674
-11.0167105622
-11.4886537988
-11.5070747442
-11.6070735115
-11.6643082318
-11.7761487552
-11.9875279559
-12.3142822076
-12.6729829118
-12.9123702474
-13.0249885133
-13.4411793069
-14.7353047029
-16.2361379224
-15.5867985194
6.36081525567
-12.6363907615
-9.14717198107
-10.5370560192
-10.2547191732
-10.4794185627
-10.5103842457
-10.6109757271
-10.7535752215
-11.0090903455
-11.3727049822
-11.7749026924
-12.1165105572
-12.4489536948
-13.0885948456
-14.2007035067
-14.9690952306
-14.0507982666
-23.1614503282
-8.67790446303
-10.911781789
-10.3789746138
-10.6724221644
-10.7016241519
-10.766593112
-10.8297804151
-10.938509922
-11.1211994647
-11.3675914065
-11.6200683447
-11.8345266915
-12.1074108638
-12.6620840945
-13.4522530121
-13.7794535608
-12.9371296716
-2.66299981428
-10.2362469722
-9.90546956763
-10.2676991966
-10.2970427259
-10.4227111927
-10.5018058207
-10.616614172
-10.7685985163
-10.977350021
-11.2158590909
-11.434217663
-11.6167636164
-11.8574037653
-12.2812991381
-12.7558418475
-12.7947564694
-12.0772082647
-12.9412658864
-10.0038615285
-10.0688916472
-10.18363886
-10.2481497174
-10.3306519921
-10.3970660297
-10.4989943563
-10.6391489106
-10.8256758039
-11.029053726
-11.2119610262
-11.374642606
-11.5848180663
-11.8850914772
-12.1249038962
-12.0032449677
-11.4005082
-9.34684346498
-9.78800043509
-10.0156225054
-10.0921271107
-10.1616360612
-10.2366629174
-10.3040979337
-10.4012629594
-10.5286791662
-10.6871919442
-10.8509731173
-10.9965878362
-11.1321922871
-11.2970635139
-11.4840578022
-11.5637783186
-11.3659768803
-10.8607728227
-10.1032223084
-9.8634907237
-9.93346643477
-10.0245785849
-10.078062371
-10.1485343759
-10.2132001289
-10.3041676849
-10.4167958405
-10.5477374157
-10.6759523853
-10.7881649926
-10.8927439954
-11.005309579
-11.0970208343
-11.0733122799
-10.8460607876
-10.4205081371
-9.94827760631
-9.8163568255
-9.89488109155
-9.95910652201
-10.0087918474
-10.0695592868
-10.1297947532
-10.210381007
-10.3053155964
-10.4087406898
-10.5049802732
-10.5865496175
-10.6580008176
-10.7191066999
-10.7369498074
-10.649856195
-10.4171170958
-10.0550431701
-9.87988609492
-9.7905392713
-9.84427318415
-9.89581561115
-9.93903161089
-9.99110888537
-10.0448996607
-10.1136063246
-10.1909765676
-10.2703907736
-10.3401492755
-10.3951982642
-10.4363289815
-10.4557170558
-10.4251056091
-10.3062131379
-10.0813890471
-9.76838126731
-9.84532576865
-9.75856744176
-9.80709600641
-9.84121774718
-9.87885800012
-9.92058546173
-9.96608430961
-10.0211111603
-10.0800068409
-10.1360873331
-10.1808898199
-10.2106620148
-10.222696742
-10.206940824
-10.1419028227
-10.005642104
-9.79314418819
-9.52065541731
-9.79081269922
-9.72018275784
-9.76519891274
-9.78110728114
-9.81161999742
-9.8401827969
-9.87406101285
-9.91214765794
-9.95034844638
-9.98204710722
-10.0014739851
-10.0049088225
-9.98845731129
-9.94230263976
-9.85253647527
-9.70855336253
-9.51201674824
-9.27704508601
-9.73689677033
-9.6751856044
-9.71955344133
-9.7146244116
-9.73637860522
-9.74863688904
-9.76748317916
-9.78580736226
-9.80149939759
-9.80831435252
-9.80240808944
-9.78029542456
-9.73794765693
-9.66832893296
-9.56353925254
-9.42002017843
-9.24182827009
-9.04090840919
-9.72306682597
-9.62021501984
-9.67942337265
-9.64781203594
-9.65925036342
-9.65255948291
-9.65376215257
-9.65077776191
-9.64359293729
-9.62672704354
-9.59727979312
-9.55249084762
-9.48955231623
-9.40420382599
-9.29314888468
-9.15603926761
-8.99764360915
-8.82755743125
-9.77226273368
-9.5909500734
-9.62454399599
-9.57109956276
-9.56795292061
-9.54056693472
-9.52187963689
-9.49674090161
-9.46711528053
-9.42782442773
-9.37739137578
-9.31365232254
-9.2353012263
-9.1405069614
-9.02840067355
-8.90007989435
-8.75953628561
-8.61472517809
-9.29416942651
-9.42762725573
-9.58274620485
-9.50665825452
-9.48828347983
-9.43916716483
-9.40186638102
-9.35769659991
-9.31002664817
-9.2540034551
-9.18883145359
-9.11334718578
-9.02758956192
-8.93108097333
-8.82391602666
-8.70739805715
-8.58448348697
-8.45849153248
-11.2479972172
-9.82459198498
-9.61280654028
-9.41891562078
-9.36698001104
-9.30176339589
-9.25058503348
-9.19403505592
-9.13474558806
-9.06936171246
-8.99775734376
-8.91980290831
-8.83618753095
-8.74734604824
-8.65368588491
-8.55639610668
-8.45854980855
-8.371444109
-5.08642101925
-8.73636768666
-9.16132431512
-9.26462062558
-9.24121894428
-9.17392499476
-9.1114750284
-9.03847582722
-8.96105876846
-8.87614263928
-8.78436958854
-8.68576201002
-8.58112509002
-8.47087308689
-8.35541617271
-8.23595312012
-8.11357810711
-7.98133439744
-17.946812336
-9.97142796869
-9.82411285239
-9.38897841766
-9.41498193669
-9.36557940503
-9.32949032601
-9.2834445912
-9.23375423889
-9.17978246364
-9.12182275879
-9.06082615299
-8.99831714617
-8.93435155658
-8.86846845912
-8.79946193
-8.72837335592
-8.67354147141
6.12968455502
-9.11858534779
-8.55207125445
-9.21301106045
-9.00494271916
-8.93714708942
-8.83494186592
-8.73070180367
-8.62320764482
-8.51148229744
-8.39764763289
-8.28188129749
-8.16523198824
-8.04867533853
-7.93332882753
-7.82202913538
-7.71833946242
-7.61054070907
-34.791696
-8.71149202354
-10.8881228686
-9.46179584012
-9.85676425819
-9.75281645134
-9.7632922665
-9.73221383447
-9.70200280882
-9.66332333653
-9.61748221585
-9.56448769599
-9.50523010071
-9.43945441209
-9.36657374037
-9.28479926701
-9.1929033444
-9.11754640495
28.9768176004
-11.7676521146
-7.24421898656
-9.50104172729
-8.72435619669
-8.8034736341
-8.63697824995
-8.53389543867
-8.4120474944
-8.29560471085
-8.1810850535
-8.07088903584
-7.96665730871
-7.8687845823
-7.77688807988
-7.69214827534
-7.61744093855
-7.52636249192
-60.4229891877
-4.29153942652
-12.8868664352
-9.27105600054
-10.4345768427
-10.0825761799
-10.1589979767
-10.0896147015
-10.0525342508
-9.99848856725
-9.94400481996
-9.88540124411
-9.82417137877
-9.75915022775
-9.6896753225
-9.61406274053
-9.52935400912
-9.47413122713
46.0980902822
-17.763120687
-5.53089100457
-10.0849673156
-8.487120248
-8.85144327133
-8.60089521195
-8.53895856625
-8.41730863946
-8.31512749971
-8.20991240785
-8.10735378246
-8.00388806572
-7.89775565697
-7.78746347552
-7.67786480092
-7.58079755148
-7.46218952775
-57.7415855722
-1.92999249576
-13.6609500752
-9.47669974876
-10.8754549254
-10.3684723593
-10.4678500239
-10.3589913696
-10.3094594344
-10.2361594383
-10.1684845346
-10.0970583753
-10.0268920269
-9.9594553421
-9.89828710376
-9.84842084009
-9.80878726009
-9.81702159185
32.8524320105
-15.8140191397
-6.64480461999
-9.75672206937
-8.64842613518
-8.87880113159
-8.68936332332
-8.63324583827
-8.53384130029
-8.45085255732
-8.36653211584
-8.28532955182
-8.20571083733
-8.12813126529
-8.05060028184
-7.97126505619
-7.88604429714
-7.73556193274
-36.621654702
-6.60228462159
-13.132570764
-10.8693497063
-11.5499156502
-11.2810133678
-11.304965271
-11.2261188297
-11.1685294838
-11.0957050046
-11.0191390947
-10.93359277
-10.8426604301
-10.7469475715
-10.6432185674
-10.5237023211
-10.3704919893
-10.2380570972
-0.812822050395
-8.59444816538
-5.60294982795
-6.34065937649
-5.93996415066
-5.92742066871
-5.78659541893
-5.69318131234
-5.58827692696
-5.49069983082
-5.39347138846
-5.29816057916
-5.20680415221
-5.12107998281
-5.03970825854
-4.96385093241
-4.91448770678
-4.89586742556
-0.00325686181482
-0.00479897281623
0.000592314649599
-0.005019021801
-0.0293718114138
-0.0442863629703
-0.0659663908285
-0.0968560963739
-0.136852114225
-0.186046554212
-0.243940755671
-0.309553611396
-0.380969759867
-0.456105896009
-0.532852470222
-0.609626030909
-0.685503641824
-0.760133939816
-0.83374643491
-0.906799398276
-0.979955575632
-1.05375485943
-1.1287003038
-1.20507282045
-1.28285848302
-1.36201068071
-1.44216685491
-1.52303711977
-1.6039683469
-1.68453654676
-1.7639713048
-1.84182611814
-1.91741896097
-1.99029929259
-2.05982489074
-2.1255985944
-2.18731100166
-2.24460062773
-2.29729881524
-2.3450950617
-2.38800008821
-2.42572640314
-2.45843094379
-2.48588355444
-2.50835130118
-2.52573246395
-2.53830080224
-2.54609952615
-2.54936891732
-2.54825523807
-2.5429246587
-2.53360629796
-2.52023875253
-2.50303194448
-2.48196617942
-2.45730240027
-2.42889569156
-2.39673512446
-2.36069641991
-2.32029350867
-2.27553470008
-2.22654884172
-2.17361702104
-2.11748431385
-2.05895971917
-1.99807952886
-1.93509522539
-1.87003652411
-1.8034921572
-1.73575600205
-1.6673753253
-1.59858717905
-1.52969366555
-1.46090572758
-1.39233056648
-1.32407242549
-1.25616732094
-1.18867046796
-1.12183759673
-1.05593704434
-0.991194705872
-0.927766405312
-0.866055261446
-0.80639101378
-0.748873779272
-0.693659747892
-0.640749121644
-0.590547899621
-0.543785217154
-0.502597054423
-0.468015346374
-0.437405104357
-0.407177263077
-0.375061989884
-0.339887682099
-0.300978329154
-0.258189853311
-0.211637656438
-0.161207629206
-0.106247823526
-0.0476185865079
0.0146509511229
0.0838131115851
0.161896768162
0.244330209564
0.340544052588
0.449048872782
0.528722884888
0.587252978338
0.664167606194
0.698368716056
0.645433832301
0.523651130936
0.460331488961
0.476948303762
0.539827338386
0.478314140198
0.278950609397
0.0457621341589
-0.173636765564
-0.254731535443
-0.0480261999654
0.399746365756
0.638727038648
0.856542303332
1.07283801932
1.28732797289
1.50297498552
1.72328140929
1.9513121026
2.18992567794
2.44137337919
2.70752046002
2.98894273082
3.28494253126
3.59220758055
3.90789661953
4.23212994292
4.57116400933
4.92725486948
5.2927704352
5.65583837524
6.00937433203
6.35268313066
6.68719445254
7.0125093977
7.3295699844
7.63670619048
7.93351386353
8.21671651146
8.48498151075
8.73190930673
8.9538689558
9.13996697206
9.28444516267
9.3728909706
9.39953506945
9.3491351895
9.22127240058
9.00249173214
8.69662462612
8.29047048985
7.79245747671
7.19944998095
6.51611951886
5.7152019755
4.82385265488
3.84799076805
2.78674268134
1.59887527515
0.0375105413846
-1.55954740711
-3.24268975517
-5.49533769869
-8.60931751892
-11.6551649562
-13.8100879172
-14.6349743035
-13.3151175412
6.49960898439
-0.00577798046192
-0.00890451688413
-0.0345773052337
-0.0468360242135
-0.04346510345
-0.0268369583714
-0.00532570643488
0.0165902746172
0.0368301580064
0.0540945424168
0.067810553613
0.0779201787019
0.0849530564856
0.0895316468742
0.0922173663037
0.0933101891831
0.0928047136021
0.0905210267518
0.0860715176772
0.0791326912515
0.0693311532538
0.0564222345875
0.0402768845594
0.0208996302006
-0.00153525374093
-0.0267511046915
-0.0542764438287
-0.0836612571582
-0.114175988625
-0.14514188716
-0.175682242186
-0.205054957343
-0.23233400365
-0.256646268269
-0.277133066083
-0.292997133296
-0.303533857884
-0.308044633683
-0.306039780151
-0.296932632209
-0.280440470143
-0.256152087633
-0.224004561309
-0.183797853132
-0.135675427839
-0.0796844027176
-0.0161424030498
0.054699079563
0.132445925656
0.216629094876
0.306823229648
0.402545896291
0.503441424879
0.609023762508
0.71890818948
0.832551218845
0.949540785853
1.06931227176
1.19201804816
1.31627758039
1.44165991994
1.56816391159
1.69583191374
1.82496075991
1.95507463163
2.08518177955
2.21418753492
2.34139941646
2.46602720742
2.58736506554
2.70460490712
2.81701622355
2.92392451451
3.02471753619
3.1188956038
3.206086313
3.28607682456
3.35864231443
3.42353779646
3.4806399201
3.52989610378
3.57125080296
3.60456200097
3.62975699091
3.64673277018
3.65520543514
3.65450397607
3.64354463367
3.61961170253
3.57822316545
3.51654606332
3.4348589708
3.33459075598
3.21618810154
3.0795984759
2.92534541858
2.75549262366
2.57342140994
2.38202949561
2.18409901169
1.98636875703
1.79842076848
1.62325646057
1.46342304241
1.33081359703
1.21054848302
1.07815721623
0.960944562686
0.864271808023
0.719919564499
0.539889859859
0.372895970377
0.251647120006
0.192248522613
0.129922709584
0.0206588542598
-0.116717203539
-0.211843224673
-0.317205532224
-0.104751817963
0.140373415416
0.391396737265
0.562380200287
0.64670439484
0.741826155608
0.847177548387
0.964051043229
1.09407690606
1.23881030985
1.40051450842
1.58109349042
1.78237836102
2.00535340887
2.25011017707
2.51494047228
2.79657993868
3.09146363876
3.40173637659
3.73394366794
4.0905957494
4.46415749833
4.84039160822
5.20960025503
5.56716537814
5.91830850109
6.26395862414
6.60484230783
6.9400605494
7.26859476171
7.58806928061
7.89596875144
8.18683629836
8.45500126661
8.69043573549
8.88416187509
9.02214285781
9.09436869547
9.08725360923
8.99496070521
8.80453480674
8.51216338617
8.10574068688
7.58686416897
6.94195748261
6.14505917981
5.18337057555
4.07112604734
2.84675815012
1.48017106824
-0.0561292654658
-1.80137569019
-3.27470650259
-5.24422640045
-7.97839292087
-12.8813116561
-18.2735829306
-23.791432252
-32.0432170174
-44.5592882761
-49.4946868222
-0.0810819745779
-0.0983478235105
-0.0667969329952
-0.003434079961
0.0737047447957
0.14821964282
0.213031393616
0.267611592973
0.313156194285
0.350926746231
0.382445279526
0.409463370378
0.433924886756
0.457414525565
0.481100982243
0.505630630156
0.531279928995
0.558084785922
0.58593199338
0.61461894319
0.643929797106
0.673669083347
0.703622290602
0.733599345899
0.763506191852
0.793208555294
0.822669407503
0.851809219888
0.880670754817
0.909230118488
0.937560440715
0.965671815092
0.99363978519
1.02146759183
1.04921425259
1.07689662077
1.10445911739
1.13192120238
1.15920185198
1.18631238374
1.21312290686
1.23964420387
1.26570491689
1.29128234752
1.31617288327
1.34029539334
1.36345186301
1.3854983928
1.40626589545
1.42562652446
1.4434476172
1.45959841328
1.47407955117
1.48681090171
1.49781312084
1.50709273082
1.5148790966
1.5217246317
1.52720536146
1.53170384861
1.53543711169
1.5381210691
1.5393875814
1.53923523162
1.5380363127
1.53624345751
1.53397704588
1.53139894451
1.52865827145
1.52595875268
1.5234322172
1.52123727812
1.51955357589
1.51856614057
1.51854150008
1.51979730495
1.52268684284
1.52751329889
1.53454090206
1.54402280296
1.55621494999
1.5713096444
1.5894565053
1.61084550755
1.63572332457
1.6641779688
1.69635843914
1.73192927335
1.76908822838
1.80459158915
1.83590948163
1.86329082211
1.88703909245
1.90558114505
1.91599724761
1.9150987203
1.89993279018
1.86742214927
1.81470301029
1.74235355983
1.65539278896
1.55436240171
1.44129502909
1.33269692458
1.2286014838
1.10605530691
0.985614845709
0.898548411989
0.780872648286
0.610873691061
0.479897889423
0.384766006477
0.3178161764
0.229883436872
0.101788372177
-0.0165331405246
-0.0564005423752
-0.0615768533098
0.00146281785464
0.256680727843
0.432086519783
0.583788910735
0.686964294038
0.766144157949
0.85777510745
0.963415763385
1.08289040563
1.21618159137
1.36393769379
1.52759849074
1.70876080758
1.90897037218
2.12921978773
2.36965300834
2.6286570442
2.90354719504
3.19222329679
3.49704078401
3.8243378031
4.17592138019
4.54416398535
4.91486069531
5.27974430675
5.63696213713
5.9888536961
6.33666444311
6.68212370899
7.0246834146
7.36310828728
7.69449796253
8.01617008681
8.32208993853
8.60630916687
8.85794242168
9.06740490108
9.21974241866
9.30443521848
9.30653087617
9.21948783518
9.03045405677
8.73833829523
8.33321685353
7.81536930953
7.1714337928
6.38439801475
5.43377318056
4.31977528741
3.01508248416
1.51696346244
-0.151901781906
-1.99363767396
-3.6803091854
-5.50321799796
-7.57561968592
-9.89357003603
-12.7126418362
-16.0639766978
-21.5220150931
-32.2196333131
-43.4152916658
-0.149568241725
-0.0273947138686
0.104953582647
0.216132267808
0.304427309781
0.365662664939
0.404812424731
0.430664269525
0.449506326916
0.4646122297
0.478182819192
0.492135498112
0.50823922731
0.527679207742
0.551115982026
0.578652601601
0.610111331803
0.645076122217
0.683069849091
0.723583795934
0.76610443001
0.810094321949
0.855098466059
0.900656645235
0.9463595031
0.991858077546
1.03688778881
1.0812092016
1.12468384096
1.1672163324
1.20879956888
1.24942035086
1.2891464297
1.3280691972
1.3662614969
1.40381551255
1.44082248537
1.47737380081
1.51350100929
1.54930622745
1.5847819996
1.62000160656
1.65491097851
1.68953763749
1.72378899607
1.75763454441
1.79095225576
1.82368186807
1.85571649507
1.88694816355
1.91730078488
1.9466960846
1.97507449545
2.0024017586
2.02867880087
2.05385265696
2.07809694684
2.1014871843
2.12437729495
2.14677199293
2.16890479636
2.19120632906
2.21399072311
2.23712627086
2.2601942714
2.28294393245
2.30505536574
2.32617389241
2.34586724657
2.36376167849
2.37948258432
2.39270969354
2.40318123189
2.41073456168
2.4152915469
2.41684210393
2.4154719344
2.41126191212
2.40428036294
2.3945795148
2.3821681311
2.36697082502
2.34884582733
2.3276304341
2.30313158522
2.27517922375
2.24352090444
2.20791065962
2.16684874333
2.11764047612
2.05977943283
1.9956580233
1.92840858696
1.85996816088
1.79103551508
1.72148168887
1.65057271849
1.5773534662
1.50160583975
1.42378389186
1.34002917207
1.24643747134
1.15356639901
1.06313153754
0.948606234963
0.820409194581
0.723149496052
0.638567846375
0.505297714083
0.399633085572
0.358410795076
0.337929629407
0.295799335511
0.186124089451
0.131509827922
0.0795371266451
0.116056301917
0.122268962804
0.215421631159
0.358958568832
0.429782346952
0.492314343904
0.549178106211
0.608827350535
0.682280537958
0.771361002894
0.877352866899
1.00068030287
1.14265999248
1.30441207422
1.48748487518
1.69277067405
1.92085748516
2.17103886223
2.44095587543
2.72724911117
3.02832808877
3.34590740081
3.68488890921
4.04632003179
4.42081121304
4.79572584994
5.16360824396
5.52269202234
5.87149507087
6.2165006439
6.55756730731
6.89556885951
7.22866413867
7.5544677785
7.86964336815
8.1690509704
8.44588446104
8.69044492416
8.89198071282
9.03714468792
9.11400948526
9.1091692512
9.01411130551
8.81858737131
8.52220554716
8.119850766
7.60984135948
6.98464026733
6.23363997434
5.33867730964
4.28214452845
2.96638446095
1.38693795021
-0.399654430136
-2.4413019678
-4.53089141667
-6.73161189867
-8.64645484815
-8.58425328126
-8.19878948532
-8.54380250541
-9.09266066548
-12.877895447
-22.5475466182
-0.156307420931
0.278916528251
0.453659650698
0.496150698455
0.502716208329
0.491926644083
0.47541085031
0.462150500033
0.455467231843
0.455045637878
0.460189977235
0.470659502898
0.486631840728
0.508120386764
0.535005243882
0.56689766543
0.603359020193
0.643860349864
0.687929313877
0.735039167711
0.784751845722
0.836625325545
0.890230405921
0.945151418119
1.00102197926
1.05746440735
1.11413065965
1.17071604802
1.22693652859
1.2825528749
1.33734247848
1.39115176765
1.44382536093
1.49523075584
1.54528253016
1.59390745322
1.64101723961
1.68658546927
1.73056891345
1.77296433688
1.81373554109
1.85290053568
1.89041758725
1.92629450532
1.96047138071
1.99292388133
2.02357847835
2.05236838006
2.0792021432
2.10400444145
2.12664844294
2.14701342838
2.16499390322
2.18046388858
2.19330604402
2.20343892909
2.21094562854
2.21570019354
2.21762632259
2.21655967325
2.21225722394
2.20459800736
2.19374119747
2.18014564271
2.16421490557
2.14625184294
2.12653478561
2.10541084821
2.08323836203
2.06044245678
2.03744477671
2.01470680216
1.99267912696
1.9717708579
1.95234606647
1.93471372171
1.91908391787
1.90554971234
1.89410168958
1.88459812382
1.87678977889
1.87030003331
1.86467935134
1.85944069273
1.85410964915
1.84812605886
1.84105385524
1.8320708182
1.8191492513
1.79933918163
1.77087561126
1.73493982767
1.69324190452
1.64599765309
1.59236618917
1.53157805227
1.46390467168
1.39063874173
1.31255866159
1.22849474183
1.13741048509
1.04618385611
0.957085544381
0.846142854514
0.707034616546
0.585768969409
0.48836929282
0.369031321214
0.238721825562
0.191863406936
0.203213101249
0.220355370836
0.183552142422
0.129177295096
0.170103094625
0.162224466341
0.182378121335
0.180575985339
0.230886546029
0.291606015707
0.326907150785
0.37038207115
0.425397191781
0.493891156723
0.578513427199
0.679814516579
0.798207488724
0.933889854162
1.08765050093
1.26045181557
1.45349155136
1.66762618148
1.90329855173
2.15948588077
2.43382425482
2.72354447942
3.02774431425
3.34827973011
3.68920752418
4.05029935374
4.42237477727
4.79395291284
5.15889482881
5.51499577142
5.86041099765
6.20287790112
6.54209249948
6.87903700169
7.21177774797
7.53762995911
7.85330056762
8.15337912257
8.43112270178
8.67661281328
8.87901970083
9.02486642447
9.10194495545
9.09678657411
9.00032704452
8.80238413313
8.50226023114
8.09592560261
7.58172082636
6.95392019099
6.20500989036
5.3199637162
4.2828688997
2.98264050302
1.40053388932
-0.400672317635
-2.49110601394
-4.70011460708
-7.07182281952
-9.04965214028
-8.42420376379
-6.75076545053
-5.69482157441
-3.9462514293
-3.84913800176
-10.2934126203
-0.0353832349754
0.836450234924
0.84791737264
0.678512879846
0.558287947495
0.479666012178
0.431600842827
0.407000046964
0.399996152024
0.404967625028
0.418481833449
0.438732160937
0.464923541501
0.496477253467
0.532964025725
0.573869000083
0.618747319027
0.667088199658
0.718452997274
0.772396123779
0.828507159732
0.88635672201
0.945571530085
1.00576180889
1.0665310577
1.12752535548
1.18837655988
1.24875763849
1.30832645471
1.36681273848
1.42393437679
1.47946080634
1.5331762168
1.58493432803
1.63457075526
1.68198929853
1.72713189259
1.76997433076
1.81052205554
1.84884228988
1.88500902022
1.91914075959
1.95134338336
1.98174145398
2.01042732228
2.03748420558
2.0629501264
2.08685481772
2.10916892431
2.12983683931
2.14876525408
2.16585237181
2.18094903693
2.19390129628
2.20455105863
2.21279956732
2.21837044133
2.22133001309
2.22164849301
2.21918852143
2.21412578382
2.20661784624
2.19652471143
2.18363364526
2.16787895106
2.14924642947
2.12770580387
2.10329322385
2.07611836719
2.04642353106
2.01457990799
1.98111528564
1.94664426224
1.91188101621
1.87752639666
1.84421651333
1.81249940692
1.78275784631
1.75516823583
1.72968721575
1.7060616711
1.68380552263
1.66231695719
1.64091483312
1.61897179328
1.59601500958
1.57162781157
1.5454813343
1.51630950727
1.48182860366
1.44148767556
1.39720934375
1.35098361243
1.30342585598
1.25404066837
1.20230874577
1.14789746253
1.08977327042
1.02612407703
0.957661956315
0.888226418853
0.817980349079
0.731677212118
0.617894652872
0.506327138325
0.412805631409
0.299962824646
0.158550122764
0.0532019236681
0.0524644631554
0.0823257947886
0.107215438304
0.069017111215
0.101963927296
0.134005488703
0.115871852263
0.11037979873
0.098435363302
0.117077558465
0.143978609337
0.171005733216
0.213036324973
0.271079321433
0.345756109911
0.43686387316
0.544880152315
0.669551351433
0.811637813951
0.97166328789
1.15103063204
1.3506667046
1.57162250175
1.81385176342
2.07621751505
2.35598755658
2.65157186467
2.9620151022
3.28895362329
3.63528993751
3.9988414288
4.37060610806
4.74080098065
5.10369185771
5.45668928619
5.80077814191
6.14173417622
6.47981199881
6.81586959815
7.14784416512
7.47327412258
7.78857638249
8.08864129988
8.3662680452
8.61204678612
8.81451286077
8.96096697565
9.03828538558
9.03420634752
8.93828818794
8.74153333859
8.43991462822
8.03041915602
7.50901318481
6.87200693414
6.10917243216
5.21164308154
4.17263872594
2.91471112474
1.41021004792
-0.293671730704
-2.26466353942
-4.32364451256
-6.60040694881
-8.72907562781
-9.02688363235
-8.22797671377
-7.7750885023
-6.77505437039
-6.818387177
-10.5145864326
0.232382942696
1.55822081678
1.15269719858
0.724963524466
0.523441877821
0.424666194145
0.378556897217
0.360296660193
0.360209744433
0.371478150818
0.390751173894
0.41618976038
0.446912622084
0.482237536943
0.52167891087
0.56472049107
0.610937884368
0.659883696248
0.711174287951
0.764395378575
0.819184953084
0.875177006936
0.931990925942
0.989267515686
1.04664034
1.10375626122
1.16024272669
1.21578579049
1.27004891898
1.32276747003
1.37366611932
1.42256771789
1.46928597089
1.51370720131
1.55576475362
1.59544906715
1.63278403021
1.66787401989
1.7008644681
1.73194322058
1.76132300446
1.78922858861
1.8158692242
1.84142242506
1.86601509147
1.88971236934
1.91251502383
1.93435495372
1.95509823489
1.97457624674
1.99254029121
2.00872771902
2.02281895602
2.03447171612
2.04329422669
2.04896784954
2.05098715478
2.04875727651
2.04221647698
2.03098209604
2.01493549105
1.99421317552
1.96917850705
1.94032257149
1.90821942413
1.87351535824
1.83689355934
1.79896782371
1.76023838011
1.72113014633
1.68199343236
1.64318649781
1.60506875824
1.56799676947
1.53230089484
1.49830783576
1.46626973731
1.43635861963
1.40862558913
1.38296428439
1.35908956444
1.33652808754
1.31466420082
1.29281802628
1.27054075997
1.24746714669
1.22357031238
1.19863338557
1.17139011107
1.13977287529
1.10286737111
1.06224984713
1.01983210911
0.975750777539
0.929387597612
0.880368716799
0.828740870808
0.774855046165
0.720644914121
0.668789848986
0.617025985279
0.556591551811
0.485279245316
0.414987652451
0.357948974328
0.280286968935
0.16437424396
0.0491673018263
-0.00618728089599
0.00754582747601
-0.000679941779202
-0.0122793568031
-0.0372696444469
-0.00490912997096
-0.00556383705917
-0.0331555794484
-0.0495907175397
-0.0601311843253
-0.0483477429192
-0.0241480819086
0.0107877994009
0.0617299836961
0.129055729627
0.212673645678
0.31219573119
0.427626476463
0.559046741518
0.707126410962
0.87282928194
1.05746918521
1.26223260919
1.48806202136
1.7347729564
2.00105983715
2.28474752811
2.58450343722
2.89970005533
3.23125534098
3.58044849136
3.94418336104
4.31395509852
4.68148275997
5.04098787852
5.38897626021
5.73174198886
6.07129868059
6.40912298121
6.74516598442
7.07750390332
7.40356420126
7.71978964454
8.02094291611
8.29986409516
8.54704489402
8.75122420778
8.89956007683
8.97922407342
8.97779361945
8.88501908967
8.6913769652
8.39100484632
7.9792656667
7.45103861784
6.80231586806
6.02052689713
5.10120931868
4.04669937341
2.82515009184
1.41132618944
-0.166450250784
-1.96480934413
-3.7856886834
-5.85147942022
-8.09456783956
-9.7246152575
-10.731908093
-11.8339639104
-12.8776123372
-14.9802044442
-17.1473333946
0.641003573427
2.30991706483
1.30365374967
0.69284330064
0.488082318149
0.401534910581
0.365849663674
0.350000159795
0.350041200237
0.360392766211
0.378874336547
0.40361600958
0.433571873498
0.467817141431
0.505671219265
0.546502569192
0.589820069667
0.635150816679
0.682100210296
0.730297339831
0.779383591939
0.829015615072
0.878854731367
0.928577247989
0.977831340137
1.02632065125
1.07371879124
1.11976459876
1.16418239887
1.20678859341
1.24740189178
1.28592811859
1.3223038732
1.35655447505
1.38871958982
1.41892538102
1.44735117789
1.47423039932
1.49983287431
1.52445480133
1.54838239207
1.57187049504
1.59511799745
1.61824321793
1.64128002994
1.66416527535
1.68675546656
1.70883973595
1.73014913695
1.75038084881
1.76919428887
1.78624660334
1.80113416378
1.81348766145
1.82290545211
1.82908022604
1.83164353369
1.82956916495
1.82341948363
1.812859312
1.79769827444
1.77766712519
1.75269297041
1.72294822562
1.68882500801
1.65092503703
1.6099881888
1.56676002714
1.52193496336
1.47612772592
1.42990050987
1.38378133919
1.33822615796
1.29364489197
1.25031761416
1.20840858354
1.16801790857
1.12917588349
1.09187079303
1.05604861572
1.02157520983
0.988251941345
0.955682501587
0.923729647113
0.892348677226
0.861967592266
0.833085413397
0.805922754034
0.779499061627
0.75103796185
0.719940066898
0.688137827181
0.657078886169
0.625957193328
0.59288705239
0.556315051449
0.516554290594
0.47539638008
0.43507021741
0.395840405538
0.355816536847
0.314855807121
0.281897836678
0.257914836674
0.23125571595
0.175331837623
0.0929026626498
0.0238945018813
-0.0134318464262
-0.0546294998231
-0.115834132173
-0.16107046662
-0.18897812742
-0.188118105167
-0.210446139895
-0.236895691389
-0.249073645763
-0.249132460524
-0.230605793073
-0.19872106971
-0.153514495679
-0.0937268271663
-0.0183515856736
0.0722859788571
0.178655800244
0.300510014734
0.438605755685
0.593379334341
0.766193519453
0.958026496133
1.17017264758
1.40303151306
1.65619945588
1.92792858839
2.21690027344
2.52174069368
2.84176233982
3.17727165828
3.52788992223
3.88983995463
4.25581483953
4.61830855502
4.97165323255
5.31399926155
5.65372108772
5.99057715612
6.32665883172
6.66108936298
6.99213078055
7.31715266799
7.632717496
7.93345316395
8.21232981454
8.45967072966
8.66446954655
8.81366025344
8.89477983253
8.89501365465
8.8045177092
8.61298279356
8.31382286925
7.90008431593
7.3666297082
6.70767164831
5.91059394418
4.97160646432
3.89958285945
2.69515172504
1.34514660693
-0.136534208701
-1.79204072164
-3.41409997393
-5.27401896193
-7.52864377681
-10.121976513
-12.688508717
-15.2319192871
-18.0888043295
-22.2082178478
-24.1456559523
1.14862255793
2.95199033917
1.32669217119
0.670713182081
0.505752042555
0.429811389137
0.393833089468
0.368770873707
0.360295822232
0.362313346871
0.373392711714
0.390989378088
0.413813520959
0.440638454356
0.470605799842
0.502997751171
0.537259615901