/*--------------------------------*- C++ -*----------------------------------*\
| =========                 |                                                 |
| \\      /  F ield         | OpenFOAM: The Open Source CFD Toolbox           |
|  \\    /   O peration     | Version:  v1806                                 |
|   \\  /    A nd           | Web:      www.OpenFOAM.com                      |
|    \\/     M anipulation  |                                                 |
\*---------------------------------------------------------------------------*/
FoamFile
{
    version     2.0;
    format      ascii;
    class       volScalarField;
    location    "27";
    object      p;
}
// * * * * * * * * * * * * * * * * * * * * * * * * * * * * * * * * * * * * * //

dimensions      [0 2 -2 0 0 0 0];


internalField   nonuniform List<scalar> 
12225
(
-4.75731620039
-5.50470727874
-5.73772221617
-5.79123141467
-5.82824484415
-5.85499932998
-5.85903265379
-5.83817494274
-5.79340431019
-5.7241528332
-5.62828371432
-5.50253544583
-5.34248180292
-5.14195664974
-4.89215750123
-4.57997933101
-4.18302490608
-3.66097916633
-4.93124886908
-5.51543889584
-5.74341564732
-5.80054259569
-5.83598723193
-5.86125627615
-5.86467332097
-5.84362079476
-5.79890679316
-5.72996670912
-5.63468905337
-5.50987235322
-5.35120950127
-5.15277175015
-4.90623701293
-4.59976542419
-4.21535001822
-3.76131511122
-5.07429643209
-5.50272870578
-5.73125539404
-5.80092627512
-5.83838239743
-5.86405494313
-5.86859727154
-5.84898294295
-5.8059051661
-5.73898156172
-5.64632021846
-5.52501390369
-5.37122372884
-5.17985110076
-4.94418998992
-4.65600642538
-4.306852431
-3.91707901383
-5.19953631385
-5.51579698707
-5.73609784067
-5.81515783047
-5.85283930473
-5.8770757095
-5.88152784126
-5.86271952434
-5.82106706665
-5.75634428275
-5.66692106635
-5.55027374732
-5.40319918081
-5.22172153078
-5.00118968943
-4.73724269341
-4.4286305328
-4.09618466403
-5.31136569139
-5.54399026981
-5.74339101786
-5.82669853272
-5.86452036258
-5.88751815151
-5.89231844132
-5.87512446606
-5.83594178936
-5.7746545509
-5.68994874519
-5.57977841409
-5.44170565497
-5.27302551044
-5.07119340652
-4.83519439382
-4.56844055511
-4.29009058454
-5.41204032413
-5.58286540254
-5.75685080381
-5.84197591902
-5.88126738948
-5.90393554468
-5.90953613756
-5.8944668857
-5.85839626251
-5.80133775346
-5.72237406757
-5.62003083815
-5.49271316957
-5.33900844353
-5.15829855882
-4.95217381811
-4.72681236765
-4.49959166437
-5.50366376448
-5.62938217351
-5.77711462756
-5.86067486259
-5.90102432405
-5.92330633509
-5.92954865775
-5.91674104256
-5.88428358859
-5.83227325416
-5.76019984334
-5.66718734043
-5.55248313083
-5.41587579813
-5.25836165343
-5.08337785384
-4.89849121313
-4.7191364732
-5.58811164801
-5.68119081529
-5.80416052155
-5.88344932411
-5.92450457262
-5.9469714409
-5.95440362514
-5.94454958871
-5.91664388279
-5.87083831049
-5.80702384497
-5.7249274106
-5.62459930009
-5.50687721024
-5.37400773482
-5.23059320289
-5.0846416079
-4.94953615884
-5.6669852695
-5.73661433761
-5.83763300605
-5.91084559127
-5.95206213781
-5.97513359689
-5.98416984261
-5.97773082643
-5.95505365306
-5.91636184657
-5.86192688921
-5.79205155551
-5.70750365859
-5.60996985223
-5.50256565934
-5.39048157246
-5.2815216989
-5.18696526413
-5.74164684501
-5.79452727686
-5.87698096255
-5.94324690655
-5.98409342663
-6.00816799208
-6.01936876213
-6.01697748021
-6.00036785238
-5.96984610703
-5.92601121259
-5.86966676054
-5.80217074828
-5.72582659329
-5.64425741183
-5.56278368031
-5.48861226283
-5.43098418303
-5.81322552359
-5.85420066896
-5.92154595985
-5.98082792479
-6.02095451914
-6.04641682905
-6.060402836
-6.06272542437
-6.05297655656
-6.03156315918
-5.99935314452
-5.95755723504
-5.90797736359
-5.85330429718
-5.7973568118
-5.74524805958
-5.70335904645
-5.67901966496
-5.87692982696
-5.91023920208
-5.96666502209
-6.02004014348
-6.05939797513
-6.08648285232
-6.10361643679
-6.1109025797
-6.10815841927
-6.09589583226
-6.07516804688
-6.04745343702
-6.01480982803
-5.98008878702
-5.94705058822
-5.92041499255
-5.90572686472
-5.90880283592
-5.93892904559
-5.96667619136
-6.01454057389
-6.06282224185
-6.10153205393
-6.13053776471
-6.15129272478
-6.16403947214
-6.16880253012
-6.16619612311
-6.15740347917
-6.14406967749
-6.12839850453
-6.11323944943
-6.10216179516
-6.09936219055
-6.10952927457
-6.13700403659
-6.00859285828
-6.03195788608
-6.07269787519
-6.11649382751
-6.15490131506
-6.18656423893
-6.21209757173
-6.23175498609
-6.24574230667
-6.25476770495
-6.26008584529
-6.26342544162
-6.26698688709
-6.27348202624
-6.28609121862
-6.30836389065
-6.34403289458
-6.39607633673
-6.08651401771
-6.10678080541
-6.14229093715
-6.182850196
-6.22177102658
-6.25713482277
-6.2888731801
-6.31715228896
-6.34228330135
-6.36502895666
-6.38663299559
-6.40877342926
-6.43349088382
-6.46318065884
-6.50048108754
-6.54817529733
-6.60903218635
-6.68474668377
-6.17301425455
-6.19148925691
-6.22400428886
-6.26323695503
-6.30411340286
-6.34463167594
-6.38428012004
-6.42306483083
-6.46131499624
-6.49974896985
-6.53950666977
-6.5820440467
-6.62910403668
-6.68258090245
-6.74449156933
-6.81678135325
-6.90133261027
-6.99869073043
-6.26753811872
-6.28551479019
-6.31750317214
-6.35791586327
-6.40283880802
-6.45042090102
-6.49990381425
-6.55112483465
-6.60430733121
-6.66003151426
-6.7191853228
-6.78289699289
-6.85243707721
-6.92914628068
-7.01433156334
-7.10918967113
-7.21477616409
-7.33076131955
-6.36731340756
-6.38605475546
-6.42012531499
-6.46464713877
-6.51621212714
-6.57307312058
-6.63433442227
-6.6996543296
-6.76905737998
-6.84287019492
-6.92163502047
-7.00605024509
-7.0968672912
-7.19484248324
-7.30064083318
-7.41480597655
-7.53776415782
-7.66853533278
-6.46468470188
-6.48571622078
-6.52496339981
-6.57713828254
-6.63849576128
-6.7071555005
-6.78211600293
-6.8628581321
-6.94914644081
-7.04098039035
-7.13851164332
-7.24198887174
-7.35166602611
-7.46777290085
-7.5904442769
-7.71971394517
-7.85555213007
-7.99653270177
-6.52382912514
-6.54830587847
-6.5950517077
-6.65693241559
-6.72886294621
-6.80868776888
-6.89547514285
-6.98867218871
-7.08784746955
-7.19277652728
-7.30334874756
-7.41954588165
-7.54131720612
-7.66860350058
-7.80125027438
-7.93904964485
-8.08176367738
-8.22781458595
-6.54633554645
-6.57483985033
-6.6301208179
-6.70192588896
-6.78330740269
-6.87210940089
-6.96783515636
-7.07000703287
-7.17811447219
-7.29179991449
-7.41087022432
-7.53515336142
-7.66447165459
-7.79858664274
-7.93722944014
-8.08005049406
-8.22675852408
-8.37569772852
-6.54351796745
-6.57795612036
-6.6445716091
-6.72764536704
-6.81808304436
-6.91464769132
-7.01772507533
-7.12696534001
-7.24175648708
-7.36172397264
-7.48665499351
-7.61633129858
-7.75048632164
-7.88880238189
-8.03092236812
-8.17642932924
-8.32495349863
-8.47479210734
-6.51959360667
-6.56312095314
-6.64497957121
-6.74045790063
-6.83910450607
-6.94224795692
-7.05152237476
-7.16655478981
-7.28666285926
-7.41155854262
-7.54107479703
-7.6749755798
-7.81292957232
-7.95457025501
-8.09947543514
-8.24720283865
-8.39736582511
-8.5483262693
-6.47730533229
-6.53534444964
-6.63746095099
-6.74559214056
-6.85084855615
-6.95921675455
-7.07337920827
-7.1926332379
-7.31631417571
-7.44434834848
-7.57668806362
-7.71310461848
-7.85326846952
-7.996782863
-8.14319483406
-8.29198058838
-8.44266953402
-8.59350382423
-6.41822086729
-6.49966605413
-6.62748995437
-6.746941917
-6.85701037171
-6.97009521433
-7.08894110196
-7.2121151957
-7.339072794
-7.47000311623
-7.60493967651
-7.74365369405
-7.88581023383
-8.03102055825
-8.17881572214
-8.32864324094
-8.48000545096
-8.63117030796
-6.34247999416
-6.46161314809
-6.61925115603
-6.74594860452
-6.85776871756
-6.97372918975
-7.09539952202
-7.22068058318
-7.34937045405
-7.48191861689
-7.61838797048
-7.75852437903
-7.90198115338
-8.04835022199
-8.19713404698
-8.34770981146
-8.49939913548
-8.65012204182
-6.2496346951
-6.42791202817
-6.61639251642
-6.74690054163
-6.86096724468
-6.98075511404
-7.10533345651
-7.23243642781
-7.36248573401
-7.49620200919
-7.63369399247
-7.77473287143
-7.91901194393
-8.06614758838
-8.21565468968
-8.36690511563
-8.51912357338
-8.66989300205
-6.13800295892
-6.40521133571
-6.61303021023
-6.73799217749
-6.85242369058
-6.97544114669
-7.10241491515
-7.23116130525
-7.36262889453
-7.49764101501
-7.63628737976
-7.77836013481
-7.92358620882
-8.07161690377
-8.22201427086
-8.3742218428
-8.52743514268
-8.67865096963
-6.00667322335
-6.41352659926
-6.63238215027
-6.74612880495
-6.85839046494
-6.98195668067
-7.10897684771
-7.2375586821
-7.36899918219
-7.50410523965
-7.64290674112
-7.78518462869
-7.93067081517
-8.07903199029
-8.22989411489
-8.38290442122
-8.53773561701
-8.69240466807
-5.83605568764
-6.39585574822
-6.62730451045
-6.73809273502
-6.85207785039
-6.97778597409
-7.10606584666
-7.23545389286
-7.36752531639
-7.5031400694
-7.64234874508
-7.78496329588
-7.93073955714
-8.07936601888
-8.23050990867
-8.38396692252
-8.53984430662
-8.70205908922
-0.367667140923
-0.37736239828
-0.395381946401
-0.446268970053
-0.548307506304
-0.706852180879
-0.926198536465
-1.20937968412
-1.55829150715
-1.973552183
-2.45454568837
-2.99952284227
-3.60564078762
-4.26909624675
-4.9851934651
-5.74850564671
-6.55296616936
-7.39204847598
-8.25887072354
-9.14638259179
-10.0474732091
-10.9551516976
-11.8626456689
-12.7635632651
-13.6519708767
-14.5225221608
-15.370502689
-16.1919127316
-16.9834667857
-17.7426230672
-18.4675345395
-19.1570251117
-19.8104974469
-20.4278709684
-21.0094654742
-21.5559223247
-22.0680864098
-22.5469372682
-22.993491766
-23.4087621905
-23.7936914814
-24.1491447984
-24.475876801
-24.7745525648
-25.0457359032
-25.2899244737
-25.5075410296
-25.6989726336
-25.8645562067
-26.0045997966
-26.1193392508
-26.2089417765
-26.2734668735
-26.3128853813
-26.3270266632
-26.3156522443
-26.2786113009
-26.2159223642
-26.1276023645
-26.013737836
-25.8744857185
-25.7101251911
-25.5210561746
-25.3078848783
-25.0713833308
-24.812526998
-24.5324379355
-24.2324186162
-23.9138668715
-23.5782910137
-23.2272136569
-22.8621863795
-22.4847013273
-22.0962263285
-21.6981420061
-21.2918145575
-20.8785666859
-20.4597824069
-20.0368893487
-19.6114420569
-19.1850570738
-18.7594465041
-18.3362798624
-17.9171334407
-17.5032708348
-17.0955757258
-16.6943508301
-16.2992909432
-15.9093487738
-15.5227343648
-15.1368842847
-14.7484226224
-14.3532240632
-13.9463895539
-13.5221962917
-13.0739596641
-12.593923656
-12.0731391902
-11.5014910926
-10.867903106
-10.1608639952
-9.36916446573
-8.48274807969
-7.49364787388
-6.39692529837
-5.1919036684
-3.88327712263
-2.4818047031
-1.00385986501
0.529522290507
2.09384294623
3.66346030065
5.21123225981
6.71165108846
8.14069528363
9.47812356784
10.7104628553
11.8235557018
12.8086601504
13.6626363178
14.3822657775
14.9692843845
15.4368676353
15.7937396592
16.0505190682
16.2395764608
16.3595442982
16.3920761813
16.3497533288
16.2528231072
16.1178081685
15.9570120368
15.7799292803
15.5942487967
15.4063564134
15.2215435456
15.0441211235
14.8774700392
14.7241162967
14.5857728178
14.4634482403
14.3574432496
14.2678935452
14.195231268
14.1398022631
14.1011693811
14.0781000411
14.0689146101
14.0718827813
14.0853530998
14.1078236436
14.1378883839
14.1742598684
14.2157293612
14.2612041018
14.3096782985
14.3602674853
14.4121788578
14.464737261
14.5173551748
14.5695505613
14.6209176937
14.6711401087
14.7199662648
14.7672164657
14.8127629846
14.8565348468
14.8985044727
14.9386888686
14.9771420613
15.0139553569
15.0492588937
15.0832206104
15.1160565281
15.1480340927
15.1794988726
15.2108981184
15.242754442
15.2768303157
15.3008777778
-0.27465528137
-0.329765502734
-0.381921055121
-0.44558003278
-0.553282936901
-0.716523508517
-0.941827315261
-1.23266683203
-1.59085868608
-2.01680415283
-2.50962079666
-3.06726097305
-3.6865801439
-4.36346607185
-5.0929263729
-5.86924135443
-6.68607451811
-7.53664291393
-8.41384129006
-9.31041821522
-10.219102567
-11.1327730339
-12.0445745247
-12.9480677526
-13.8373235504
-14.7070389632
-15.5525945335
-16.3701214998
-17.1565100424
-17.9094193458
-18.6272310087
-19.3090028122
-19.9543763908
-20.5634921279
-21.1368726346
-21.6753252548
-22.1798294161
-22.6514543363
-23.0912739919
-23.5003191028
-23.8795295847
-24.2297419476
-24.5516766966
-24.8459593084
-25.1131274128
-25.353657752
-25.5679651033
-25.7564420094
-25.9194699266
-26.0574099949
-26.170562123
-26.259106453
-26.323125968
-26.3625724163
-26.3770490343
-26.3657476277
-26.3282831306
-26.2648306283
-26.1754396475
-26.060262174
-25.9195003152
-25.753382433
-25.5623296908
-25.3469832632
-25.1081318265
-24.8467678011
-24.5640864005
-24.2614417429
-23.9402981352
-23.6021996361
-23.2487069025
-22.8813710178
-22.5016841276
-22.1110795475
-21.7109164686
-21.3025212707
-20.8872116545
-20.4663658883
-20.0414488678
-19.6140532236
-19.1858724947
-18.7586780998
-18.3342150316
-17.9141017677
-17.4996649732
-17.0918271136
-16.6909762091
-16.296902195
-15.9087066696
-15.524771076
-15.1426540322
-14.7590683745
-14.3698533431
-13.9699781801
-13.5535051058
-13.1135472945
-12.6422102122
-12.1305406185
-11.5685080337
-10.9451127209
-10.2487887042
-9.46809541051
-8.59265753879
-7.61414955026
-6.52735559947
-5.33128742657
-4.03051124082
-2.6356988773
-1.1630708199
0.367627720596
1.93234826091
3.50505213506
5.05868418819
6.56750789827
8.00774442837
9.35576647707
10.5966330906
11.7157192592
12.702909359
13.5527221594
14.2706418102
14.8585840112
15.33128968
15.7087312509
15.9886707227
16.1816507847
16.2962045221
16.3303170344
16.2941245068
16.2041218069
16.0753644879
15.9198760224
15.7472473333
15.5653319465
15.3806572353
15.1986252926
15.0236227014
14.8590839263
14.7075819018
14.5708956982
14.4501378003
14.3459501907
14.2584855794
14.1874030559
14.1328703141
14.0949545681
14.0725711217
14.064040846
14.0676172112
14.081646232
14.1046250662
14.135149951
14.1719342267
14.2137719753
14.2595725528
14.3083332711
14.3591726991
14.4113013122
14.4640475578
14.516826161
14.5691583686
14.6206406622
14.6709600434
14.7198658696
14.7671811775
14.8127789007
14.8565905824
14.8985881237
14.9387900424
14.9772497731
15.0140598384
15.0493479093
15.083281505
15.1160732662
15.1479881397
15.1793632446
15.2106371346
15.2422703783
15.276139361
15.2983536176
-0.214709493136
-0.296579829887
-0.411293938496
-0.554280908756
-0.736269993938
-0.964561035213
-1.24616308526
-1.58631896663
-1.98822231837
-2.45316448983
-2.98079679034
-3.56936440645
-4.21586229497
-4.91622093143
-5.66543826631
-6.45775867824
-7.28680685663
-8.14576960945
-9.0275336131
-9.92486605717
-10.8305501709
-11.7375569184
-12.6391692562
-13.5291334044
-14.4017599523
-15.2520396179
-16.0757034865
-16.8692850177
-17.630123059
-18.3563575098
-19.046868631
-19.7012089929
-20.3194917066
-20.9022821388
-21.450465243
-21.9651321959
-22.4474616171
-22.8986351545
-23.3197601728
-23.711829865
-24.0756901799
-24.4120451751
-24.7214720469
-25.0044516117
-25.2613877408
-25.4926217861
-25.698486788
-25.8793523582
-26.0355820458
-26.1675154954
-26.2753592492
-26.3593386491
-26.4195453082
-26.455507581
-26.4660075946
-26.4509571737
-26.4108133939
-26.3451594402
-26.2538137725
-26.1366394191
-25.9935312412
-25.8246368056
-25.6304062326
-25.4114832904
-25.1687260019
-24.9032534912
-24.6163550077
-24.3094737215
-23.9841490863
-23.6419692385
-23.284515574
-22.9133280831
-22.5298754846
-22.1355543133
-21.7316986355
-21.319619989
-20.9006503672
-20.4761972647
-20.0477778859
-19.6170414992
-19.1857501163
-18.7557367275
-18.3288204583
-17.9067040691
-17.4908370278
-17.0822919576
-16.6816503526
-16.2889167974
-15.903422466
-15.5237122363
-15.1474461088
-14.7713067883
-14.390994526
-14.001263268
-13.595945443
-13.168001716
-12.7094819773
-12.2114696395
-11.6639732153
-11.0558960356
-10.3753493794
-9.61045332249
-8.75051054065
-7.78702133797
-6.71452839093
-5.53121863668
-4.24046687025
-2.85208540475
-1.38281580794
0.147780270369
1.71698938122
3.29752276474
4.86165708259
6.38150810977
7.83072784564
9.18549470532
10.4303323141
11.5472970245
12.5340323493
13.3840014722
14.1066921406
14.7163561962
15.2096459606
15.5954778617
15.881141752
16.0782417262
16.1951993475
16.2352372326
16.2075325076
16.1260854258
16.0048559486
15.855763405
15.6886196553
15.5115216229
15.3311779233
15.1531102198
14.9817755732
14.820666987
14.6723887191
14.5387639456
14.4209352997
14.3195378128
14.2347672051
14.1663072735
14.1140916376
14.0781847829
14.0576315708
14.0507951594
14.0559273055
14.0713992083
14.0957059423
14.12746086
14.1653699112
14.2082414193
14.2549787477
14.3045937511
14.3562008323
14.4090240972
14.4623886075
14.5157215456
14.568541369
14.6204552034
14.67114723
14.7203750261
14.7679589591
14.8137779252
14.8577601691
14.8998813454
14.9401556247
14.9786360641
15.015408202
15.0505948198
15.0843506801
15.1168725002
15.148396193
15.1792115855
15.2096630919
15.2400502905
15.2715516534
15.2910268948
-0.458434894034
-0.564786977557
-0.712538178802
-0.903932212292
-1.14087542189
-1.4259079979
-1.76284302084
-2.15493848832
-2.60434907917
-3.11193376723
-3.67719153938
-4.29832435995
-4.97231895095
-5.69510416153
-6.46168006116
-7.2663005812
-8.10261711484
-8.96386696902
-9.84301960739
-10.7329620034
-11.6266410356
-12.51723899
-13.3983049749
-14.2639106261
-15.1087564734
-15.9282890362
-16.7187600269
-17.4772799675
-18.201807798
-18.8911252786
-19.5447509196
-20.1628427513
-20.746058545
-21.2954222053
-21.8121731661
-22.2976424287
-22.7531354953
-23.1798566158
-23.5788478165
-23.9509682197
-24.2968874024
-24.6171220272
-24.9120671476
-25.1820391431
-25.427284937
-25.6480556248
-25.8446482434
-26.0173828106
-26.1665799829
-26.2924538729
-26.3953036596
-26.4753691589
-26.532375823
-26.565273136
-26.5737054157
-26.5576439382
-26.5164968571
-26.4496604789
-26.356627865
-26.2371745323
-26.0910951984
-25.918624345
-25.720266942
-25.496723887
-25.248977394
-24.9782646434
-24.6859906302
-24.3736957679
-24.0429894629
-23.6954987592
-23.3328208465
-22.9564948862
-22.567987289
-22.1686962398
-21.7599682993
-21.3431343009
-20.9195518753
-20.49065034
-20.0579654666
-19.6231635857
-19.1880411691
-18.7545014257
-18.3244988406
-17.8999497118
-17.4825913992
-17.073812039
-16.6744848941
-16.2848254484
-15.9042566282
-15.5312940792
-15.163431499
-14.7971353846
-14.4279017375
-14.0503378375
-13.6582672598
-13.2447896981
-12.802208717
-12.3218273399
-11.7938199178
-11.2070279835
-10.5491502484
-9.80767117553
-8.97129634072
-8.03095241384
-6.98000842686
-5.81467448614
-4.53599245936
-3.15310050741
-1.68394214311
-0.148816230007
1.43071359611
3.02375950818
4.59768703369
6.12754132669
7.58258788409
8.93527862602
10.1814600323
11.3004286934
12.2942624377
13.1680476856
13.9113997213
14.5312890822
15.0331769301
15.4267086807
15.7203684941
15.9239136818
16.0458512981
16.0926637648
16.0738150647
16.0019001587
15.8898855616
15.7493649918
15.5901565942
15.4204530163
15.24705216
15.0755395394
14.9104138116
14.7551998934
14.6125215401
14.4842278866
14.3714803311
14.2749132475
14.1946830414
14.1306849175
14.0828474636
14.0509045057
14.033802524
14.0299939855
14.037825445
14.0557410688
14.0822690455
14.1160489069
14.1557949265
14.2003317561
14.2485681137
14.2995314429
14.352341486
14.4062376226
14.4605497603
14.5147186151
14.5682663365
14.6208113265
14.6720404197
14.7217200262
14.7696715728
14.8157802974
14.8599736845
14.9022292929
14.9425574744
14.9810092342
15.0176617197
15.0526266753
15.0860398019
15.1180687753
15.1489024137
15.178750158
15.2078104003
15.2361169843
15.2641603724
15.2798022593
-1.07141076363
-1.17719088108
-1.33050236678
-1.54065381651
-1.80566717803
-2.12541541097
-2.50071421161
-2.93220299822
-3.41999993306
-3.96346123462
-4.56100518088
-5.21007306775
-5.90712972153
-6.64775683083
-7.42674162367
-8.23822916715
-9.07584897807
-9.93288891959
-10.8024348951
-11.6775494795
-12.5514140393
-13.4175042467
-14.2697260949
-15.102575217
-15.911248495
-16.6917608285
-17.4410000949
-18.1567676442
-18.8377471779
-19.4834500308
-20.0940958578
-20.670480633
-21.2138060118
-21.7255219554
-22.2071631333
-22.6602243809
-23.0860543762
-23.4857983179
-23.8603622586
-24.2104192987
-24.5364384074
-24.8387402919
-25.1175396669
-25.3729993747
-25.6052698345
-25.8145525589
-26.0010848557
-26.1651065489
-26.3068493852
-26.426611146
-26.5246044787
-26.6008400441
-26.6550447808
-26.6864312061
-26.6943071141
-26.6778938262
-26.6360028698
-26.567885342
-26.472975307
-26.3507642429
-26.2011756046
-26.024543553
-25.8214001677
-25.5925466479
-25.3391267242
-25.0624874704
-24.7641459356
-24.4457261817
-24.1088957218
-23.7553160356
-23.3866032003
-23.004305937
-22.6098978073
-22.2047823352
-21.7903097771
-21.3678091984
-20.9386363983
-20.5042261743
-20.0661423764
-19.6261209505
-19.1860939896
-18.7481814709
-18.3146400154
-17.8877443322
-17.4695870209
-17.0618135005
-16.6653638818
-16.2803064704
-15.90576343
-15.5398756508
-15.1798339222
-14.821935156
-14.4617299714
-14.0940875458
-13.713262761
-13.3129278524
-12.8860268045
-12.4244035301
-11.91869526
-11.3579913506
-10.7294180577
-10.0189438689
-9.21319172451
-8.30154531696
-7.27539971175
-6.12969280217
-4.86301655882
-3.48273470416
-2.01083101553
-0.471399566144
1.11409739923
2.71412921257
4.28893819213
5.81689731767
7.27195214276
8.62225433513
9.87432247366
11.0154605971
12.0258417522
12.908388558
13.661464841
14.2905768331
14.8020883142
15.2044643602
15.5064512069
15.7174034747
15.8463098039
15.9014933684
15.8928203495
15.8320250775
15.731205689
15.6015088182
15.4526192441
15.2927305235
15.1286845464
14.966103491
14.8095257524
14.6624860144
14.5276390025
14.4068299826
14.3012445327
14.2114855228
14.1376716097
14.0799587559
14.0383487659
14.0120952709
13.9999570845
14.0004814761
14.0121943604
14.0336265297
14.0633742821
14.1000866236
14.142508077
14.1894612906
14.2398815278
14.2927969162
14.3473535585
14.4027931704
14.4584701934
14.5138282828
14.5684111987
14.6218399079
14.6738190243
14.7241165444
14.7725675615
14.8190564774
14.8635190424
14.9059298191
14.9463024899
14.984679424
15.0211314857
15.0557524536
15.0886562923
15.1199705908
15.1498243243
15.1783244559
15.2054983751
15.2310855291
15.2549674082
15.2653904673
-1.94344004325
-2.03950844155
-2.18764423459
-2.40138454455
-2.67665439675
-3.01236011798
-3.40751208089
-3.86091906741
-4.37102569784
-4.9357353604
-5.55226606776
-6.21711018576
-6.9260148021
-7.6740434213
-8.45563639558
-9.26473318188
-10.0948769858
-10.9393670153
-11.791385028
-12.6441624167
-13.4911191627
-14.3260375
-15.1432030352
-15.9375677574
-16.7048658654
-17.4417281188
-18.1457278626
-18.815400881
-19.4501853062
-20.050329432
-20.6167330529
-21.1507781963
-21.6541299489
-22.1285625112
-22.5757934153
-22.9973704999
-23.394587132
-23.7684532843
-24.1196915669
-24.4487779908
-24.7559945769
-25.0414994982
-25.3053827148
-25.5477269031
-25.7686545687
-25.968334625
-26.1469489476
-26.3046726902
-26.4416397486
-26.5579827531
-26.6536701795
-26.7285015508
-26.7822221868
-26.8144611603
-26.8236280921
-26.8078897504
-26.7660500223
-26.6970871943
-26.6003439421
-26.4752936745
-26.3220350279
-26.1409600683
-25.9326581618
-25.6981330758
-25.4386706394
-25.1557374077
-24.8509543286
-24.5260210168
-24.1826565519
-23.8225536576
-23.4473428375
-23.0585739147
-22.6577135887
-22.2461607369
-21.8252728595
-21.3964069977
-20.9609789897
-20.5205268437
-20.0767720552
-19.6316647788
-19.1873976544
-18.7463721319
-18.3111023001
-17.8840371556
-17.467299561
-17.0623656245
-16.6697881106
-16.2891047088
-15.9189550004
-15.557272516
-15.2013567236
-14.8479603436
-14.4933185661
-14.1331129555
-13.7623409047
-13.3753748469
-12.9659221939
-12.5263409427
-12.0473970798
-11.5178523125
-10.923152431
-10.2461246859
-9.46998710409
-8.58359317274
-7.57782420673
-6.44715711939
-5.18933983501
-3.81018664196
-2.33867215032
-0.802988604849
0.777092796388
2.37152398067
3.93793488644
5.45911590595
6.91892742918
8.28380180375
9.54407768068
10.6891230968
11.7071866419
12.5969291965
13.3584167643
13.995924734
14.5158706837
14.9264109105
15.2364609223
15.4554151999
15.5926779031
15.6575571307
15.6602098466
15.6118447459
15.5238736147
15.4069830981
15.2706365244
15.1229487237
14.9707401218
14.8196320991
14.6741628682
14.5378613704
14.4133775922
14.3025465964
14.2065411986
14.1259416255
14.0608457649
14.0116908648
13.9784287234
13.959789662
13.9543609852
13.9608307618
13.9779023635
14.0042120802
14.0384132907
14.0791796016
14.1252776536
14.1755444808
14.2289376978
14.2845017144
14.3414067551
14.3989118916
14.4563955754
14.5133176483
14.5692434631
14.6238074978
14.6767328041
14.7277978874
14.7768514315
14.8237841001
14.8685412933
14.9110994709
14.951473835
14.9897002487
15.0258418533
15.0599740571
15.0921842456
15.1225540819
15.1511442956
15.1779507977
15.202823336
15.2252185729
15.2445106434
15.2491271376
-2.93516443197
-3.02133305771
-3.16311546534
-3.37444386496
-3.65022433087
-3.98954865029
-4.3906995204
-4.85157536461
-5.36961938094
-5.94174353968
-6.56425884772
-7.23287224867
-7.94268623089
-8.68825983105
-9.46366438033
-10.2625910416
-11.0784437235
-11.904475692
-12.733907482
-13.5600850713
-14.3766184267
-15.1775559477
-15.9575319773
-16.7119338959
-17.4370212309
-18.1300334748
-18.789220988
-19.4138366741
-20.0040391318
-20.5607575086
-21.0854917483
-21.5801091029
-22.0466241634
-22.4870194288
-22.9030900543
-23.2963528303
-23.6679909415
-24.0188581201
-24.349506046
-24.6602521569
-24.9512459627
-25.2225473655
-25.4741845716
-25.7062059808
-25.9187031402
-26.1117905795
-26.285560641
-26.4400533844
-26.5752092847
-26.6908613864
-26.786697518
-26.8623090776
-26.9173197754
-26.9514174291
-26.9625299596
-26.9480119005
-26.9064036122
-26.8364666539
-26.7374765779
-26.6091960165
-26.4518427257
-26.2658677369
-26.0520453562
-25.8115311842
-25.5456986317
-25.256118173
-24.9444932825
-24.6125921697
-24.262184659
-23.8949964111
-23.5126760939
-23.1167876428
-22.7088228632
-22.290236456
-21.8624834844
-21.4270588541
-20.9855452388
-20.5396688987
-20.0913537229
-19.6427395755
-19.1961577714
-18.7540537772
-18.3188404741
-17.8926966104
-17.4773405372
-17.0737902905
-16.6821683696
-16.3017383892
-15.9312159514
-15.5690540911
-15.2134152326
-14.8620282337
-14.5120825122
-14.1600141535
-13.8012852582
-13.4304288034
-13.0415562116
-12.6268776994
-12.1760477999
-11.6764155277
-11.1113111051
-10.4608246281
-9.70577829184
-8.8361359852
-7.84391559193
-6.72560092599
-5.48138095618
-4.11445898507
-2.65592771275
-1.13747566258
0.425533445317
2.00908739895
3.57350263322
5.09235226886
6.54820998662
7.91450707489
9.17645062868
10.3227614149
11.3442617584
12.2380630885
13.0046556867
13.6479897973
14.1744191619
14.5919828674
14.9096592814
15.13695135
15.2835589028
15.3593004382
15.3744756699
15.3399226437
15.2665000527
15.1644422276
15.0429270722
14.909916739
14.7721404354
14.6351778158
14.5035133533
14.3806580764
14.2692095667
14.17099237
14.0871232896
14.0181694811
13.9643041535
13.926162865
13.9033477473
13.8941562773
13.8971432697
13.9111852943
13.9351175733
13.9676921983
14.0075948019
14.0535501759
14.1043313854
14.1588177362
14.2159749773
14.2748903887
14.3347464856
14.3948443966
14.4545758745
14.5134391075
14.5710119166
14.6269622311
14.6810239661
14.733002746
14.7827547097
14.8301912345
14.8752615915
14.9179533978
14.958278178
14.9962733066
15.0319888605
15.065485183
15.0968161806
15.12601816
15.1530776034
15.1778800603
15.2001058999
15.2189676551
15.2334595635
15.2323066455
-3.92551388282
-4.00340310454
-4.13967532245
-4.34628703928
-4.61783454723
-4.95398202805
-5.35279831552
-5.81184838199
-6.32809691381
-6.89790729251
-7.51703410119
-8.18066003938
-8.8834247198
-9.61949906142
-10.3826498765
-11.1663456443
-11.9638484182
-12.7683440906
-13.573058641
-14.371413467
-15.1571675403
-15.9245950094
-16.6686402946
-17.3850884148
-18.0706844787
-18.7232312927
-19.3415998825
-19.9256873699
-20.4762809162
-20.9948804597
-21.4834633861
-21.9442552294
-22.3794998261
-22.7912853414
-23.1814081227
-23.5513085823
-23.902046009
-24.2343310105
-24.5485760538
-24.8449779344
-25.123590082
-25.3843994066
-25.6273765428
-25.8525137819
-26.0598240137
-26.249319877
-26.4209586811
-26.5746006164
-26.7099737972
-26.8266164082
-26.9239737954
-27.0014261541
-27.0582833952
-27.0938762711
-27.1069096887
-27.0942564294
-27.0531040378
-26.982331038
-26.8813475307
-26.7501690952
-26.5890384194
-26.3984475927
-26.179324756
-25.932917389
-25.6606954327
-25.3643462013
-25.0456814194
-24.706567543
-24.3488564351
-23.974342676
-23.58474076
-23.1816908866
-22.7667859858
-22.3416073938
-21.9077597711
-21.4668924484
-21.0207212368
-20.5710643853
-20.1199074061
-19.6693898383
-19.2217359211
-18.779156845
-18.3437032996
-17.9171179962
-17.5007271899
-17.0953546466
-16.7012306108
-16.318044986
-15.9451565909
-15.5817969938
-15.2268556386
-14.8786575888
-14.5348887007
-14.1921656402
-13.8458253631
-13.4897475275
-13.1180402817
-12.7223040721
-12.2907017029
-11.8096876206
-11.2623010911
-10.6283132161
-9.8886464649
-9.03546696189
-8.06176210246
-6.96249229596
-5.73914924891
-4.39688920868
-2.95919006842
-1.4602316186
0.0838779096464
1.64994697303
3.20347555245
4.71515416619
6.16268127522
7.52314091489
8.78022893643
9.92235426088
10.9415230152
11.8345807876
12.6021448312
13.2480501403
13.7785509607
14.2015877441
14.526136784
14.7617619053
14.9183201415
15.0058443199
15.0346328652
15.0152006725
14.9579319686
14.8726203189
14.7681201603
14.6521757831
14.5313744844
14.4111949853
14.2960384311
14.1893496732
14.09366214
14.010742436
13.9416482319
13.886838163
13.8469058995
13.8223707918
13.8120748064
13.8141572631
13.8273527624
13.8506991824
13.8831337579
13.9234777551
13.9704580185
14.0228355406
14.0794106177
14.1390965265
14.2008881656
14.2639105812
14.3273777623
14.3906290827
14.4530868881
14.5142856455
14.5738312742
14.6314244395
14.6868227214
14.7398585515
14.7904067243
14.8383990741
14.8837958973
14.926595818
14.9668134978
15.0044868437
15.0396561974
15.0723642333
15.1026332115
15.130452662
15.1557364641
15.1782654288
15.1975718664
15.212676277
15.2223245059
15.2157409219
-4.8155989268
-4.88721769684
-5.01913552382
-5.22044325657
-5.48597308429
-5.81596428407
-6.20843277351
-6.66088899535
-7.17012582618
-7.73226738773
-8.34279555024
-8.99661195447