/*--------------------------------*- C++ -*----------------------------------*\
| =========                 |                                                 |
| \\      /  F ield         | OpenFOAM: The Open Source CFD Toolbox           |
|  \\    /   O peration     | Version:  v1806                                 |
|   \\  /    A nd           | Web:      www.OpenFOAM.com                      |
|    \\/     M anipulation  |                                                 |
\*---------------------------------------------------------------------------*/
FoamFile
{
    version     2.0;
    format      ascii;
    class       volScalarField;
    location    "27";
    object      pa;
}
// * * * * * * * * * * * * * * * * * * * * * * * * * * * * * * * * * * * * * //

dimensions      [0 2 -2 0 0 0 0];


internalField   nonuniform List<scalar> 
12225
(
15836.4462434
15837.1235195
15837.4305737
15837.7755746
15838.3310775
15838.9544537
15839.6429457
15840.288554
15840.8838216
15841.4981183
15842.2871527
15843.3019315
15844.2753256
15844.8957775
15846.2218741
15851.971756
15864.061243
15867.6326858
15858.118456
15851.2866513
15851.6600585
15852.2551954
15852.9646772
15853.7210566
15854.4765846
15855.1904548
15855.9145257
15856.7811006
15857.9374089
15859.3299979
15860.5600994
15861.3926396
15863.1818751
15869.1354395
15878.2373417
15874.6164601
15829.9355978
15842.6278551
15843.3848975
15843.7104801
15844.1339312
15844.5356701
15844.8834616
15845.1435196
15845.4064002
15845.8364127
15846.5946844
15847.6141659
15848.5312009
15849.2677678
15851.2044506
15856.6918509
15863.7021396
15861.5675403
15856.03825
15847.0085517
15847.0337283
15847.6138714
15848.1311278
15848.6212675
15849.0191486
15849.3002058
15849.5389011
15849.8755794
15850.419023
15851.0588859
15851.4863527
15851.748736
15852.9448847
15856.1558892
15858.8691091
15855.4511033
15834.9152035
15843.7577494
15844.3410372
15844.8394918
15845.3494064
15845.8602954
15846.3233928
15846.7303552
15847.1537252
15847.7078288
15848.4535006
15849.2706921
15849.964433
15850.7209891
15852.3133883
15854.8194483
15855.7794209
15852.4987158
15850.8366707
15845.4539515
15845.4885786
15845.9542909
15846.3349859
15846.701986
15847.0142709
15847.2860776
15847.5800457
15847.9768817
15848.4880751
15848.9992692
15849.4293035
15850.0519313
15851.3707573
15853.0135165
15853.1129374
15850.512325
15838.3486186
15844.0631688
15845.0192299
15845.3492077
15845.7797695
15846.1527037
15846.5032846
15846.8359385
15847.2108012
15847.6699414
15848.1825755
15848.6388323
15849.0158808
15849.5565945
15850.504779
15851.3739359
15850.9926876
15848.9813625
15848.076529
15845.0257795
15845.0020109
15845.4300727
15845.7459659
15846.0493368
15846.3225065
15846.6011682
15846.9327543
15847.3404268
15847.7794698
15848.1666216
15848.5111313
15848.973738
15849.5975151
15849.9352167
15849.3362706
15847.7488662
15842.3810045
15844.5314881
15844.9698905
15845.2929207
15845.6086616
15845.8849608
15846.1391785
15846.3968598
15846.6957762
15847.0421975
15847.3941501
15847.7008053
15847.9866112
15848.3343882
15848.6812419
15848.6862556
15848.0210211
15846.7419796
15844.8332562
15844.63685
15844.8788567
15845.1817614
15845.4565252
15845.7050593
15845.9375029
15846.1757195
15846.4422934
15846.731086
15847.0065953
15847.2412109
15847.4560158
15847.6752675
15847.8023113
15847.6097985
15846.9509556
15845.8971123
15844.200599
15844.6120622
15844.8132423
15845.0723024
15845.3092536
15845.5274459
15845.7346419
15845.9469162
15846.1747473
15846.4061285
15846.6138487
15846.7830843
15846.9227848
15847.0218314
15846.988606
15846.6873745
15846.063046
15845.1821739
15844.3206468
15844.5715057
15844.740483
15844.9595066
15845.164239
15845.3548219
15845.53738
15845.7217617
15845.9110065
15846.0916997
15846.2437644
15846.3576219
15846.4307955
15846.4370162
15846.3058254
15845.9572056
15845.3789683
15844.6205579
15844.3168513
15844.5354614
15844.6703102
15844.8529883
15845.0257964
15845.1886616
15845.3447316
15845.4984932
15845.6480361
15845.7804689
15845.8820843
15845.9431641
15845.9539665
15845.8867821
15845.6893261
15845.3231836
15844.7899686
15844.1361647
15844.297237
15844.4785971
15844.5859179
15844.7303717
15844.8679693
15844.9987027
15845.1219155
15845.2385001
15845.3426127
15845.4243688
15845.4711482
15845.4766838
15845.4260608
15845.2957114
15845.0553764
15844.6869099
15844.2084548
15843.6433475
15844.3158318
15844.4209719
15844.5031293
15844.6075849
15844.7079738
15844.8004181
15844.8851326
15844.9575923
15845.0133079
15845.0401359
15845.0344047
15844.9828218
15844.8788078
15844.7014855
15844.4400383
15844.0871934
15843.6631756
15843.1872348
15844.0149323
15844.2414301
15844.3114475
15844.3788197
15844.4390429
15844.4913122
15844.531818
15844.5584269
15844.5626116
15844.5406177
15844.4814469
15844.384265
15844.2353081
15844.0330702
15843.7643046
15843.4416831
15843.0684023
15842.6709682
15844.8665261
15844.4325518
15844.3862001
15844.4103914
15844.4224341
15844.4208734
15844.4057147
15844.3753009
15844.3238189
15844.2458634
15844.1374196
15843.993584
15843.8119563
15843.5882943
15843.3249145
15843.0239393
15842.7012748
15842.3653289
15841.8796253
15843.2835977
15843.7320829
15843.7665851
15843.7365471
15843.6946205
15843.6453155
15843.5837928
15843.5050217
15843.403097
15843.2766598
15843.1212764
15842.939177
15842.7275481
15842.4930468
15842.2366576
15841.973285
15841.6930026
15849.0334115
15846.2397538
15844.830459
15844.4503894
15844.257013
15844.1297044
15844.0097502
15843.8844039
15843.7481593
15843.5959356
15843.4281732
15843.2420717
15843.0418316
15842.8249019
15842.597126
15842.3549399
15842.1125703
15841.8785348
15835.2208162
15840.4783418
15842.7850566
15843.0104358
15843.0294031
15842.9453478
15842.8465623
15842.7252242
15842.5891861
15842.4312382
15842.2606897
15842.0690517
15841.8694824
15841.6525705
15841.4349554
15841.2085425
15840.99351
15840.7517994
15855.1204529
15846.949849
15844.1502387
15844.0328483
15843.9472597
15843.8961039
15843.79735
15843.6807651
15843.5441321
15843.3950807
15843.2302547
15843.0567387
15842.870434
15842.6801511
15842.4778611
15842.2703547
15842.0504374
15841.8720032
15826.641683
15838.7033036
15842.5982456
15842.5141967
15842.5007408
15842.3578734
15842.2317497
15842.0801569
15841.9180614
15841.7442491
15841.5619884
15841.3733756
15841.1791743
15840.9831725
15840.7836961
15840.5891862
15840.4018595
15840.1754721
15866.4623493
15849.0350075
15844.2484368
15844.4851988
15844.3807695
15844.3660917
15844.2609057
15844.1469565
15844.0087212
15843.8559698
15843.6897329
15843.5115384
15843.3285769
15843.137671
15842.9476674
15842.7436774
15842.5371475
15842.3868855
15816.3584761
15837.2639882
15842.6967889
15842.1956339
15842.1993891
15841.9997616
15841.8563776
15841.6710872
15841.4775636
15841.2698343
15841.0566638
15840.8412604
15840.627665
15840.4187188
15840.211843
15840.0142818
15839.833309
15839.5856365
15870.1172657
15848.88842
15844.5227899
15845.0770765
15844.9333915
15844.9167116
15844.7950555
15844.6803613
15844.5439499
15844.4023452
15844.2547919
15844.1063501
15843.9579695
15843.8087827
15843.653867
15843.4848622
15843.2918723
15843.1906079
15819.0010433
15839.4607711
15842.3833919
15841.9044582
15841.8551076
15841.6721368
15841.5229593
15841.3358788
15841.1382171
15840.9256466
15840.7056034
15840.4769545
15840.240013
15839.9944813
15839.7406762
15839.4924081
15839.2784222
15838.989728
15867.2224994
15847.7458899
15845.81172
15846.0466267
15845.8906565
15845.7757455
15845.6243457
15845.4681724
15845.2982161
15845.1250403
15844.9510115
15844.7788293
15844.6087472
15844.4480979
15844.3032789
15844.1802264
15844.0709086
15844.0777609
15822.4235109
15840.0293919
15841.2714124
15841.0288356
15840.9190259
15840.776137
15840.6473386
15840.5006628
15840.3469882
15840.1886661
15840.0296218
15839.8662891
15839.6996753
15839.5345021
15839.3701531
15839.2019918
15839.0237038
15838.6806718
15859.015125
15849.4414345
15848.7432231
15848.6758489
15848.5018348
15848.3485391
15848.1786582
15848.0003606
15847.8088514
15847.6098588
15847.4015227
15847.1787481
15846.9416971
15846.6934013
15846.428612
15846.1278667
15845.746814
15845.4649967
15836.1194441
15835.6216678
15835.8560903
15835.7197076
15835.752683
15835.7270617
15835.708675
15835.6762205
15835.6366245
15835.5902267
15835.5363007
15835.4711076
15835.3969358
15835.3211253
15835.2469943
15835.1859348
15835.2017652
15835.2766454
15836.6252318
15836.6044085
15836.5746594
15836.5527455
15836.5477869
15836.5530842
15836.5690876
15836.5767096
15836.5833136
15836.5722334
15836.5590727
15836.5269783
15836.4970626
15836.4517424
15836.4165017
15836.3713701
15836.3437853
15836.3069239
15836.2887647
15836.2571914
15836.24008
15836.1995435
15836.1663841
15836.1021013
15836.0404227
15835.9430859
15835.8457941
15835.7083775
15835.5706856
15835.394379
15835.2206157
15835.0083997
15834.8020746
15834.5626751
15834.3335115
15834.0712353
15833.8215796
15833.5422895
15833.2786552
15832.9894359
15832.7185677
15832.4251093
15832.1507168
15831.8532862
15831.5726559
15831.2625464
15830.9634461
15830.6281454
15830.298346
15829.9233505
15829.5502451
15829.1278147
15828.7088552
15828.243397
15827.7821319
15827.2669532
15826.7560988
15826.194856
15825.6416947
15825.0384417
15824.4528324
15823.8337207
15823.2439002
15822.6259262
15822.0445771
15821.4438384
15820.8864582
15820.3165928
15819.792183
15819.2511167
15818.746172
15818.2094172
15817.6962034
15817.1319159
15816.5815952
15815.9755766
15815.3905424
15814.7611332
15814.155361
15813.4885339
15812.8415188
15812.1333349
15811.4402966
15810.6696045
15809.9251897
15809.1351393
15808.4021596
15807.6422505
15806.8588968
15805.8489015
15804.4319517
15802.6392021
15800.5587768
15798.2525976
15795.7339827
15793.0075815
15790.04905
15786.8512538
15783.3947756
15779.6912936
15775.7574501
15771.6641539
15767.6025953
15763.6878419
15760.1374752
15756.8514429
15753.8732249
15750.9143633
15747.9779431
15744.7733775
15741.3784198
15737.5380913
15733.3940432
15728.6903793
15723.6022896
15717.9219204
15711.8580813
15705.2092659
15698.0093511
15690.0735795
15681.7776894
15673.4865537
15665.7023419
15658.4642261
15652.5938984
15646.5914749
15637.5970183
15623.921464
15607.1756159
15587.8315032
15566.3232324
15542.4297621
15516.3189107
15487.3962452
15455.5930801
15419.892653
15379.8989567
15334.1348512
15281.6311512
15220.5606883
15150.2524265
15070.4343287
14981.884828
14885.1288334
14780.7218089
14668.9537737
14550.4091593
14425.4775213
14294.7860938
14158.8766654
14018.5447591
13874.7263989
13728.626772
13581.9358961
13436.5826905
13295.4563609
13161.5723272
13039.5270676
12933.7770546
12851.1067125
12797.6448059
12782.7228144
12814.1540043
12904.0023193
13061.7047955
13302.32724
13637.031416
14084.4690353
14658.2367953
15381.4327568
16270.3770375
17352.2011263
18645.5552778
20183.1208019
21987.4723617
24092.0837324
26511.8948548
29259.9056433
32323.9964233
35678.4740666
15836.7642984
15836.61849
15836.54436
15836.5409197
15836.5647676
15836.5820353
15836.5899067
15836.5800142
15836.5620195
15836.5284604
15836.4932109
15836.4477069
15836.4075997
15836.3629281
15836.3308132
15836.2990767
15836.2848501
15836.271387
15836.2746947
15836.2744323
15836.2869757
15836.2889675
15836.2965043
15836.2869449
15836.2788803
15836.2488094
15836.2146373
15836.1540068
15836.0877358
15835.9940068
15835.8929705
15835.7642707
15835.6300622
15835.4702348
15835.3058805
15835.1168557
15834.9243094
15834.7090142
15834.4919909
15834.2552034
15834.0182147
15833.7635003
15833.5086114
15833.2353359
15832.9592767
15832.6599292
15832.3513526
15832.0128124
15831.6600843
15831.2707293
15830.8601498
15830.4103955
15829.9413371
15829.433752
15828.9052583
15828.3387342
15827.7572497
15827.1437777
15826.5177423
15825.8629453
15825.2035355
15824.5258558
15823.8517392
15823.1656845
15822.4908086
15821.813882
15821.1569425
15820.5049392
15819.8751464
15819.2465291
15818.6312207
15818.003633
15817.376504
15816.7237312
15816.0604946
15815.3680963
15814.674894
15813.9609466
15813.2445622
15812.5002543
15811.7535359
15810.9767012
15810.1904158
15809.3684652
15808.5512293
15807.7268044
15806.9367773
15806.1679247
15805.3839158
15804.3846952
15803.0082191
15801.2776691
15799.2794078
15797.0784281
15794.6864893
15792.1114871
15789.3281275
15786.3330982
15783.1030128
15779.6568736
15775.996452
15772.2345433
15768.5078386
15765.0079696
15761.8237854
15758.9662696
15756.3183007
15753.7363194
15751.0568213
15748.1618536
15744.9489927
15741.3512633
15737.3160297
15732.7991665
15727.7592017
15722.195627
15716.0963022
15709.4322745
15702.0778393
15694.0291051
15685.4640519
15676.8355137
15668.8977672
15661.3258973
15653.0067164
15642.6571877
15630.0203716
15614.2098452
15595.7575808
15575.0583035
15552.2741918
15527.3967131
15500.3108189
15470.7058053
15438.1756285
15402.0284528
15361.4855905
15315.3909501
15262.3822462
15200.9542952
15130.2425076
15050.2007737
14961.5268431
14864.8161271
14760.4446314
14648.806237
14530.4393687
14405.7903817
14275.4347955
14139.9172486
14000.027917
13856.642684
13711.0294667
13564.7318208
13419.8314777
13278.9590531
13145.4015154
13023.3588023
12917.7038914
12834.6598413
12780.9437987
12765.1433593
12795.8452494
12884.166483
13040.5390589
13278.8253636
13611.3182716
14055.1957882
14625.4933126
15344.1399508
16228.4773926
17303.7735467
18591.3878621
20125.2873661
21933.940039
24056.1030577
26516.6873238
29332.8028489
32492.9094657
36023.6847836
15837.0839836
15836.4753781
15836.2407123
15836.2314884
15836.2625614
15836.2661306
15836.2411897
15836.1848619
15836.1116527
15836.0186596
15835.920508
15835.8098667
15835.7005413
15835.583099
15835.4723219
15835.356799
15835.2510159
15835.139868
15835.0370443
15834.9245657
15834.8166293
15834.6936751
15834.5704959
15834.4275185
15834.2810555
15834.1113353
15833.9350026
15833.7329416
15833.5232978
15833.2883308
15833.0463478
15832.7812014
15832.5115498
15832.2225735
15831.9321942
15831.625813
15831.3208249
15831.0038412
15830.6909902
15830.3697834
15830.0547511
15829.7336576
15829.4190002
15829.0980459
15828.7812512
15828.4543469
15828.1260864
15827.7816568
15827.4296922
15827.0558175
15826.6686842
15826.255492
15825.8273056
15825.3718247
15824.8963919
15824.390039
15823.8647755
15823.3140777
15822.7505088
15822.1703505
15821.5878376
15821.0008138
15820.4218241
15819.8491063
15819.2938802
15818.7541455
15818.2400259
15817.7466918
15817.2784364
15816.824619
15816.3832268
15815.940783
15815.495038
15815.0324309
15814.5541525
15814.0543257
15813.5404852
15813.007702
15812.4579242
15811.8826531
15811.2872164
15810.6626041
15810.0114522
15809.3287222
15808.632155
15807.9280328
15807.2384157
15806.5706338
15805.8662596
15804.9325698
15803.6069736
15801.9087238
15799.9465917
15797.761818
15795.3912966
15792.8139545
15790.0338518
15787.0167591
15783.774924
15780.2963248
15776.6291827
15772.9026518
15769.255399
15765.9080587
15762.8772388
15760.2173996
15757.7207812
15755.3217537
15752.7702235
15750.0441368
15746.9440348
15743.4971889
15739.556334
15735.1609601
15730.1777129
15724.690035
15718.5999607
15711.9010792
15704.4213902
15696.3164654
15687.9939366
15679.624522
15671.1364116
15662.4974952
15652.7326735
15641.1557777
15628.2755439
15613.2987717
15596.0301103
15576.7054289
15555.2790593
15531.8442543
15506.109169
15477.9194989
15446.6600903
15411.8178716
15372.3744384
15327.2678409
15274.9450804
15214.0336312
15143.6466357
15063.8605491
14975.4164224
14879.0296051
14775.0378211
14663.7202886
14545.6188487
14421.2195257
14291.0570334
14155.7223756
14015.9432271
13872.6651528
13727.0674228
13580.7911516
13435.7964426
13294.8439682
13161.05952
13038.8059066
12932.7549008
12849.3285591
12795.0101917
12778.5992277
12808.4466022
12895.9266288
13051.2285454
13288.4067519
13619.4573558
14061.3876744
14628.3721899
15341.0391516
16215.7857532
17276.1315349
18540.7198277
20039.3210766
21797.5895475
23852.2992158
26234.6079262
28986.4228189
32135.2949065
35727.7882585
15837.389086
15835.8905817
15835.5991753
15835.7190005
15835.8383229
15835.8958592
15835.9145955
15835.8992409
15835.866376
15835.8142958
15835.757791
15835.6888632
15835.6201917
15835.5418659
15835.4677879
15835.3865925
15835.3121307
15835.2300459
15835.1538118
15835.0665789
15834.9822795
15834.8827475
15834.7828901
15834.6637534
15834.5414394
15834.3967373
15834.2462937
15834.0713994
15833.8897874
15833.684106
15833.4723919
15833.2390974
15833.002403
15832.7480724
15832.4932626
15832.2251006
15831.959389
15831.6839851
15831.4133003
15831.1357323
15830.8636931
15830.5857782
15830.3124101
15830.0318224
15829.7525634
15829.4618683
15829.1665988
15828.8533321
15828.5289455
15828.1800449
15827.8135103
15827.4179817
15827.0014654
15826.5537108
15826.0820632
15825.5770764
15825.0475346
15824.4874917
15823.9067853
15823.3044586
15822.692157
15822.071514
15821.4534755
15820.8400064
15820.241671
15819.6602877
15819.1023464
15818.5662054
15818.0527227
15817.5541665
15817.0659035
15816.5768567
15816.081399
15815.5718244
15815.0446845
15814.4970272
15813.931696
15813.346595
15812.7412638
15812.1126154
15811.4611564
15810.7836718
15810.0810264
15809.3549258
15808.6167041
15807.8786223
15807.1572155
15806.4616235
15805.7331165
15804.7708867
15803.4194498
15801.7082543
15799.7322712
15797.5558409
15795.1922095
15792.6419146
15789.880919
15786.8972596
15783.6788588
15780.2351469
15776.635811
15773.0148264
15769.5519184
15766.3923785
15763.5947775
15761.100966
15758.7827273
15756.4824587
15754.0600856
15751.4002646
15748.4193369
15745.0422311
15741.2312311
15736.9225396
15732.0794912
15726.6983361
15720.703187
15714.0652509
15706.839675
15698.9511716
15690.50191
15681.9946847
15673.2726859
15663.8959355
15653.4428766
15641.7179026
15628.8183267
15614.0733494
15597.1777873
15578.1642823
15556.9981502
15533.685217
15508.0015973
15479.7246939
15448.3088169
15413.1725199
15373.3177386
15327.5564268
15274.3921467
15212.5139036
15141.1850018
15060.6598322
14971.7021351
14875.0335239
14770.8124711
14659.2619544
14540.9195684
14416.2986778
14285.9185257
14150.3738318
14010.3968406
13866.9107406
13721.1317324
13574.6371616
13429.4693008
13288.2667214
13154.2944718
13031.7153838
12925.4211842
12841.5414004
12786.8826554
12769.8062337
12799.1268393
12885.6822645
13040.2812244
13276.2930246
13606.5487044
14047.0829471
14612.3173158
15320.123433
16188.2907708
17238.6904949
18486.8064709
19953.9227303
21659.2030473
23630.3099345
25902.0590653
28544.8021595
31641.0153619
35210.468612
15837.4623081
15834.7545614
15834.7534374
15835.2267576
15835.5144886
15835.6522364
15835.7202116
15835.7387407
15835.7302216
15835.6955731
15835.6505134
15835.5875711
15835.5196011
15835.437064
15835.353825
15835.258893
15835.166105
15835.0618939
15834.9598332
15834.8440304
15834.7286927
15834.5962305
15834.4616513
15834.3065288
15834.146772
15833.9633075
15833.7731309
15833.5575702
15833.3344478
15833.0865457
15832.8322046
15832.5561621
15832.2764009
15831.9796383
15831.682997
15831.374266
15831.0691884
15830.7565711
15830.4500237
15830.1387282
15829.834303
15829.5259066
15829.2232485
15828.9151408
15828.6096241
15828.2946683
15827.9770362
15827.6439684
15827.3015824
15826.9374771
15826.5582469
15826.1520717
15825.7266543
15825.2709659
15824.7919147
15824.2815841
15823.7487574
15823.189046
15822.6126328
15822.0195424
15821.4216419
15820.8216081
15820.2304505
15819.6525221
15819.0966897
15818.5657632
15818.0655616
15817.5939026
15817.1495209
15816.7244184
15816.3112668
15815.899997
15815.4826581
15815.0507904
15814.600226
15814.1283327
15813.6333281
15813.1149254
15812.5708853
15812.00016
15811.4009898
15810.7732323
15810.1171804
15809.4373899
15808.7429791
15808.0469142
15807.362948
15806.7001774
15805.9917755
15805.0510851
15803.7050722
15801.998737
15800.0265594
15797.8606132
15795.5106635
15792.9802809
15790.2364452
15787.2728624
15784.0712202
15780.6579192
15777.1437635
15773.6448935
15770.3867797
15767.416704
15764.832014
15762.4692114
15760.274824
15758.011416
15755.6364121
15752.964301
15750.0154755
15746.6309697
15742.8720477
15738.5988819
15733.8102366
15728.5700994
15722.9055698
15716.4633718
15709.1901674
15701.3081645
15692.9710608
15684.2467291
15675.0986971
15665.1904171
15654.4392802
15642.5664835
15629.5253358
15614.6890023
15597.9430309
15579.0703837
15558.2116005
15535.1155769
15509.7958814
15481.7436341
15450.6719085
15415.6786394
15375.9155249
15329.9140973
15276.3555927
15213.9224188
15142.1484333
15061.3249922
14972.3010379
14875.6382276
14771.4582011
14659.9569534
14541.7125047
14417.2013187
14286.9660735
14151.5712608
14011.762297
13868.4428838
13722.8336262
13576.4964685
13431.4723184
13290.3779326
13156.4777852
13033.894177
12927.534334
12843.4567723
12788.5124984
12770.9346773
12799.6348274
12885.289073
13038.8902904
13273.6144846
13602.6730458
14042.003069
14606.3650305
15312.9421924
16180.486283
17230.6412429
18478.1683183
19940.1942533
21631.1325781
23572.5177888
25798.4621198
28388.3920562
31446.1590336
34969.3771624
15837.1818945
15833.1854257
15833.9616011
15834.9183493
15835.3440028
15835.5137492
15835.5884801
15835.6067792
15835.595867
15835.557986
15835.5094487
15835.4428862
15835.3713771
15835.285409
15835.1985829
15835.0998213
15835.0026595
15834.8937271
15834.7865888
15834.6657535
15834.5450891
15834.4075903
15834.2680839
15834.1081329
15833.9436924
15833.7558837
15833.5615543
15833.3422302
15833.1157991
15832.8652266
15832.6088675
15832.3317145
15832.0520703
15831.7567233
15831.4628315
15831.1589744
15830.8604818
15830.5565137
15830.2604618
15829.961618
15829.6710972
15829.3780911
15829.0918284
15828.8011168
15828.5137088
15828.2176517
15827.9195158
15827.6065358
15827.285049
15826.9419358
15826.58393
15826.198976
15825.794549
15825.3593594
15824.9005456
15824.4083133
15823.8909216
15823.3428483
15822.7749263
15822.1867916
15821.5904104
15820.9893081
15820.3956916
15819.8137239
15819.2542885
15818.7206653
15818.2182457
15817.7454236
15817.3007935
15816.876258
15816.4649524
15816.0559376
15815.6411486
15815.2135545
15814.7673574
15814.2996499
15813.8085682
15813.2933584
15812.7515715
15812.1831823
15811.5859151
15810.9613646
15810.3100005
15809.6382161
15808.9536439
15808.2705369
15807.5989182
15806.9450417
15806.249881
15805.3033082
15803.9587831
15802.2416699
15800.2680777
15798.1019795
15795.769356
15793.2570376
15790.5415655
15787.5998135
15784.4264536
15781.0768518
15777.6620384
15774.3525986
15771.2889231
15768.5607156
15766.1405426
15763.9389756
15761.8119493
15759.622466
15757.2284955
15754.5785381
15751.5959101
15748.2170777
15744.4250485
15740.2921602
15735.7357725
15730.6182935
15724.9528542
15718.6544892
15711.5572818
15703.7150592
15695.262925
15686.2942763
15676.7815184
15666.5979054
15655.6242302
15643.6425324
15630.4203569
15615.5761738
15598.9210016
15580.3238642
15559.7572811
15537.0596026
15512.0739388
15484.3897849
15453.5403603
15418.6771237
15378.7043581
15332.2422861
15277.9334796
15214.7042331
15142.2640751
15061.029195
14971.8347929
14875.0982582
14770.8485466
14659.3640589
14541.190976
14416.7980096
14286.7158727
14151.4960967
14011.8869005
13868.7663676
13723.3765374
13577.2280947
13432.4089093
13291.441597
13157.6775236
13035.0851234
12928.7219113
12844.4130914
12789.2535023
12771.1522898
12799.3929879
12884.1890426
13037.0834608
13270.6776227
13598.9872788
14037.4271649
14602.1682587
15310.3749659
16182.0337924
17238.0288314
18495.9328461
19972.8790268
21684.4041001
23650.2268243
25902.0036985
28505.8416347
31549.0860044
35030.7242582
15836.5281988
15831.4660066
15833.4168435
15834.7612842
15835.1945743
15835.3324546
15835.3841452
15835.3886812
15835.3693242
15835.3256175
15835.272561
15835.2025324
15835.1285049
15835.0408708
15834.9528076
15834.853077
15834.7547581
15834.6445992
15834.5356423
15834.4126552
15834.2893514
15834.1487153
15834.0052501
15833.8409509
15833.6713377
15833.4776646
15833.2768084
15833.050422
15832.8163813
15832.557825
15832.2932903
15832.0079817
15831.7200462
15831.4169147
15831.1158125
15830.8053548
15830.5010764
15830.1924501
15829.8924908
15829.5907226
15829.297955
15829.0034208
15828.7160919
15828.4248308
15828.1372222
15827.8414083
15827.5439892
15827.2322583
15826.9122715
15826.5712763
15826.2158723
15825.8337161
15825.4328157
15825.002346
15824.5496581
15824.0640679
15823.55406
15823.0143313
15822.456348
15821.8801188
15821.2988348
15820.7153503
15820.1420362
15819.5840142
15819.0510996
15818.5458486
15818.0742769
15817.6332671
15817.2212784
15816.8292027
15816.4496134
15816.0714448
15815.6868584
15815.2867685
15814.867148
15814.4242975
15813.9559475
15813.4613632
15812.9389881
15812.3884962
15811.8085919
15811.2013525
15810.5681944
15809.9165972
15809.2541251
15808.594201
15807.9453792
15807.3157583
15806.6331469
15805.702797
15804.3563743
15802.633265
15800.6597617
15798.501325
15796.1917821
15793.7054514
15791.0177722
15788.094227
15784.9458447
15781.6594432
15778.3480515
15775.2192569
15772.3311595
15769.7864388
15767.4724035
15765.3610206
15763.2640417
15761.0884028
15758.650916
15755.9842111
15753.0537913
15749.8243547
15746.1190284
15742.0096563
15737.5505137
15732.6905391
15727.2229432
15721.027827
15713.9373486
15706.0452679
15697.4119744
15688.2486177
15678.477783
15668.1374081
15656.9771112
15644.9079227
15631.5471669
15616.7608464
15600.2089593
15581.9333431
15561.6561753
15539.4021042
15514.7300395
15487.4364165
15456.7437697
15421.9017623
15381.5588093
15334.4639802
15279.2795932
15215.2291191
15142.1471667
15060.5684055
14971.2462986
14874.4541081
14770.1293663
14658.7062618
14540.6531321
14416.4582088
14286.5910287
14151.6389696
14012.287139
13869.4629978
13724.3321274
13578.4716079
13433.8653522
13293.1257801
13159.461382
13036.9681085
12930.5151229
12846.1073102
12790.6097194
12772.1925487
12799.8769359
12884.1616535
13036.3114372
13269.2590678
13596.7521886
14034.6439261
14599.4329587
15309.7742005
16185.4086312
17247.6146431
18516.3095413
20012.5698029
21755.4562246
23768.0559221
26078.4964495
28733.7399095
31786.5918972
35253.2201773
15835.5914441
15829.8996884
15833.1414062
15834.607908
15834.9404447
15835.0370582
15835.0758693
15835.0815881
15835.0661553
15835.0264636
15834.9772837
15834.9113003
15834.8418795
15834.7595557
15834.6773473
15834.5839817
15834.4921536
15834.388583
15834.2860029
15834.1692778
15834.0514342
15833.9159165
15833.7767921
15833.6160904
15833.4491576
15833.2575841
15833.0578476
15832.8319612
15832.5976381
15832.3384
15832.0725961
15831.7858737
15831.4966615
15831.1925182
15830.8906531
15830.5804197
15830.2769704
15829.9701503
15829.6728905
15829.3749862
15829.0868745
15828.7981563
15828.517387
15828.2338347
15827.9546463
15827.6684432
15827.3812194
15827.0807817
15826.7727889
15826.4445872
15826.1023537
15825.7342125
15825.3476841
15824.9326938
15824.4963611
15824.0270464
15823.5315571
15823.0044637
15822.457211
15821.8901815
15821.3164335
15820.7404855
15820.1753255
15819.6251314
15819.1010679
15818.6059831
15818.1450428
15817.7156471
15817.3160649
15816.9368785
15816.5709643
15816.2061125
15815.8344878
15815.4477827
15815.0408299
15814.6096635
15814.1531214
15813.6700597
15813.1592205
15812.6200601
15812.0517335
15811.4563762
15810.8369271
15810.200733
15809.5562007
15808.9172791
15808.2914563
15807.6842337
15807.0264131
15806.1006661
15804.754052
15803.0278438
15801.0532839
15798.9138548
15796.6375548
15794.2044988
15791.5606229
15788.6698644
15785.5622883
15782.3284049
15779.1482472
15776.1487882
15773.4236251
15770.9412744
15768.6813665
15766.5544887
15764.5122303
15762.4095718
15760.0819242
15757.4490175
15754.5377508
15751.3527678
15747.839336
15743.9768704
15739.7790811
15735.1128819
15729.7595151
15723.5339374
15716.3600971
15708.3150005
15699.5588411
15690.2347021
15680.3587766
15669.8867621
15658.6551751
15646.4897533
15633.1354326
15618.4057736
15602.0886335
15584.0958746
15564.2320195
15542.3593775
15518.1094182
15491.1023669
15460.5783316
15425.543563
15384.7026221
15336.7660099
15280.6215535
15215.7001532
15142.0169627
15060.1393737
14970.6932429
14873.7779162
14769.3886939
14658.0284743
14540.1308735
14416.1593148
14286.5565908
14151.9058728
14012.8635645
13870.3663411
13725.5413324
13579.9860773
13435.6274725
13295.1104481
13161.5625859
13039.134059
12932.58769
12848.0191442
12792.1667111
12773.3599922
12800.4737316
12884.200348
13035.6253453
13267.9284228
13594.6239134
14031.8631907
14596.2908379
15307.7096054
16185.6039086
17251.6187669
18527.3081688
20037.5131438
21805.500696
23858.595335
26223.7362501
28933.3670155
32013.0503842
35495.4586818
15834.52209
15828.6943602
15833.0040815
15834.3261918
15834.5508055
15834.643695
15834.6939552
15834.7181917
15834.717622
15834.6908362
15834.6530374
15834.5979009
15834.5392455
15834.4679041
15834.3967792
15834.3146554
15834.2338297
15834.1411351
15834.0486474
15833.9414213
15833.8321677
15833.7044021
15833.5716651
15833.4166449
15833.2539595
15833.0657595
15832.8680862
15832.6435152
15832.4091892
15832.149246
15831.8817504
15831.593144
15831.3012431
15830.994733
15830.6903434
15830.3779648
15830.0724126
15829.7643665
15829.4659513
15829.1677974
15828.8796752
15828.5919781
15828.3125944
15828.0316205
15827.7554885
15827.4735987
15827.1912873
15826.8970939
15826.5957502
15826.2756312
15825.9419429
15825.584032
15825.2089609
15824.8084859
15824.3895687
15823.9410565
15823.4661914
15822.9606478
15822.4338247
15821.8874038
15821.333539
15820.7775033
15820.2310477
15819.7010981
15819.1959349
15818.7191811
15818.2751689
15817.8619428
15817.4765514
15817.1109541
15816.7564207
15816.4028696
15816.0412667
15815.6637144
15815.2652397
15814.8440008
15814.3969404
15813.9258805
15813.4278712
15812.9008321
15812.3468526
15811.7605848
15811.157939
15810.5297238
15809.909372
15809.281216
15808.6883453
15808.1015133
15807.4696254
15806.5564638
15805.204554
15803.4721635
15801.4912144
15799.3625705
15797.1195224
15794.7266952
15792.0906874
15789.1857226
15786.0744333
15782.8787954
15779.8070939
15776.9919258
15774.4565284
15772.0974878
15769.9059294
15767.8129947
15765.7874697
15763.7155158
15761.5222535
15759.0626214
15756.3504229
15753.3299941
15750.0498051
15746.4407806
15742.4699249
15737.8854694
15732.5013632
15726.1097728