/*--------------------------------*- C++ -*----------------------------------*\
| =========                 |                                                 |
| \\      /  F ield         | OpenFOAM: The Open Source CFD Toolbox           |
|  \\    /   O peration     | Version:  v1806                                 |
|   \\  /    A nd           | Web:      www.OpenFOAM.com                      |
|    \\/     M anipulation  |                                                 |
\*---------------------------------------------------------------------------*/
FoamFile
{
    version     2.0;
    format      ascii;
    class       surfaceScalarField;
    location    "27";
    object      phi;
}
// * * * * * * * * * * * * * * * * * * * * * * * * * * * * * * * * * * * * * //

dimensions      [0 3 -1 0 0 0 0];
oriented        oriented;


internalField   nonuniform List<scalar> 
24170
(
3.07331404127e-06
1.15087640923e-07
2.98603150361e-06
8.72780828355e-08
2.90552930966e-06
8.04966975176e-08
2.82777968317e-06
7.77449055513e-08
2.75300435747e-06
7.47702754393e-08
2.68130079375e-06
7.1699474494e-08
2.61247809606e-06
6.88179513957e-08
2.54627584323e-06
6.61984272707e-08
2.48241018703e-06
6.38613736264e-08
2.42057000855e-06
6.18366596268e-08
2.36040071326e-06
6.01653951441e-08
2.30149120952e-06
5.89062158207e-08
2.24334263812e-06
5.81451457877e-08
2.18531659576e-06
5.80230383505e-08
2.12652168264e-06
5.87920692754e-08
2.06551582273e-06
6.10038021004e-08
1.9993310276e-06
6.61835784887e-08
8.23034326217e-08
1.91702609397e-06
3.43138684154e-06
1.00945254167e-07
3.4259390231e-06
9.2721299622e-08
3.41845985706e-06
8.79705222022e-08
3.40776067895e-06
8.84394510443e-08
3.39430501178e-06
8.82212187382e-08
3.37870871077e-06
8.72918626655e-08
3.36128501191e-06
8.62374075774e-08
3.34220507326e-06
8.52748397541e-08
3.32156136345e-06
8.45014290153e-08
3.29937272194e-06
8.40222043971e-08
3.27557324626e-06
8.39617256525e-08
3.25000081148e-06
8.4475945495e-08
3.22236682105e-06
8.57765637256e-08
3.19220121041e-06
8.81864097051e-08
3.15873445084e-06
9.22569226257e-08
3.12067662173e-06
9.90603381197e-08
3.07580710335e-06
1.11052604827e-07
1.32325778531e-07
3.02578323947e-06
3.67980481616e-06
8.36534528149e-08
3.68383737501e-06
8.86848866665e-08
3.68594784295e-06
8.58554749984e-08
3.68676077645e-06
8.76225006796e-08
3.68603633214e-06
8.89415796975e-08
3.68396551462e-06
8.93592393962e-08
3.68064133597e-06
8.95578673611e-08
3.67606132769e-06
8.98516916383e-08
3.67018127323e-06
9.03781920947e-08
3.6629240332e-06
9.12765832597e-08
3.6541680289e-06
9.27147779137e-08
3.64373670801e-06
9.49046311361e-08
3.63137771754e-06
9.81329545288e-08
3.6167346537e-06
1.02827075195e-07
3.59931355629e-06
1.0967578e-07
3.57851827473e-06
1.19853737766e-07
3.55414876866e-06
1.35420472043e-07
1.5803068673e-07
3.52844115209e-06
3.93950546601e-06
6.95320246423e-08
3.94518436331e-06
8.30016264871e-08
3.94809142374e-06
8.29435562426e-08
3.95011857288e-06
8.55909897091e-08
3.95104294458e-06
8.8012953069e-08
3.95094349542e-06
8.94549628048e-08
3.94991381303e-06
9.05837836538e-08
3.94795441613e-06
9.18077590624e-08
3.94501563478e-06
9.33137289056e-08
3.94101901835e-06
9.52702778543e-08
3.93585405142e-06
9.78769398132e-08
3.92937478827e-06
1.01381359575e-07
3.92139430452e-06
1.06111067257e-07
3.91168642619e-06
1.12532780755e-07
3.900016192e-06
1.21344051942e-07
3.88627794516e-06
1.33590302508e-07
3.87094585022e-06
1.50751144535e-07
1.73578645742e-07
3.85539593828e-06
4.21830829278e-06
5.83473149253e-08
4.22442940228e-06
7.68769061966e-08
4.22742657645e-06
7.99422522405e-08
4.22950282757e-06
8.35110243694e-08
4.23060946164e-06
8.69026240556e-08
4.23073730299e-06
8.93238727576e-08
4.22996881193e-06
9.13489181411e-08
4.22831995155e-06
9.34536272702e-08
4.22575434372e-06
9.58763294846e-08
4.22220945798e-06
9.88124159196e-08
4.21759979856e-06
1.02483868783e-07
4.21181885201e-06
1.0715976174e-07
4.20474478743e-06
1.13182657033e-07
4.19626155604e-06
1.21013644357e-07
4.18631763493e-06
1.31285704389e-07
4.17507002345e-06
1.44835854455e-07
4.16317653085e-06
1.62642583004e-07
1.85053063694e-07
4.1516993409e-06
4.51791207293e-06
4.95183190303e-08
4.52402271747e-06
7.07620511793e-08
4.52714877733e-06
7.68117739926e-08
4.52921897363e-06
8.1436674876e-08
4.53037841661e-06
8.57393033171e-08
4.53056757107e-06
8.91311258043e-08
4.52984051756e-06
9.20725658816e-08
4.52822094161e-06
9.50700128324e-08
4.52568443323e-06
9.84098676163e-08
4.52218262457e-06
1.02311403818e-07
4.51765267865e-06
1.07011214174e-07
4.51202394664e-06
1.12786027119e-07
4.50523184816e-06
1.19972440797e-07
4.49724937819e-06
1.28993875105e-07
4.48815258638e-06
1.40380373236e-07
4.47823922167e-06
1.54747166429e-07
4.46819962472e-06
1.7268025168e-07
1.94244903747e-07
4.45900583754e-06
4.83966217473e-06
4.25728742375e-08
4.84547491892e-06
6.49458570591e-08
4.84871187437e-06
7.35710925034e-08
4.8507796058e-06
7.93653838668e-08
4.85196610673e-06
8.45494397043e-08
4.85220686918e-06
8.88871931367e-08
4.85152507567e-06
9.27513151501e-08
4.84994571355e-06
9.66464666556e-08
4.84745578701e-06
1.00897026649e-07
4.84402192871e-06
1.05742585947e-07
4.83960473592e-06
1.11425866219e-07
4.83417009368e-06
1.1821820767e-07
4.82770814965e-06
1.26432007233e-07
4.82026859415e-06
1.36431085147e-07
4.81202063704e-06
1.48626047399e-07
4.80333870625e-06
1.63426965538e-07
4.79488864621e-06
1.8112831857e-07
2.01596493836e-07
4.78753371381e-06
5.18504769758e-06
3.71022787639e-08
5.19039170407e-06
5.95979212329e-08
5.19368566402e-06
7.02730242946e-08
5.19577446625e-06
7.72727160669e-08
5.19700067107e-06
8.33195690441e-08
5.19732032106e-06
8.85641868113e-08
5.19673014265e-06
9.33382680718e-08
5.19525128342e-06
9.81223711738e-08
5.19288225758e-06
1.03263193362e-07
5.18960765285e-06
1.0901458451e-07
5.18541453889e-06
1.15616471647e-07
5.18030752357e-06
1.23322889468e-07
5.1743298175e-06
1.32407399225e-07
5.16759714366e-06
1.4316153704e-07
5.16034595668e-06
1.55875006276e-07
5.15298821552e-06
1.70782632243e-07
5.14614452577e-06
1.87969496295e-07
2.07173211008e-07
5.14056539395e-06
5.55565630979e-06
3.27804108175e-08
5.56045367322e-06
5.47972905599e-08
5.56373875044e-06
6.69844869418e-08
5.56586636823e-06
7.51417414491e-08
5.56715109405e-06
8.20316506647e-08
5.56757680676e-06
8.81354532279e-08
5.56712454082e-06
9.37876482186e-08
5.56581057595e-06
9.94335788786e-08
5.56364567135e-06
1.05425468795e-07
5.56063513761e-06
1.12022593577e-07
5.5567949754e-06
1.19454275976e-07
5.5521686601e-06
1.27946863962e-07
5.5468481412e-06
1.37725667495e-07
5.54100236867e-06
1.49005033279e-07
5.53491187498e-06
1.61963313049e-07
5.52899742016e-06
1.76694969321e-07
5.52382098083e-06
1.93143700162e-07
2.10978408703e-07
5.52001243127e-06
5.95321198564e-06
2.9340841671e-08
5.95745379171e-06
5.05517120919e-08
5.96067178317e-06
6.37627038945e-08
5.96285127449e-06
7.29585578508e-08
5.96422449836e-06
8.06550117291e-08
5.96479666677e-06
8.75600299305e-08
5.9645435753e-06
9.40377563165e-08
5.96347762867e-06
1.0049665339e-07
5.96162119425e-06
1.07279280759e-07
5.95900109982e-06
1.14640277726e-07
5.95566226491e-06
1.22790772362e-07
5.95168448361e-06
1.3192236686e-07
5.94720091552e-06
1.42207086018e-07
5.94241947924e-06
1.53784295239e-07
5.93764401663e-06
1.66736734742e-07
5.93328370495e-06
1.81053290296e-07
5.92983716115e-06
1.96587714004e-07
2.12982999687e-07
5.92782994952e-06
6.37957531931e-06
2.65745340429e-08
6.38330050925e-06
4.68231841647e-08
6.38641499594e-06
6.0644658185e-08
6.38866020781e-06
7.07099088858e-08
6.39016225532e-06
7.91496075556e-08
6.39093375568e-06
8.6785413859e-08
6.39095203698e-06
9.4016434455e-08
6.39022826232e-06
1.01217623448e-07
6.38879560704e-06
1.08709263385e-07
6.38670195482e-06
1.1673144171e-07
6.38401962597e-06
1.25470665967e-07
6.38086016393e-06
1.35079601937e-07
6.37738866841e-06
1.45676252914e-07
6.37383758122e-06
1.57333242688e-07
6.37051618031e-06
1.70055986612e-07
6.36780694877e-06
1.83760501766e-07
6.36614151921e-06
1.98250912785e-07
2.13180054489e-07
6.36594130428e-06
5.74278055792e-06
2.46247177346e-08
5.74558103077e-06
4.40191333359e-08
5.74812471774e-06
5.80973518549e-08
5.75008805632e-06
6.87431060211e-08
5.75149570219e-06
7.77386365391e-08
5.75235276615e-06
8.59252592122e-08
5.75264358652e-06
9.37226620553e-08
5.75237857103e-06
1.01479902554e-07
5.75159315482e-06
1.09492131565e-07
5.75034206218e-06
1.17980177949e-07
5.74870437235e-06
1.27106152497e-07
5.74679298641e-06
1.36988255559e-07
5.74476368982e-06
1.47703730851e-07
5.74282004807e-06
1.59274361986e-07
5.74121642188e-06
1.71657895656e-07
5.74024788489e-06
1.84726870243e-07
5.740231628e-06
1.98264794028e-07
2.11932020458e-07
5.74147684916e-06
7.00004447858e-06
2.2732959324e-08
7.0029177089e-06
4.11428858819e-08
7.00573754392e-06
5.52744596481e-08
7.00807892123e-06
6.63986383366e-08
7.00989049386e-06
7.59241694967e-08
7.01116345639e-06
8.46494388238e-08
7.01188389083e-06
9.29995974647e-08
7.01206715162e-06
1.01294115048e-07
7.01176226989e-06
1.09794718147e-07
7.01104657473e-06
1.18693729089e-07
7.01002794899e-06
1.28121842487e-07
7.00885333645e-06
1.38160920445e-07
7.00771142982e-06
1.48842786314e-07
7.00683739051e-06
1.60146834799e-07
7.00650468606e-06
1.71988057827e-07
7.00701476837e-06
1.84215259494e-07
7.00866912885e-06
1.96607378656e-07
2.08864570608e-07
7.01173464512e-06
8.53268214534e-06
2.0894976176e-08
8.5356299498e-06
3.81922739288e-08
8.53876730695e-06
5.21341815029e-08
8.5416028508e-06
6.35605356016e-08
8.54400269106e-06
7.35214946229e-08
8.54593273587e-06
8.27170087502e-08
8.5473792002e-06
9.15505062699e-08
8.54836438354e-06
1.00306764701e-07
8.54895203719e-06
1.09204780028e-07
8.54924295915e-06
1.18400246736e-07
8.54937493721e-06
1.27987172141e-07
8.54952469151e-06
1.38008358025e-07
8.54990942298e-06
1.48455834456e-07
8.55078164577e-06
1.59272197161e-07
8.55242138702e-06
1.70346649373e-07
8.55511601667e-06
1.81518108134e-07
8.55914066913e-06
1.92581181358e-07
2.03280719702e-07
8.56472107333e-06
1.0401048407e-05
1.90629424351e-08
1.04041419584e-05
3.50958775502e-08
1.0407709458e-05
4.85641579362e-08
1.04112357895e-05
6.00312994011e-08
1.04145146418e-05
7.02404308863e-08
1.04174767665e-05
7.97520612175e-08
1.0420105608e-05
8.89196853546e-08
1.04224293855e-05
9.79803521304e-08
1.04245264494e-05
1.07105806557e-07
1.04265172659e-05
1.16406059416e-07
1.04285643009e-05
1.25937844691e-07
1.04308640906e-05
1.35705002696e-07
1.04336483969e-05
1.45669884944e-07
1.04371688423e-05
1.55748868967e-07
1.04416908144e-05
1.65823436266e-07
1.0447468267e-05
1.75738222838e-07
1.04547299627e-05
1.85317890745e-07
1.94358329014e-07
1.04636508658e-05
1.26787296147e-05
1.71204189726e-08
1.26821570897e-05
3.16656350322e-08
1.2686405847e-05
4.43124635314e-08
1.26909716183e-05
5.54630671251e-08
1.26955931274e-05
6.5616034134e-08
1.27001638602e-05
7.51791614869e-08
1.2704655104e-05
8.44256088693e-08
1.27090986421e-05
9.35349931293e-08
1.27135777941e-05
1.02623362595e-07
1.2718226096e-05
1.1175580628e-07
1.27232113281e-05
1.20948463013e-07
1.27287371637e-05
1.30177814617e-07
1.27350210313e-05
1.39382248332e-07
1.27422967906e-05
1.48472502023e-07
1.27507842627e-05
1.57332542077e-07
1.27606904569e-05
1.65832071771e-07
1.27721746316e-05
1.73830228501e-07
1.81180722209e-07
1.27853529425e-05
1.54554447897e-05
1.48527248576e-08
1.54595737011e-05
2.75337615493e-08
1.54649835177e-05
3.88996733178e-08
1.54711859764e-05
4.92577031786e-08
1.54778805914e-05
5.89186129211e-08
1.54849199041e-05
6.8137087517e-08
1.54922543342e-05
7.70886049256e-08
1.54999038053e-05
8.58828646894e-08
1.55079451581e-05
9.4579507177e-08
1.55165000682e-05
1.03197764899e-07
1.55257245693e-05
1.11721524251e-07
1.55357938282e-05
1.20105566173e-07
1.55468931297e-05
1.28281044309e-07
1.55592007738e-05
1.3616215688e-07
1.55728800985e-05
1.4365189203e-07
1.5588060668e-05
1.50649048965e-07
1.56048355633e-05
1.57054704703e-07
1.62772215367e-07
1.56232414408e-05
1.88405813021e-05
1.1905624158e-08
1.88460403058e-05
2.20715113536e-08
1.88534274067e-05
3.15093271668e-08
1.88622299151e-05
4.04519102706e-08
1.88720979315e-05
4.90475472673e-08
1.88828335936e-05
5.7398219858e-08
1.88943488461e-05
6.55706157847e-08
1.8906630402e-05
7.3598151382e-08
1.8919723356e-05
8.14840882048e-08
1.89337110802e-05
8.9206711356e-08
1.89487059046e-05
9.67244946012e-08
1.89648272854e-05
1.03980851905e-07
1.89821977211e-05
1.10908823282e-07
1.90009207907e-05
1.1743585561e-07
1.90210828917e-05
1.23488514432e-07
1.9042731781e-05
1.28996961503e-07
1.90658868776e-05
1.33899130486e-07
1.38139810307e-07
1.90905158524e-05
2.29676034189e-05
7.63569997398e-09
2.29754791856e-05
1.41918414777e-08
2.29862096732e-05
2.07748842422e-08
2.29991394533e-05
2.75182232271e-08
2.30138174596e-05
3.43657880892e-08
2.30299710218e-05
4.12408622447e-08
2.30474481616e-05
4.80900520804e-08
2.30661736129e-05
5.48689156088e-08
2.30861301272e-05
6.15245798421e-08
2.31073330864e-05
6.79999456413e-08
2.31298213436e-05
7.42336833168e-08
2.31536327441e-05
8.01655879173e-08
2.31788042207e-05
8.5735257463e-08
2.32053492877e-05
9.08870288077e-08
2.32332664352e-05
9.556987436e-08
2.32625177832e-05
9.97418358203e-08
2.32930464791e-05
1.03369837949e-07
1.06430277084e-07
2.33247521245e-05
1.68145887225e-05
3.74886667053e-09
1.68216267878e-05
7.14980727174e-09
1.68310438576e-05
1.13550143201e-08
1.6842225439e-05
1.63322129747e-08
1.68548083862e-05
2.17805320641e-08
1.68685796122e-05
2.74647622455e-08
1.68834105975e-05
3.32573439476e-08
1.68992123963e-05
3.90622552905e-08
1.69159418002e-05
4.47940628394e-08
1.69335664765e-05
5.0370573722e-08
1.695207547e-05
5.57238609348e-08
1.69714464653e-05
6.07900036495e-08
1.69916650122e-05
6.55162012164e-08
1.70126944128e-05
6.9853165682e-08
1.70345000948e-05
7.37638123075e-08
1.70570208978e-05
7.72166932854e-08
1.70801970735e-05
8.01936446749e-08
8.26812666149e-08
1.71039418924e-05
1.46387159938e-05
-4.01682307824e-10
1.46460870555e-05
-2.24246432183e-10
1.46556418973e-05
1.79644642144e-09
1.46667026345e-05
5.26852152435e-09
1.46789578633e-05
9.52118538318e-09
1.46922456055e-05
1.41746108187e-08
1.47064458387e-05
1.90527681483e-08
1.47214791337e-05
2.40272209343e-08
1.47372901647e-05
2.89791170797e-08
1.47538449378e-05
3.38142754634e-08
1.47711075715e-05
3.84575161574e-08
1.47890472223e-05
4.28491058919e-08
1.48076219607e-05
4.69378238361e-08
1.48267910731e-05
5.06830090139e-08
1.48464995884e-05
5.40517708885e-08
1.48666943552e-05
5.70212318445e-08
1.48873087022e-05
5.95758311163e-08
6.17089891928e-08
1.49082808535e-05
1.27447008891e-05
-4.97336497523e-09
1.27525146604e-05
-8.04110600522e-09
1.27621314539e-05
-7.82323371288e-09
1.27728675022e-05
-5.47083360787e-09
1.27845411083e-05
-2.15535306957e-09
1.27970504814e-05
1.66154904582e-09
1.28102974337e-05
5.80322719421e-09
1.28242134386e-05
1.01082271437e-08
1.28387563824e-05
1.44337161596e-08
1.28538920613e-05
1.86761862947e-08
1.2869585131e-05
2.27618907714e-08
1.28857977207e-05
2.6634297936e-08
1.29024864434e-05
3.02463616231e-08
1.29196044293e-05
3.35630063255e-08
1.29370977249e-05
3.65560038289e-08
1.29549092688e-05
3.92079108382e-08
1.2972976334e-05
4.15069698284e-08
4.34509979326e-08
1.29912321916e-05
1.10961755438e-05
-1.02226524843e-08
1.11045540622e-05
-1.64223622237e-08
1.11141200581e-05
-1.73922343734e-08
1.1124366208e-05
-1.57199075295e-08
1.11353128585e-05
-1.31051370545e-08
1.11469089034e-05
-9.93723136763e-09
1.1159073967e-05
-6.36467953463e-09
1.1171765588e-05
-2.58603650451e-09
1.11849602624e-05
1.23691759313e-09
1.11986303621e-05
5.00326325708e-09
1.12127442153e-05
8.64618771525e-09
1.12272622606e-05
1.21130257396e-08
1.12421442067e-05
1.53629249346e-08
1.12573411068e-05
1.83626255894e-08
1.12728066876e-05
2.10894957883e-08
1.12884878407e-05
2.35237499963e-08
1.13043415646e-05
2.56526707655e-08
2.74654646929e-08
1.132032421e-05
9.66148319698e-06
-1.64938704905e-08
9.67050617434e-06
-2.5448031923e-08
9.67984380429e-06
-2.67324230934e-08
9.68945483236e-06
-2.53338627426e-08
9.69957088631e-06
-2.32239363863e-08
9.71015250211e-06
-2.05218174234e-08
9.72114609501e-06
-1.73609032101e-08
9.73254323826e-06
-1.39855689062e-08
9.74433770068e-06
-1.05599162815e-08
9.75651107793e-06
-7.17211788575e-09
9.76903697241e-06
-3.88216328343e-09
9.78188447906e-06
-7.36588907061e-10
9.79501521529e-06
2.22918018687e-09
9.80838588882e-06
4.99008965443e-09
9.82194699838e-06
7.52607839476e-09
9.83564727991e-06
9.82180213712e-09
9.84943373909e-06
1.18645254746e-08
1.36427665509e-08
9.86325461915e-06
8.41320253048e-06
-2.43466826421e-08
8.42282231035e-06
-3.50705553544e-08
8.43170597397e-06
-3.56189466666e-08
8.44062480557e-06
-3.42556066648e-08
8.44991963368e-06
-3.25215392669e-08
8.45952111036e-06
-3.01256806584e-08
8.46940934434e-06
-2.72518187493e-08
8.47960647945e-06
-2.41851231595e-08
8.49011862027e-06
-2.10741568298e-08
8.50093442488e-06
-1.7990166633e-08
8.51203328117e-06
-1.49833068193e-08
8.5233874736e-06
-1.20932632951e-08
8.53496211744e-06
-9.34759799378e-09
8.54671677178e-06
-6.76681690297e-09
8.55860683943e-06
-4.3660033235e-09
8.57058636162e-06
-2.15921545333e-09
8.58261538471e-06
-1.67180235817e-10
1.57578314462e-09
8.59468108536e-06
7.32730692177e-06
-3.43718741288e-08
7.33722481493e-06
-4.49911097578e-08
7.34539668134e-06
-4.37934076777e-08
7.35354420093e-06
-4.24060775926e-08
7.36193556108e-06
-4.09156669629e-08
7.37049581888e-06
-3.86885751977e-08
7.37926357497e-06
-3.60220692099e-08
7.38828337805e-06
-3.32072030452e-08
7.39756517107e-06
-3.03580464201e-08
7.40710043914e-06
-2.75275135126e-08
7.41687211078e-06
-2.47572112971e-08
7.42685680676e-06
-2.20801798161e-08
7.43702400084e-06
-1.95171208694e-08
7.44733685183e-06
-1.70817361213e-08
7.45775065887e-06
-1.47816709941e-08
7.46821078987e-06
-1.26211978092e-08
7.47865260517e-06
-1.06109846382e-08
-8.78922097704e-09
7.48901504941e-06
6.38321504761e-06
-4.75233945042e-08
6.3928735426e-06
-5.46521267548e-08
6.40034774814e-06
-5.12701036453e-08
6.40786306048e-06
-4.99246902853e-08
6.41542537933e-06
-4.84801188708e-08
6.4230211705e-06
-4.62863868413e-08
6.43075172589e-06
-4.37549516624e-08
6.43867423347e-06
-4.11318267831e-08
6.44680345262e-06
-3.84891825997e-08
6.45513731221e-06
-3.58632534213e-08
6.4636646903e-06
-3.32873563595e-08
6.47236870927e-06
-3.07858035029e-08
6.48122437681e-06
-2.83745836049e-08
6.49020135043e-06
-2.60606274316e-08
6.49926078683e-06
-2.38427983452e-08
6.50834787073e-06
-2.17098999957e-08
6.5173846901e-06
-1.9649665901e-08
-1.76853944233e-08
6.52627800517e-06
5.56225976682e-06
-6.43212249569e-08
5.57034568945e-06
-6.27406538001e-08
5.57691495677e-06
-5.78420700213e-08
5.58350714926e-06
-5.65205644553e-08
5.58989695946e-06
-5.48727080101e-08
5.59619381326e-06
-5.2585390758e-08
5.60252321703e-06
-5.00867075241e-08
5.6089375806e-06
-4.7548338071e-08
5.61545784191e-06
-4.50113099252e-08
5.622093215e-06
-4.25009988534e-08
5.62884500553e-06
-4.00416702789e-08
5.63570825493e-06
-3.76510838561e-08
5.64267175039e-06
-3.53398078085e-08
5.64972005188e-06
-3.3110782886e-08
5.6568309833e-06
-3.09553806822e-08
5.66396080869e-06
-2.88411534707e-08
5.67100019824e-06
-2.6691453001e-08
-2.42972422105e-08
5.67760989122e-06
4.84630646968e-06
-8.30233123538e-08
4.8484209589e-06
-6.48580567587e-08
4.84987270486e-06
-5.92970433006e-08
4.85021491035e-06
-5.68669923976e-08
4.84956560935e-06
-5.42266133514e-08
4.84835220597e-06
-5.137452067e-08
4.84682023346e-06
-4.85573916766e-08
4.84511362488e-06
-4.58441674771e-08
4.84334142864e-06
-4.32413994701e-08
4.84158948256e-06
-4.07518338462e-08
4.83992317176e-06
-3.83784515696e-08
4.83839131038e-06
-3.61215670783e-08
4.83702903115e-06
-3.39795900504e-08
4.83586328759e-06
-3.19471349158e-08
4.83491827984e-06
-3.00122090324e-08
4.83421686974e-06
-2.81416800842e-08
4.8337712028e-06
-2.6248150673e-08
-2.35137728791e-08
4.83298492056e-06
4.11965270265e-06
4.05479439416e-06
3.9954969692e-06
3.9386296607e-06
3.88440278789e-06
3.83302796763e-06
3.78447027598e-06
3.73862581562e-06
3.69538403777e-06
3.65463171648e-06
3.61625286727e-06
3.58013094357e-06
3.54615095289e-06
3.51420343268e-06
3.48419083591e-06
3.45604861794e-06
3.42979975673e-06
3.40628559996e-06
4.36523480781e-08
-4.38285712932e-08
3.33574878227e-09
4.01568912458e-08
-1.77044328683e-07
1.80321840988e-07
-4.01253750914e-07
2.24165311516e-07
-6.44602164835e-07
2.4332826007e-07
-9.01423915819e-07
2.56797766822e-07
-1.16873218726e-06
2.6729749094e-07
-1.44426633033e-06
2.75517526574e-07
-1.72606846963e-06
2.81794334783e-07
-2.01241339626e-06
2.86331969949e-07
-2.30169172363e-06
2.892721157e-07
-2.59242541952e-06
2.9072304305e-07
-2.88320684765e-06
2.90776279774e-07
-3.17272927073e-06
2.89513550926e-07
-3.45974661526e-06
2.87013069488e-07
-3.7431054066e-06
2.83351308964e-07
-4.02171515966e-06
2.78606222584e-07
-4.29457895186e-06
2.72857264267e-07
-4.56076967127e-06
2.66187406554e-07
-4.8194582089e-06
2.58682447061e-07
-5.06989400304e-06
2.5043245102e-07
-5.31143091064e-06
2.4153081001e-07
-5.54351016317e-06
2.32075384975e-07
-5.7656837729e-06
2.22167198261e-07
-5.977599389e-06
2.11911107921e-07
-6.17902009323e-06
2.01414008456e-07
-6.36980957676e-06
1.90784616993e-07
-6.54994718689e-06
1.80130754068e-07
-6.71951060149e-06
1.69558196537e-07
-6.87868454287e-06
1.59167040224e-07
-7.02773945003e-06
1.49049710896e-07
-7.16703315653e-06
1.39286911556e-07
-7.29698415576e-06
1.29945753809e-07
-7.41806707567e-06
1.21076266407e-07
-7.53078267821e-06
1.12710582379e-07
-7.6356502983e-06
1.04861087355e-07
-7.73317706512e-06
9.75217284497e-08
-7.82385184097e-06
9.06682483797e-08
-7.90811869776e-06
8.4261798051e-08
-7.9863764443e-06
7.82512363223e-08
-8.05895979278e-06
7.25783488403e-08
-8.12614716927e-06
6.71809821594e-08
-8.18815085773e-06
6.19988488167e-08
-8.2451337511e-06
5.6976664173e-08
-8.29720716352e-06
5.20688170418e-08
-8.3444537069e-06
4.72404177486e-08
-8.38692780053e-06
4.24694994606e-08
-8.42468098713e-06
3.77469003969e-08
-8.45776302827e-06
3.30772482678e-08
-8.48624356988e-06
2.84736495745e-08
-8.51020567675e-06
2.39565259445e-08
-8.52975811472e-06
1.9544422248e-08
-8.54502014458e-06
1.52552295088e-08
-8.55612925228e-06
1.10998991994e-08
-8.56321196858e-06
7.07502416693e-09
-8.56637565502e-06
3.15329713763e-09
-8.56574337714e-06
-6.41141104908e-10
-8.5614995149e-06
-4.25530624051e-09
-8.5538207835e-06
-7.68812838309e-09
-8.54287199816e-06
-1.0961088868e-08
-8.52878427463e-06
-1.4097937244e-08
-8.51167577878e-06
-1.71213428919e-08
-8.49163855168e-06
-2.00473333088e-08
-8.46876626144e-06
-2.28854482578e-08
-8.44314340687e-06
-2.56332538003e-08
-8.41487507363e-06
-2.828194017e-08
-8.38407274145e-06
-3.0812966136e-08
-8.35088166475e-06
-3.32048715629e-08
-8.31546013007e-06
-3.54319473193e-08
-8.27800049254e-06
-3.74732036508e-08
-8.23869994158e-06
-3.93106734235e-08
-8.19777556502e-06
-4.09379881568e-08
-8.15542944767e-06
-4.23565274455e-08
-8.11186252508e-06
-4.35816875514e-08
-8.06723913647e-06
-4.4635465087e-08
-8.02170626957e-06
-4.55502468933e-08
-7.97536357926e-06
-4.63577446202e-08
-7.92829191704e-06
-4.70911916497e-08
-7.88053421067e-06
-4.77737958807e-08
-7.8321332524e-06
-4.84219178608e-08
-7.78311598272e-06
-4.90348641689e-08
-7.73353531046e-06
-4.96026117881e-08
-7.68345251652e-06
-5.01004875346e-08
-7.63297342948e-06
-5.05025172218e-08
-7.58221396735e-06
-5.0779162056e-08
-7.53132303581e-06
-5.09154180448e-08
-7.48043232807e-06
-5.09093042876e-08
-7.4296609183e-06
-5.07897667116e-08
-7.37905934422e-06
-5.06125206488e-08
-7.32859448006e-06
-5.04706726683e-08
-7.27810920221e-06
-5.04947837588e-08
-7.22727335019e-06
-5.08494091898e-08
-7.17555768362e-06
-5.1731373125e-08
-7.12221063358e-06
-5.33623694047e-08
-7.06624492278e-06
-5.59810705216e-08
-7.00642769316e-06
-5.98313740793e-08
-6.94129183443e-06
-6.51504391735e-08
-6.86915347698e-06
-7.21527613493e-08
-6.78815308184e-06
-8.10165698311e-08
-6.69630413203e-06
-9.18675912861e-08
-6.59156799114e-06
-1.04759458311e-07
-6.47194514937e-06
-1.19658772571e-07
-6.33556011827e-06
-1.36428111302e-07
-6.18077079855e-06
-1.54849713975e-07
-6.00620406309e-06
-1.7462399065e-07
-5.81087910243e-06
-1.95392453783e-07
-5.59425856051e-06
-2.16673602861e-07
-5.35643165107e-06
-2.37886610731e-07
-5.09806442318e-06
-2.58409054679e-07
-4.82033740446e-06
-2.77776722481e-07
-4.5248571124e-06
-2.95511451775e-07
-4.21378348457e-06
-3.11114165434e-07
-3.88969955436e-06
-3.24104655466e-07
-3.55536884316e-06
-3.3436138691e-07
-3.21385011879e-06
-3.41527930849e-07
-2.86849845875e-06
-3.45370454917e-07
-2.52174199734e-06
-3.46752280489e-07
-2.17659046523e-06
-3.45148251684e-07
-1.83601830652e-06
-3.40544459967e-07
-1.50236244602e-06
-3.33640085162e-07
-1.17874299985e-06
-3.23607134394e-07
-8.67185921117e-07
-3.11587913183e-07
-5.75964340142e-07
-2.91273443398e-07
-2.87145571916e-07
-2.88905597035e-07
2.87321758086e-08
-3.15971427517e-07
3.38389178678e-07
-3.09745074849e-07
6.09578661482e-07
-2.71233371492e-07
8.46283099938e-07
-2.36748247549e-07
1.05644935743e-06
-2.10187164515e-07
1.24393054273e-06
-1.87507374947e-07
1.41077112083e-06
-1.66849359337e-07
1.55828931689e-06
-1.47534418157e-07
1.68755360194e-06
-1.29267063549e-07
1.79947798605e-06
-1.11935152319e-07
1.89494902659e-06
-9.54701755786e-08
1.97480229089e-06
-7.98592885767e-08
2.03989178863e-06
-6.50841869972e-08
2.09104655857e-06
-5.11557110636e-08
2.12912962306e-06
-3.80756013797e-08
2.15500684114e-06
-2.58811227736e-08
2.16966106884e-06
-1.46628886261e-08
2.17443550623e-06
-4.80622514154e-09
2.17088562654e-06
3.50522126675e-09
2.15993688666e-06
1.08844004026e-08
2.14219789995e-06
1.76694214732e-08
2.11842537862e-06
2.36915758812e-08
2.08936969816e-06
2.89758551933e-08
2.05570856505e-06
3.35750251416e-08
2.0180851796e-06
3.75417223046e-08
1.97708355158e-06
4.09163375921e-08
1.93326689263e-06
4.3737236059e-08
1.88714609336e-06
4.60390401186e-08
1.839212914e-06
4.78576490374e-08
1.7899087553e-06
4.92269143999e-08
1.73965647397e-06
5.01810867991e-08
1.68883100654e-06
5.0752935134e-08
1.63778951685e-06
5.09746109172e-08
1.58684418682e-06
5.08775030521e-08
1.53629006604e-06
5.04915339178e-08
1.48638040047e-06
4.98466962329e-08
1.43735149815e-06
4.89708818092e-08
1.38940088776e-06
4.78930861583e-08
1.3427084792e-06
4.66397838116e-08
1.29741794772e-06
4.52396839415e-08
1.25365322615e-06
4.37189766578e-08
1.21150347361e-06
4.21073762111e-08
1.17103407306e-06
4.04323753566e-08
1.13227540177e-06
3.87266137783e-08
1.09522717294e-06
3.70214792872e-08
1.05985080265e-06
3.53558773797e-08
1.02606536463e-06
3.37696586006e-08
9.93742452367e-07
3.23140695059e-08
9.6269067936e-07
3.10463984325e-08
9.3264872995e-07
3.00437395621e-08
9.03250078168e-07
2.94021674939e-08
8.73999536841e-07
2.92609982067e-08
8.44200483897e-07
2.98097038611e-08
8.12722676712e-07
3.14992759677e-08
7.78670455197e-07
3.40815282396e-08
4.2000326131e-08
7.36719648171e-07
-2.3256341015e-07
1.88684166379e-07
-4.93491901604e-07
3.01053652501e-07
-6.86876294696e-07
3.73687964757e-07
-8.95478374194e-07
4.32748533372e-07
-1.12709894567e-06
4.74936982669e-07
-1.37689491295e-06
5.06579799229e-07
-1.64037975949e-06
5.30773494572e-07
-1.91409798687e-06
5.49224553293e-07
-2.19527854941e-06
5.62967811981e-07
-2.48162856263e-06
5.72672477854e-07
-2.77115850791e-06
5.78795963397e-07
-3.06211433732e-06
5.81670742686e-07
-3.35289931885e-06
5.81556028481e-07
-3.64206108294e-06
5.7866838193e-07
-3.92825334315e-06
5.73200874781e-07
-4.21024251247e-06
5.65334544291e-07
-4.48688598526e-06
5.55245880308e-07
-4.75714501694e-06
5.43111099483e-07
-5.02007027693e-06
5.29109165603e-07
-5.27481604081e-06
5.13423307794e-07
-5.52062948434e-06
4.96242353722e-07
-5.75686482205e-06
4.77761242496e-07
-5.98297498282e-06
4.5818160738e-07
-6.19852469511e-06
4.37711585507e-07
-6.40318351176e-06
4.16565438692e-07
-6.59673713834e-06
3.94962011306e-07
-6.77908009166e-06
3.73122612543e-07
-6.95022281239e-06
3.51267451997e-07
-7.11028116405e-06
3.29611215297e-07
-7.25947758193e-06
3.08357308678e-07
-7.3981251371e-06
2.87691756619e-07
-7.52662102177e-06
2.67776542197e-07
-7.64542447824e-06
2.48743654585e-07
-7.75504416402e-06
2.30689781537e-07
-7.85601214805e-06
2.13673028765e-07
-7.94886853326e-06
1.97711330845e-07
-8.03413601416e-06
1.82783646902e-07
-8.11230732238e-06
1.68833385265e-07
-8.18382559745e-06
1.55774468393e-07
-8.24907925206e-06
1.43498755446e-07
-8.30839145996e-06
1.3188501329e-07
-8.36202520446e-06
1.20808726221e-07
-8.41018395597e-06
1.10152213169e-07
-8.4530252626e-06
9.9812156598e-08
-8.49066784528e-06
8.97062097855e-08
-8.5232088251e-06
7.97757515929e-08
-8.55073709911e-06
6.9992630718e-08
-8.57335328669e-06
6.035730159e-08
-8.59117161716e-06
5.08902054062e-08
-8.60433161421e-06
4.16274674135e-08
-8.61299138381e-06
3.26101610331e-08
-8.61734498165e-06
2.38907448161e-08
-8.61760568587e-06
1.55087102153e-08
-8.61397399962e-06
7.45994902824e-09
-8.60661053521e-06
-2.96813807538e-10
-8.59584394759e-06
-7.62289693478e-09
-8.58206200775e-06
-1.44326177827e-08
-8.56544623854e-06
-2.08816392506e-08
-8.54606414656e-06
-2.70807557365e-08
-8.52393364529e-06
-3.31032307693e-08
-8.49904461471e-06
-3.89983294842e-08
-8.47138114064e-06
-4.47970148327e-08
-8.44093072856e-06
-5.05095555613e-08
-8.40770411177e-06
-5.61247186411e-08
-8.37173825917e-06
-6.16113673543e-08
-8.33310922381e-06
-6.69240887581e-08
-8.29192763443e-06
-7.20071121382e-08
-8.24834260481e-06
-7.68030369965e-08
-8.2025278742e-06
-8.12589616135e-08
-8.1546787494e-06
-8.53350030931e-08
-8.1049928697e-06
-8.90084424958e-08
-8.05366466543e-06
-9.22788105806e-08
-8.00086649758e-06
-9.51668214816e-08
-7.9467478676e-06
-9.77137643969e-08
-7.89142331173e-06
-9.99739610227e-08
-7.83498062644e-06
-1.02008960559e-07
-7.777478481e-06
-1.03876280155e-07
-7.7189650967e-06
-1.05622463854e-07
-7.65948387714e-06
-1.07273048966e-07
-7.59909567463e-06
-1.08829775364e-07
-7.53788269488e-06
-1.10267172867e-07
-7.47596686408e-06
-1.11539003024e-07
-7.4135037838e-06
-1.1258404345e-07
-7.35068708362e-06
-1.13341677693e-07
-7.28772432424e-06
-1.13764496323e-07
-7.22482531397e-06
-1.13838039142e-07
-7.16216435027e-06
-1.13592499688e-07
-7.09985619056e-06
-1.13117027668e-07
-7.03791569683e-06
-1.12564381155e-07
-6.97623830641e-06