/*--------------------------------*- C++ -*----------------------------------*\
| =========                 |                                                 |
| \\      /  F ield         | OpenFOAM: The Open Source CFD Toolbox           |
|  \\    /   O peration     | Version:  v1806                                 |
|   \\  /    A nd           | Web:      www.OpenFOAM.com                      |
|    \\/     M anipulation  |                                                 |
\*---------------------------------------------------------------------------*/
FoamFile
{
    version     2.0;
    format      ascii;
    class       volScalarField;
    location    "27";
    object      sensitivity;
}
// * * * * * * * * * * * * * * * * * * * * * * * * * * * * * * * * * * * * * //

dimensions      [0 2 -3 0 0 0 0];


internalField   nonuniform List<scalar> 
12225
(
-5.60464073885
-9.98985435846
-8.42688452293
-8.87445699646
-8.82778206072
-8.98909318604
-9.1111531078
-9.24856275318
-9.35817117693
-9.47422953892
-9.64588797134
-9.91198653118
-10.1877184405
-10.3105945399
-10.5728986591
-12.3903239232
-16.9752002531
-19.6705105488
-29.7686879938
-9.61507508818
-14.1225104698
-13.209015155
-13.9799251281
-14.2886049758
-14.7390451467
-15.1355356434
-15.5456329994
-16.0008226368
-16.5604643897
-17.2208463522
-17.8435951319
-18.2762826484
-18.9172988521
-21.0649658759
-24.9172490349
-25.0388311974
10.6145515974
-12.9963840767
-9.92173617219
-11.1488908499
-10.9797708336
-11.2355881141
-11.3326390092
-11.4390863714
-11.5251231385
-11.6730090163
-11.9431906274
-12.3324844481
-12.7062826827
-12.9803336541
-13.6059389803
-15.6138560194
-18.724244556
-18.9841582096
-30.4833704269
-8.40974120994
-12.3285744335
-11.3900311287
-12.0339934686
-12.1756873194
-12.4305860436
-12.5991010543
-12.7573398634
-12.9422254753
-13.2046830421
-13.5152577493
-13.7496995015
-13.8742056567
-14.2716433479
-15.5052727916
-16.9113054593
-16.1091619562
5.98504347973
-12.2582215942
-9.59945911677
-10.8105201929
-10.7186082887
-11.046877947
-11.2212698462
-11.4231528988
-11.6139426025
-11.8600778214
-12.1849431058
-12.5551831954
-12.8826584998
-13.1989952796
-13.8023006448
-14.8630749488
-15.5602781486
-14.5271680487
-24.6080269077
-8.03512780416
-11.5509124717
-10.6410832916
-11.1879324504
-11.2546081185
-11.4419949723
-11.5696565911
-11.7128848655
-11.8901792188
-12.1172736666
-12.3540881021
-12.553761716
-12.7957096544
-13.3009412019
-14.036484028
-14.301570457
-13.3726849337
-0.117551353216
-11.1839746676
-10.0125045519
-10.7095412267
-10.7480474711
-10.9730235814
-11.1234058489
-11.2862087583
-11.4548992327
-11.6587044618
-11.8881758819
-12.1018974298
-12.2743470749
-12.4855294057
-12.8625598084
-13.2846810114
-13.2658677436
-12.4783918747
-16.4168603925
-9.6866438489
-10.5992677474
-10.4871174705
-10.7335049904
-10.8506343981
-10.9873281792
-11.1155954268
-11.2630223186
-11.4410473418
-11.6364551622
-11.8144520709
-11.9659803775
-12.149615042
-12.4104715612
-12.604806757
-12.4337247777
-11.7743707452
-8.37181382183
-9.88134847149
-10.3508542121
-10.4294431413
-10.6007980624
-10.7245982045
-10.8454061869
-10.9637053778
-11.0953269618
-11.2468157111
-11.4033075505
-11.5415556518
-11.6631822689
-11.8030760312
-11.9565582257
-11.9986900388
-11.7596229314
-11.209113796
-11.1383571447
-9.95299466949
-10.2711039614
-10.3373465816
-10.4873964108
-10.5970013445
-10.705219799
-10.8126582903
-10.9291340661
-11.0555631871
-11.1775697251
-11.2808747906
-11.3701210784
-11.4594245052
-11.5222647716
-11.4666576903
-11.2068569149
-10.7462067262
-10.4552554143
-9.85549809861
-10.221658771
-10.2504518205
-10.385590687
-10.4784569134
-10.5739685416
-10.6680985772
-10.7671142825
-10.8680584849
-10.9588634901
-11.0310585462
-11.0873565199
-11.1274535173
-11.12022909
-11.0070356748
-10.7478730629
-10.358259111
-10.4491668397
-9.85097661672
-10.1422914107
-10.1694989405
-10.2831618527
-10.3638633326
-10.4467206558
-10.527744995
-10.6097300756
-10.6883562379
-10.7534875139
-10.7994443181
-10.8267889936
-10.827812484
-10.7760301177
-10.6352522751
-10.3900080425
-10.0559767352
-10.3705973091
-9.82860224683
-10.081915501
-10.0980295427
-10.1937991785
-10.2610996257
-10.3309608054
-10.397713566
-10.4619659537
-10.518415881
-10.5594052423
-10.5811070029
-10.5805583619
-10.5489604918
-10.4656489079
-10.3121551496
-10.0822442037
-9.79313689616
-10.252693376
-9.80696278448
-10.0097037666
-10.018880709
-10.0938562743
-10.1456671224
-10.199511371
-10.2489908973
-10.2928804185
-10.3266747671
-10.3437615332
-10.3404284091
-10.3138241956
-10.2543043017
-10.1502580559
-9.99128214457
-9.7817239866
-9.53208965285
-10.1331777199
-9.78273526159
-9.92321358081
-9.92745200377
-9.97976955946
-10.0135533335
-10.0482887164
-10.0771666509
-10.0993607365
-10.1091459974
-10.1025287205
-10.0758666705
-10.025717552
-9.94569341415
-9.82936158371
-9.67448771956
-9.48476629758
-9.2749890399
-9.86885920272
-9.70771786905
-9.84177699037
-9.83165083716
-9.86378693818
-9.87714586702
-9.89092162465
-9.89813377191
-9.89683507631
-9.88412322409
-9.8551906588
-9.80791014412
-9.73905107853
-9.64612847493
-9.52514921276
-9.37904211622
-9.21025959058
-9.03283012877
-10.3550428925
-9.76132695287
-9.7447666433
-9.72853768587
-9.73845306584
-9.73130004272
-9.72261128559
-9.70666997331
-9.68343308914
-9.64926294299
-9.60173811992
-9.53850454083
-9.45892634886
-9.36097374363
-9.24517226546
-9.11286623942
-8.97021290385
-8.82548382394
-7.64579037717
-9.36069087534
-9.51116701286
-9.57723301789
-9.55242897081
-9.51554225136
-9.47995610794
-9.43825480067
-9.390845126
-9.33409387664
-9.2667346888
-9.1868317758
-9.09490526416
-8.98994441691
-8.87374897627
-8.74750748512
-8.61689016989
-8.48338842735
-15.3117345825
-10.2238952529
-10.2606051779
-9.75719128732
-9.72178849136
-9.64828962739
-9.60367021599
-9.55272710681
-9.4985158784
-9.43736070399
-9.36886868976
-9.29165505059
-9.20711358355
-9.11449663491
-9.01529074559
-8.90891815732
-8.79984737121
-8.69611310871
2.70394810327
-8.92727583902
-8.13070839022
-9.03268250808
-8.87796101918
-8.88025808751
-8.82088350149
-8.76508153802
-8.70163984753
-8.63169988595
-8.5558450438
-8.47285167679
-8.38540901169
-8.29271904709
-8.19737348317
-8.10018103692
-8.00581132252
-7.90963871661
-26.8071545383
-9.22555419507
-10.730596783
-9.44863707997
-9.71952475615
-9.60347161781
-9.58068733962
-9.51706367206
-9.45299596815
-9.38113832974
-9.30339179743
-9.22104360384
-9.13432690463
-9.04475295588
-8.95118312553
-8.85519828614
-8.75566711113
-8.67726549045
18.6063013684
-10.525691448
-7.14600360108
-9.24268496183
-8.64909058074
-8.76710894759
-8.66550116727
-8.61841061972
-8.54788663521
-8.47672522054
-8.39894029726
-8.3167527564
-8.2300959691
-8.13996797937
-8.04730939872
-7.95477875203
-7.86681786212
-7.77066198383
-48.7637917493
-6.70844849849
-12.1105526177
-9.15625937866
-10.0358763763
-9.74806438538
-9.79377585725
-9.72136270933
-9.67595611806
-9.61556003187
-9.55425830602
-9.48719624648
-9.41835407444
-9.3456144601
-9.27244494531
-9.19655474508
-9.11797281956
-9.06317666617
43.2528129913
-14.8920881919
-5.62898703929
-9.83881637214
-8.46333183703
-8.80316266437
-8.60294169908
-8.5605104206
-8.45826853554
-8.36587865333
-8.26379933301
-8.16104469022
-8.05660531463
-7.95302013005
-7.85248658181
-7.75738639544
-7.67212962611
-7.57323155142
-67.0038562444
-1.20893355005
-13.8308221461
-8.77040291762
-10.4627328108
-9.90847781235
-10.0500375482
-9.95834038383
-9.93708009733
-9.89174531616
-9.85210293019
-9.80833127896
-9.76418517336
-9.71817695627
-9.66941506759
-9.61665505919
-9.55019011203
-9.51357519621
46.3590983172
-18.3647813548
-5.1868404695
-10.1779676393
-8.41356930476
-8.89153005878
-8.62424780018
-8.59028697767
-8.46894738095
-8.36824349187
-8.25336739962
-8.13735410926
-8.01777760447
-7.89579314941
-7.77338356069
-7.65769311237
-7.55710168784
-7.43748636711
-58.2766891767
-2.2496435794
-13.4533770975
-9.34973986927
-10.7041304182
-10.2144133256
-10.3239810834
-10.2338627615
-10.207437751
-10.1592319191
-10.1141765287
-10.0647996856
-10.0189870983
-9.97432019568
-9.93518634357
-9.90683990818
-9.88407075178
-9.89734679933
33.8222575597
-16.2670119061
-6.45574309569
-9.81097328347
-8.63026916227
-8.89663001566
-8.70511947387
-8.65475470887
-8.55532987831
-8.4689619403
-8.37320172854
-8.27848017513
-8.18697096095
-8.0984737671
-8.01399380676
-7.9351151241
-7.85175377009
-7.70560878567
-35.7919759675
-6.43311409472
-12.9734549856
-10.7200223871
-11.4090739476
-11.142763146
-11.1841983331
-11.1219178532
-11.088529135
-11.039314729
-10.9839683841
-10.9192099718
-10.8494196612
-10.772304482
-10.6865317896
-10.5857079118
-10.44644464
-10.3173433808
0.547969656225
-8.85643970296
-5.4533106587
-6.34196302578
-5.91732865036
-5.90849551816
-5.76917441548
-5.67218110414
-5.56309895428
-5.45801881871
-5.348248569
-5.23875678407
-5.13240478532
-5.03025056134
-4.93445322572
-4.84896827092
-4.79094653255
-4.76434375425
-0.0261847326044
-0.0131081362505
-0.00151359450932
0.00545459506937
0.0106848176058
0.00360523506288
-0.01331933469
-0.0382527816264
-0.0675166044641
-0.100612343208
-0.135550446499
-0.172788212019
-0.211451803058
-0.252905995226
-0.297276429113
-0.346716020033
-0.401090278919
-0.463114189554
-0.532434337286
-0.609210615706
-0.691260171927
-0.778835522617
-0.869948154984
-0.962935397489
-1.05563556624
-1.14603958589
-1.23263036652
-1.31610828473
-1.39640115649
-1.4721498794
-1.54258187333
-1.60906165765
-1.67251426837
-1.73125849898
-1.78484065514
-1.83537390573
-1.88412310486
-1.93064848188
-1.97585471264
-2.01895275277
-2.06056858198
-2.09969960595
-2.13676953492
-2.17126146956
-2.20287097926
-2.23290279888
-2.26186168373
-2.29005018691
-2.31686333161
-2.3444188839
-2.37238879305
-2.40201394355
-2.43272533521
-2.46208997997
-2.48899122123
-2.51767295402
-2.54845853827
-2.57826365464
-2.605384727
-2.63281098459
-2.66151448997
-2.68657893276
-2.70685663003
-2.72482830166
-2.74214842416
-2.75777115258
-2.77207686885
-2.78318598562
-2.79038540862
-2.79365534814
-2.7936497077
-2.79281244498
-2.79039882064
-2.79075815798
-2.79546224837
-2.80654289359
-2.82263119705
-2.83743452905
-2.84716360322
-2.85990666491
-2.87679158687
-2.89397777832
-2.90993780501
-2.93625805734
-2.976467919
-3.02340061071
-3.06818638843
-3.07494383421
-3.01654405221
-2.87648569028
-2.78661683231
-2.8170126885
-2.91925796032
-3.03510838109
-3.14696116543
-3.25783296234
-3.38058018056
-3.52869310422
-3.71386821025
-3.94720999654
-4.24374648192
-4.6405688035
-5.10912577967
-5.61340030493
-6.05158917276
-6.37330540966
-6.54824498699
-6.60925864666
-6.57451557842
-6.45768055522
-6.25021191189
-5.97136288791
-5.63016559899
-5.23190700681
-4.75084563399
-4.19586321054
-3.57469423631
-2.87042423258
-2.13290354844
-1.43949954921
-0.874324219421
-0.310214809805
0.298111846864
1.0327099863
1.0122864195
-1.23054302233
0.792921987476
2.33096248053
4.01225391448
5.74834416916
7.43613340588
9.10367686844
10.7665749773
12.4653442315
14.1746953204
15.8524489145
17.3628077927
18.3992929101
18.5981967114
17.7061397857
15.9659851549
13.733784921
11.4165656719
9.10135636215
6.63050729677
3.94920074868
1.02886050652
-2.20225320761
-5.80562887997
-9.88697819391
-14.5147258358
-19.8155597726
-25.847395006
-32.7548805295
-40.5658596274
-49.4283985128
-59.3213587128
-70.3796385934
-82.4986701321
-95.7909178913
-110.071866568
-125.432661225
-141.603469955
-158.870733059
-177.019791523
-196.357824319
-216.727457732
-238.565332904
-262.074536157
-287.337571476
-316.587337966
-346.575259946
-371.099808333
-391.079766171
-399.453169117
-385.808340533
-336.291088659
-224.521986821
-85.7343264563
267.729027449
-0.0265075622652
-0.0306951172649
-0.0443558070679
-0.0484727719692
-0.0388217627737
-0.0191867714814
0.00774161543864
0.0392671302187
0.0742967457014
0.110996691336
0.14820995023
0.184512539468
0.218788183841
0.249691277374
0.276005290587
0.296306221773
0.309805535162
0.315348109368
0.312280911751
0.300327683855
0.280416977527
0.253418592355
0.219211637959
0.179093140152
0.134858772371
0.08844856149
0.0394993945874
-0.0114228060149
-0.0633821895045
-0.114482744222
-0.165214271798
-0.214814348184
-0.262546098875
-0.3067225158
-0.347548108244
-0.384507516658
-0.418124343665
-0.447687048482
-0.473567231809
-0.494546116261
-0.510997457339
-0.521849528599
-0.527387373467
-0.527006360481
-0.520729413542
-0.50874899902
-0.492060009495
-0.471296828521
-0.445755537106
-0.415632907762
-0.383121887905
-0.348440447927
-0.30981909947
-0.266300528106
-0.220178639748
-0.173556134548
-0.126313624068
-0.077432375475
-0.0275353756081
0.0228314068989
0.0749937192126
0.1316179375
0.193396205908
0.259578675115
0.329075733552
0.401658538837
0.476980653175
0.555570575524
0.637816284321
0.722944512304
0.809643207573
0.895068172431
0.977791909316
1.05538683168
1.12453721726
1.18204316905
1.23130499199
1.27620025276
1.31591546794
1.34581763859
1.36725804285
1.38147498081
1.38604950525
1.37365515276
1.34313539369
1.29790282306
1.2435637476
1.2110015559
1.24896076885
1.34738579119
1.38056046115
1.2853859032
1.10678685363
0.902867155272
0.691103530195
0.467643919972
0.218844397442
-0.0681834227476
-0.407175531357
-0.80781256998
-1.29557526601
-1.88949561047
-2.56944357549
-3.27075666012
-3.90386448198
-4.41676783355
-4.79333622648
-5.05245548731
-5.20395621845
-5.27171905489
-5.25646958326
-5.16971649285
-4.99007368171
-4.70970839383
-4.31598791083
-3.84707834364
-3.27819455156
-2.62189829772
-1.87790079785
-1.0741681991
-0.339579045262
0.226714988839
1.00387439624
2.36481715975
5.05787573502
7.43429213204
9.20520187876
10.3069218212
11.2572723366
12.2112453724
13.1774285044
14.164273098
15.213334229
16.3350844021
17.5254314683
18.7172217866
19.7651981091
20.3377951498
20.0439704299
18.6923253101
16.5119766256
13.9490719456
11.365584623
8.93555377817
6.57138976487
4.10220596228
1.46432220074
-1.40973899464
-4.6100030808
-8.23502544892
-12.3927957148
-17.2036988835
-22.7845189777
-29.2738356417
-36.7830437084
-45.474179582
-55.4352008632
-66.8188229485
-79.6575498441
-94.0782985878
-110.115098269
-127.910018189
-147.481717304
-169.166349916
-192.891701532
-219.051283364
-248.016836155
-281.050620953
-320.274688742
-363.51090913
-412.051973301
-463.350416323
-532.60083515
-619.865792675
-722.648505592
-833.526545037
-925.340716551
-925.879784348
-999.113947666
-936.105614211
-0.116331292728
-0.0572623302315
0.040107905143
0.119163380675
0.18934834043
0.255767041934
0.320554607232
0.384525895881
0.448578304487
0.512064886311
0.57485491044
0.636353470835
0.696469944327
0.754478599089
0.809968005348
0.862054052063
0.910567261983
0.954850585765
0.994970009105
1.03066124301
1.06250620791
1.09096646789
1.11642600372
1.13938276065
1.16068291873
1.18119067362
1.20093136089
1.22010611714
1.23874186357
1.25766589993
1.27653762622
1.29591349186
1.31545011023
1.33596656898
1.35706773256
1.3788077966
1.40026152521
1.42190333823
1.4429266902
1.46386728252
1.48413531551
1.50427296167
1.52377624614
1.54293884047
1.56141164869
1.57895435308
1.59474243063
1.60823022839
1.61876837689
1.6261656284
1.6294093927
1.62786154976
1.62172554445
1.61236230431
1.59784445398
1.57651219185
1.54860306943
1.51486659616
1.47444320177
1.42777956982
1.37608673006
1.32168647569
1.26504152488
1.20679586642
1.14710164554
1.08641544782
1.02546565975
0.965437575689
0.907117106649
0.85091279573
0.795917222237
0.740784837042
0.684973401819
0.62698051959
0.564789577965
0.498050006099
0.42884125088
0.359792798078
0.2910783812
0.220607021007
0.14910692295
0.0772557353559
0.00289394151218
-0.0788133552855
-0.168447262563
-0.263900810889
-0.360258714318
-0.424258113374
-0.403225338066
-0.316981245835
-0.282416166591
-0.36787801712
-0.522350418271
-0.689713348397
-0.851651035393
-1.0138761036
-1.18921399179
-1.39250512334
-1.63695780074
-1.93571050567
-2.3244740619
-2.80157944442
-3.35202460522
-3.88917938672
-4.34840014069
-4.6835652443
-4.89724853872
-5.00213963592
-5.02479564038
-4.98081187376
-4.87376471724
-4.68966550184
-4.41002056166
-4.02610635428
-3.55652142212
-3.0096092212
-2.35612076663
-1.60807469804
-0.821355906598
-0.118116564458
1.00473893682
3.27112632558
5.8720985665
7.13824493338
8.48609935211
10.4602993376
12.3797504303
13.5373469728
14.337101965
15.0411919153
15.748782
16.5116745659
17.3843449162
18.3861775694
19.5172951445
20.7122761549
21.7810061136
22.4006788248
22.1691363561
20.9460478401
18.9516480039
16.6518681158
14.2825182801
11.9213070228
9.81533998831
7.56956702463
5.15854938394
2.49980966186
-0.498924991041
-3.94581635796
-7.94168898261
-12.614132555
-18.0672901092
-24.4461114517
-31.8463875429
-40.4291448225
-50.2628518882
-61.5009880648
-74.1560423952
-88.3620241681
-104.117915223
-121.561594986
-140.727416904
-161.901561109
-184.952546261
-210.097246009
-237.223623859
-266.639781919
-298.727973007
-332.621824639
-371.248276601
-408.951721439
-456.30899962
-521.468782864
-609.479144042
-728.536000265
-879.566552555
-1041.29061489
-1261.11706542
-1329.74361565
-0.162534209802
0.193050441203
0.427340142674
0.500216946424
0.519651947034
0.524946466867
0.530460583197
0.542616051484
0.563696045307
0.59247557937
0.628028808913
0.669084438459
0.714890578563
0.764045657271
0.815488482943
0.867701749146
0.91987302847
0.970776247201
1.01992903469
1.06646152345
1.11020241094
1.15071811412
1.18809329928
1.22213474353
1.25308493359
1.2811748793
1.3064611217
1.32912207518
1.34923489675
1.36755021601
1.38401029781
1.39947305546
1.41404761824
1.42873409171
1.44312239995
1.45801153204
1.47285475347
1.48808916753
1.50309032929
1.51839158227
1.53332914322
1.54831089841
1.56281436068
1.57709746359
1.59081877759
1.60404363821
1.6162628909
1.62713760694
1.63648026572
1.64425253785
1.64964717054
1.65261241024
1.65293495429
1.65042600403
1.64379171594
1.63356427345
1.61887082626
1.60047034945
1.57785285011
1.55194383219
1.52324695098
1.49359999336
1.46384198534
1.43459245956
1.40575459895
1.37824879686
1.35222560118
1.32809388603
1.30590683724
1.28513937648
1.26459285394
1.24266787786
1.21718390916
1.1870940861
1.15102198248
1.10783479929
1.0586562051
1.00507916091
0.947148844019
0.884423335205
0.817406943333
0.746011493982
0.668577335474
0.582385477018
0.486369058304
0.381738082686
0.274396665258
0.194598099543
0.196573080839
0.25861180772
0.259833173802
0.140077199291
-0.0536666337075
-0.263240596002
-0.469873256129
-0.678093577519
-0.90012382227
-1.15128127184
-1.4421034309
-1.79613622775
-2.23445255909
-2.75220029374
-3.30278401009
-3.80466001217
-4.20071350107
-4.45744944055
-4.5874797664
-4.60265235258
-4.54512546345
-4.41698866792
-4.22876922155
-3.94282319478
-3.57567377436
-3.10042013026
-2.5515390671
-1.92918985995
-1.26467359281
-0.556227360408
0.797413949128
3.11059766179
5.89442873331
7.6483344323
8.45168368252
9.08077582189
10.368494332
12.1956342553
13.9359312437
15.0989969131
15.9030028732
16.5866630644
17.2504345626
17.9858265216
18.8310739267
19.8264644877
20.9545041949
22.1433028567
23.1540038399
23.6544363424
23.2784477043
21.9154582241
19.8348494796
17.4762816659
15.028072424
12.436024354
10.2140708752
7.84853191035
5.33881917469
2.60632901153
-0.453062860599
-3.9386326114
-7.96034161988
-12.6325565453
-18.0721679669
-24.4083213466
-31.7579979658
-40.2574422656
-49.9989502534
-61.1049354154
-73.6061641167
-87.6024486322
-103.056395981
-120.04634096
-138.720510644
-159.261209816
-181.555603356
-205.798456888
-231.645030696
-258.638611617
-284.914749137
-311.688734255
-343.649690205
-370.196414677
-394.245952255
-423.182178578
-462.792332008
-528.429324536
-651.445593666
-905.176342639
-1188.14197708
-1303.08193168
-0.0838003145195
0.841082180297
0.991615025111
0.826571867608
0.669007040356
0.560534229478
0.495785983164
0.46587155175
0.46259366901
0.478337393335
0.508276606234
0.548931810142
0.598167224691
0.653775574786
0.714119397296
0.777362819904
0.842323997965
0.907585486739
0.972378259679
1.03554954676
1.09670977582
1.15514612361
1.21064631437
1.2628411667
1.31182109357
1.35742592309
1.3997510373
1.43902478841
1.47528191038
1.50916580093
1.54074960935
1.57106881421
1.60000694487
1.62863477369
1.65682284105
1.6853230728
1.71358958824
1.74236470383
1.77098432629
1.79987959747
1.82844277451
1.8569998262
1.88503098283
1.9127326673
1.93973536135
1.96599007267
1.99107915967
2.01474933951
2.03631596295
2.05542382932
2.071466108
2.08374185005
2.091622651
2.09382801347
2.08900755415
2.07671198795
2.05547474543
2.02586240399
1.98756083345
1.94175570914
1.88912734489
1.83157337179
1.7696386484
1.70519376463
1.63912717355
1.57231065089
1.50568296935
1.44034177877
1.37648111705
1.31424822139
1.2525828018
1.19053740179
1.12710227155
1.0611693413
0.991512298006
0.918373065096
0.841960684928
0.763032135468
0.682143724626
0.599379117087
0.514939430652
0.428463629492
0.338934496346
0.244427595193
0.144384670063
0.0399541939039
-0.0634289103251
-0.134564277005
-0.125048951817
-0.0534558847209
-0.0377409125283
-0.141545205491
-0.316999013449
-0.505857306053
-0.689888549028
-0.872615848746
-1.06829679519
-1.2913605369
-1.55572929144
-1.89336989729
-2.30385705223
-2.77640859495
-3.2370804796
-3.62420212491
-3.88489259738
-4.00596843479
-3.9943131055
-3.88347644648
-3.70571481912
-3.47523380912
-3.16342170464
-2.76104771655
-2.27948224902
-1.74345366524
-1.19997803113
-0.565738264082
0.777648512378
2.86212052163
5.44885114165
7.50888098784
8.8448359406
9.36906009187
9.70028696097
10.4161410238
11.7426266282
13.4036174939
14.9590350239
16.1293757924
17.0164133833
17.7790536356
18.5131849996
19.3094773096
20.2127141617
21.2620371468
22.4462324588
23.6396955307
24.6049539371
24.9819804634
24.4845360021
23.040359404
20.9590114289
18.6343373205
16.1841336325
13.6416235875
11.4565840576
9.14582077816
6.69034770415
4.01087194029
1.00426507551
-2.43447246898
-6.4112243791
-11.0442006897
-16.4476525657
-22.7529706765
-30.0786856154
-38.5570515581
-48.2827857703
-59.3650499964
-71.832091905
-85.7632484415
-101.093780891
-117.864886581
-136.256198126
-156.431986046
-178.350738201
-202.292493241
-228.017088847
-255.04383167
-280.6343764
-306.404133129
-337.210933276
-361.394204618
-376.429019587
-385.118307819
-388.856079769
-398.695378813
-451.734513017
-670.392588945
-911.818750301
-990.201507242
0.232343622067
1.89868066988
1.55370292072
0.977467263191
0.643979247261
0.471544305932
0.389332295709
0.359202272005
0.361860399663
0.385550710057
0.424052707247
0.473562024732
0.531758898564
0.596503296175
0.666142162352
0.738930583023
0.813591754195
0.888648522159
0.963160655475
1.03597931916
1.10642211161
1.17359480341
1.23727114978
1.29684555221
1.3522292573
1.4032820893
1.45005298461
1.49271212337
1.53138855011
1.56677685721
1.59898513288
1.62900231673
1.65695665301
1.68397607215
1.70974733398
1.73531835122
1.76030999476
1.7853083026
1.80978817815
1.83425849441
1.85813574357
1.8817714456
1.90474926628
1.92731342292
1.9492259461
1.97056477966
1.99102437789
2.01030111668
2.02799781234
2.0435615238
2.05602121027
2.06469573487
2.06863004665
2.06610389624
2.05553563763
2.0375588445
2.0106106404
1.97532017391
1.93159632023
1.88113856571
1.82455222753
1.76394159693
1.70049585675
1.63552120606
1.56948999202
1.50392075497
1.43907077441
1.37537393232
1.31270357914
1.25058179066
1.18793720927
1.12388538525
1.05668002259
0.985970754042
0.911113138966
0.83186013794
0.748510837943
0.662111716353
0.573106170893
0.482189403452
0.389614247058
0.295245607761
0.198467304495
0.0982032038909
-0.00606334993667
-0.112852567275
-0.215854288742
-0.289421510359
-0.280378475947
-0.211007323601
-0.196539904501
-0.296154050032
-0.465874652984
-0.647200219871
-0.820476110866
-0.987270101533
-1.1621763535
-1.35966871609
-1.60360698591
-1.91132453692
-2.27666729287
-2.66052286272
-2.99038804985
-3.21824367879
-3.29873362714
-3.24518187212
-3.05944580486
-2.78896510322
-2.45777781538
-2.08153109781
-1.62769298228
-1.15288509341
-0.621473244774
0.106722888079
1.30173727526
3.07156893954
5.18768257219
7.08392269354
8.69848321203
9.60951004953
10.0312340853
10.1905590708
10.598248605
11.4745938688
12.7995604435
14.2985610768
15.7229539501
16.8817337254
17.8409179035
18.6698569888
19.4821482232
20.3330523158
21.3010058297
22.3995201886
23.6253759471
24.7944182027
25.6577357477
25.8841665415
25.2325844443
23.7189531487
21.6478371203
19.3623928282
16.8613126864
14.4662214771
12.3020592781
10.0388046663
7.62483946091
4.98573156826
2.0169074918
-1.38136158101
-5.31946248925
-9.90662467995
-15.2661683284
-21.517436354
-28.7935877584
-37.2103476623
-46.8857077077
-57.9036378123
-70.3242904304
-84.187723831
-99.4778949319
-116.186483627
-134.495211752
-154.534350847
-176.375666255
-200.282285652
-226.262394768
-254.152985808
-281.890253422
-310.226117707
-342.810245448
-370.093595351
-388.832277417
-398.432202176
-395.88126376
-383.839897349
-385.296237163
-506.011818221
-658.606554741
-677.643694056
0.818423269764
3.16197693416
1.90571382816
0.947309692315
0.556255022721
0.395898123888
0.333385303911
0.315214404067
0.324130493444
0.350812411654
0.39055662739
0.440344995831
0.498088665009
0.561880422616
0.630112051771
0.70121527638
0.773905727044
0.846889033186
0.919195749561
0.989708616681
1.05784427228
1.12282151015
1.18426838511
1.24173856799
1.29523486822
1.34453285423
1.38977940247
1.43123819151
1.46907662686
1.50394534255
1.53602106195
1.5663568205
1.59488644318
1.62268249574
1.64967651063
1.67672002088
1.7033758654
1.73045024705
1.75739412208
1.78466330138
1.81177314818
1.83905348078
1.86609518901
1.8931064774
1.91978675581
1.94608369521
1.97163043964
1.9960695473
2.01866011193
2.03867666887
2.0552275187
2.0672099217
2.07361055486
2.07293782802
2.06122013916
2.0405822732
2.00909588977
1.96718387826
1.91466852533
1.85313224232
1.78371093729
1.70885658391
1.62957113947
1.54832771506
1.46648179397
1.38513984612
1.30522992305
1.2275998758
1.15197942254
1.07812254574
1.00479255988
0.931090547369
0.856052983885
0.778888035926
0.698639058648
0.615694956533
0.529837450365
0.441575123607
0.35140228031
0.260010929466
0.167403689762
0.073752829882
-0.0215396374678
-0.118912774376
-0.218403601704
-0.318183667278
-0.413632634353
-0.477099146588
-0.461985494841
-0.387721503883
-0.361657757404
-0.447122661452
-0.596643208801
-0.754399867057
-0.89758865246
-1.02700744146
-1.15587888413
-1.30188637005
-1.49127812691
-1.72337230336
-1.98831392527
-2.21720050396
-2.35460134226
-2.35611954358
-2.22084533421
-1.95978171223
-1.61253486274
-1.19545606198
-0.773836617092
-0.267309434583
0.373924968314
1.26297284129
2.40815220725
3.83645470434
5.36667370514
6.950733043
8.4123546308
9.50640539068
10.1960234006
10.4350816978
10.5491884792
10.7852902754
11.3768889924
12.3673363363
13.6498721785
15.0400849695
16.3694313711
17.5257859153
18.5288914662
19.429882375
20.3156836033
21.2479541565
22.2929398174
23.4747727546
24.726678618
25.8655120711
26.5997064117
26.666989696
25.8807603705
24.3266044676
22.2810102055
20.0261633006
17.4180156363
15.2624137591
13.1380850542
10.9331164208
8.57811654089
5.98896019913
3.06793341766
-0.284874962744
-4.17569640872
-8.71569278522
-14.0230198599
-20.2226670546
-27.4405597115
-35.8039795581
-45.4258875824
-56.4063217747
-68.8052901816
-82.6733266496
-98.0165936578
-114.841708274
-133.261877224
-153.40695773
-175.369935907
-199.351913508
-225.482518282
-253.910473622
-283.848763361
-315.014569569
-349.405393828
-380.41637716
-407.32474041
-429.109725067
-441.161751829
-440.312772376
-430.981543998
-466.884696932
-546.67013566
-536.776981776
1.64239303431
4.36835410782
2.0008762465
0.872266707648
0.540823092852
0.41617960843
0.365131680668
0.34192661151
0.34223901188
0.359535267461
0.390060931894
0.430788471331
0.479251362401
0.533508861785
0.591779710564
0.652659837599
0.714836782482
0.777222024007
0.838872849306
0.8990107826
0.95699921015
1.01225088999
1.06458265199
1.11363916005
1.15943096584
1.20199560342
1.24150462864
1.27823959253
1.31240535251
1.34468252522
1.37518853929
1.4047745477
1.43345266358
1.46218358177
1.49054034669
1.51943483986
1.5483821635
1.57789717833
1.60739736655
1.63733153827
1.66705690387
1.69684251381
1.72617206833
1.75518158712
1.7834426412
1.81088751939
1.83700289168
1.86131349983
1.88316571119
1.90174787567
1.91611898356
1.92518451902
1.92795481311
1.92343468901
1.90774963669
1.88143664663
1.84458716873
1.79708529867
1.73911399292
1.67269255698
1.59880352866
1.51984588427
1.4376483026
1.35401128365
1.26993377026
1.18718615231
1.10628061559
1.02751341304
0.950740404161
0.875357836473
0.800472257721
0.725344757849
0.648766656115
0.570588309096
0.49042077337
0.408045810385
0.323475654204
0.237258069542
0.149924759375
0.0620507889648
-0.0263348167769
-0.11478899457
-0.204048971513
-0.29310699814
-0.383229231185
-0.470126378674
-0.551043612716
-0.599479314332
-0.570817965724
-0.485454507614
-0.446213568809
-0.5028801657
-0.614725292184
-0.72990424077
-0.822731467234
-0.884917028
-0.922271100431
-0.959726721908
-1.01467621976
-1.09098483358
-1.16318800334
-1.1774660716
-1.10014543295
-0.912463949778
-0.623483238971
-0.227233493218
0.25460773746
0.948658591951
1.74723219509
2.72473769831
3.81324723227
4.91410999088
6.02597922206
7.21414614106
8.35314924485
9.38112652848
10.1234596236
10.5499485759
10.7154113932
10.7668033612
10.9246914493
11.3510387618
12.0888941052
13.1382457405
14.3682125536
15.6829137939
16.9376933549
18.08989512
19.1137204601
20.0787928189
21.0258342467
22.0432903307
23.1630287722
24.4168037034
25.6674824949
26.7202477975
27.2996679777
27.1842324746
26.2819999737
24.7076319605
22.7063395158
20.4499701071
17.8726999248
15.9013489207
13.8515269673
11.717712014
9.4321183788
6.9017712479
4.03628209616
0.734486039305
-3.10308253441
-7.59164484221
-12.842063819
-18.9873816722
-26.1449172461
-34.4569250165
-44.0286429612
-54.9831160072
-67.3746183545
-81.2777392899
-96.7035781953
-113.69522097
-132.294088379
-152.643632228
-174.789658751
-198.865514805
-224.959891821
-253.354574184
-284.263936642
-316.819702472
-351.740436764
-384.550357329
-417.494042787
-451.062739989
-481.724612757
-504.807012204
-512.645731613
-508.784479486
-554.686367292
-552.676577774
2.59477991225
5.29357893097
1.93991847504
0.882048533107