/*--------------------------------*- C++ -*----------------------------------*\
| =========                 |                                                 |
| \\      /  F ield         | OpenFOAM: The Open Source CFD Toolbox           |
|  \\    /   O peration     | Version:  v1806                                 |
|   \\  /    A nd           | Web:      www.OpenFOAM.com                      |
|    \\/     M anipulation  |                                                 |
\*---------------------------------------------------------------------------*/
FoamFile
{
    version     2.0;
    format      ascii;
    class       volVectorField;
    location    "27";
    object      U;
}
// * * * * * * * * * * * * * * * * * * * * * * * * * * * * * * * * * * * * * //

dimensions      [0 1 -1 0 0 0 0];


internalField   nonuniform List<vector> 
12225
(
(9.73870737015 0.0400140501581 0)
(9.50182783874 0.040812453669 0)
(9.24465910475 0.0403380890733 0)
(8.99193437254 0.0406965743895 0)
(8.75148936199 0.0407090443411 0)
(8.52206762672 0.0404108373642 0)
(8.30201384599 0.0400080562018 0)
(8.09047568448 0.0395984297986 0)
(7.88672918547 0.0392350594259 0)
(7.68988972123 0.038966798717 0)
(7.49892061374 0.0388438342547 0)
(7.31263904119 0.0389241504221 0)
(7.12965216144 0.0392838998437 0)
(6.94823767774 0.0400386522133 0)
(6.76611610744 0.0413863374189 0)
(6.57987340295 0.043749041279 0)
(6.38379482931 0.0483152784078 0)
(6.15867792368 0.0558870556603 0)
(10.0162950344 0.0715107990037 0)
(10.0354324712 0.0699545826574 0)
(10.0213366867 0.067581178889 0)
(9.99136530566 0.0685370852707 0)
(9.95459691133 0.069509081376 0)
(9.9120550404 0.0702118693079 0)
(9.86382174374 0.0709508214728 0)
(9.81042644486 0.0718472785756 0)
(9.75235684865 0.0729572517174 0)
(9.68981750773 0.0743579871437 0)
(9.62274513428 0.0761544788297 0)
(9.55082114253 0.0784897176802 0)
(9.47341958896 0.0815699644702 0)
(9.38949214144 0.0857197482763 0)
(9.29735578865 0.0914992791133 0)
(9.19418657463 0.100025383495 0)
(9.07667539581 0.11402908007 0)
(8.92808426827 0.143258940691 0)
(10.0209877402 0.0583899533179 0)
(10.0523070115 0.058626772308 0)
(10.0649477932 0.0573977304336 0)
(10.0672143738 0.0603571234814 0)
(10.0662118052 0.0635534283551 0)
(10.0624375236 0.0663832630813 0)
(10.055269798 0.0692113544494 0)
(10.0445973141 0.072221384479 0)
(10.0304379812 0.0755104514542 0)
(10.0126721222 0.0792108158737 0)
(9.99103398767 0.083503987193 0)
(9.96512565055 0.0886357845379 0)
(9.93438312785 0.0949565786549 0)
(9.89800834888 0.103005549452 0)
(9.85488738699 0.113680026679 0)
(9.80350334663 0.128609377997 0)
(9.74309937387 0.151068729568 0)
(9.66799829663 0.185423564303 0)
(10.0157554977 0.0480898951726 0)
(10.0422125558 0.0559684716708 0)
(10.0567274404 0.0581256534927 0)
(10.0622295991 0.0625868354014 0)
(10.0649654932 0.0668836551963 0)
(10.0659562774 0.0705308687532 0)
(10.0646911204 0.0740346622836 0)
(10.0610005966 0.0777212918286 0)
(10.0548716502 0.0817734552363 0)
(10.0461866364 0.086384181714 0)
(10.0347080282 0.0917950394737 0)
(10.0201097625 0.0983201908268 0)
(10.0019756981 0.106394992145 0)
(9.97978645807 0.116666925943 0)
(9.95294588634 0.130153532528 0)
(9.92091512899 0.148507541784 0)
(9.88421917681 0.174407938017 0)
(9.84137244286 0.210114789459 0)
(10.0114020675 0.0401519179386 0)
(10.0327053632 0.0521926293469 0)
(10.0464842912 0.0557439917104 0)
(10.0523510526 0.0601708763631 0)
(10.0552911907 0.0646595256619 0)
(10.0566336802 0.0687073300613 0)
(10.0560171085 0.072734471899 0)
(10.0532565989 0.0770904273336 0)
(10.0483458852 0.0819782828179 0)
(10.0412113175 0.0876031290866 0)
(10.0316804271 0.0942280442944 0)
(10.0195202319 0.102200833872 0)
(10.0044577775 0.111998975155 0)
(9.98620197517 0.12430800917 0)
(9.96452166492 0.140137435682 0)
(9.9394374732 0.160959646205 0)
(9.91191443413 0.188787321139 0)
(9.88200757764 0.225050350996 0)
(10.008240985 0.0338585766416 0)
(10.0251851594 0.0481901640832 0)
(10.0377800563 0.0535750319656 0)
(10.0437740768 0.0587772930181 0)
(10.0467361626 0.0641164439192 0)
(10.0480794014 0.0691023346129 0)
(10.0475986321 0.0740438160479 0)
(10.045105128 0.0793142279801 0)
(10.0405868815 0.0851626071126 0)
(10.0340012758 0.0918283142191 0)
(10.0252294429 0.0996080396929 0)
(10.014115295 0.108883762644 0)
(10.000500798 0.120159247985 0)
(9.98426783359 0.134118224442 0)
(9.96543195469 0.15169403198 0)
(9.94432061648 0.174113625775 0)
(9.92201750727 0.202827773922 0)
(9.8991201916 0.238767295483 0)
(10.005917467 0.0288938914876 0)
(10.0192831994 0.0442975857294 0)
(10.0304858266 0.0513551765977 0)
(10.0364255471 0.0572773822297 0)
(10.0393859992 0.0631827393015 0)
(10.040708581 0.0687913981797 0)
(10.040338209 0.0743702921006 0)
(10.0381004935 0.080318528344 0)
(10.0339733915 0.0869326378027 0)
(10.0279376336 0.0944829397059 0)
(10.019923134 0.10328704928 0)
(10.0098440825 0.113739928576 0)
(9.99764258162 0.126341421669 0)
(9.98333953425 0.141732703961 0)
(9.9671238025 0.160726282952 0)
(9.9494910106 0.184289863756 0)
(9.93151322203 0.213422999062 0)
(9.91391999181 0.248661759431 0)
(10.0042464163 0.0249826823111 0)
(10.0147275857 0.0406533693963 0)
(10.0244771147 0.0490841014391 0)
(10.0302170777 0.0557656791238 0)
(10.0331908296 0.0622666461383 0)
(10.0345488626 0.0685690236571 0)
(10.0343484177 0.0749082518435 0)
(10.0324425885 0.0816700342302 0)
(10.0288023924 0.0891720323381 0)
(10.0234296029 0.0977007971131 0)
(10.016302145 0.107579657994 0)
(10.0074018499 0.119198265194 0)
(9.99676018792 0.133029881196 0)
(9.98450967617 0.149647625994 0)
(9.97095785826 0.169724314169 0)
(9.95668253584 0.19398497134 0)
(9.94268285247 0.223079086679 0)
(9.92971513712 0.257246274892 0)
(10.003046109 0.0218938857243 0)
(10.0112418421 0.0373379595653 0)
(10.0195879178 0.0468065968559 0)
(10.0250163618 0.054235405316 0)
(10.0280025652 0.0613151201979 0)
(10.0294417862 0.0682607648579 0)
(10.0294590244 0.0753023192957 0)
(10.0279459671 0.0828048492209 0)
(10.0248757085 0.0911000493374 0)
(10.0202707957 0.100488881633 0)
(10.0141547528 0.111295258028 0)
(10.0065715017 0.123892718759 0)
(9.99762794244 0.138713136133 0)
(9.98753982079 0.156247134168 0)
(9.97668644008 0.17702499996 0)
(9.96566726917 0.201558568087 0)
(9.95537330214 0.230231933017 0)
(9.94653442649 0.263074097019 0)
(10.0021898736 0.0194416855772 0)
(10.0086053655 0.0343787090026 0)
(10.0156720163 0.0445589687257 0)
(10.0207217577 0.0526699724602 0)
(10.0237171353 0.0603051348612 0)
(10.0252874691 0.0678553577272 0)
(10.0255832333 0.0755703005513 0)
(10.0245371031 0.0837933827199 0)
(10.0221314355 0.0928569917793 0)
(10.0184075234 0.103064528202 0)
(10.0134282568 0.11472796655 0)
(10.0072899097 0.128189918733 0)
(10.0001575927 0.143826094798 0)
(9.99230180265 0.162034937584 0)
(9.98413409732 0.183209535796 0)
(9.97623424997 0.207681562743 0)
(9.96936910361 0.235638243659 0)
(9.96425247338 0.266968798698 0)
(10.0015805116 0.0174806389481 0)
(10.0066324849 0.0317787245963 0)
(10.0125886277 0.0423875468773 0)
(10.017241251 0.05107310872 0)
(10.0202492409 0.0592172921657 0)
(10.0220016571 0.0673156797525 0)
(10.0226403219 0.0756446136409 0)
(10.0221338906 0.0845248391791 0)
(10.0204791034 0.0942763614035 0)
(10.0177341399 0.105193581977 0)
(10.0139939483 0.117567187935 0)
(10.009395695 0.131700086361 0)
(10.0041447816 0.147904913759 0)
(9.99854054839 0.166488668287 0)
(9.99299555796 0.187722074616 0)
(9.98804244342 0.211793256675 0)
(9.98431899102 0.238750018169 0)
(9.98252302232 0.268401010228 0)
(10.0011822858 0.0159887172314 0)
(10.0052953432 0.0296518168844 0)
(10.0104029105 0.0404596288461 0)
(10.0147115776 0.0495695303754 0)
(10.0177448228 0.0581305136837 0)
(10.0197124511 0.0666774219333 0)
(10.0207275739 0.075508127094 0)
(10.0207832711 0.0849239798382 0)
(10.0198910434 0.0952262186991 0)
(10.0181218484 0.106692850845 0)
(10.0155915469 0.119588464435 0)
(10.0124618519 0.134173676457 0)
(10.0089577989 0.150701235948 0)
(10.0053835255 0.169397627291 0)
(10.0021303817 0.190436989743 0)
(9.99967325798 0.213903424031 0)
(9.99853867466 0.239754534189 0)
(9.99941918807 0.267752409323 0)
(10.0008924611 0.0147634862649 0)
(10.0042888701 0.0277740148183 0)
(10.0087025861 0.0386009231684 0)
(10.0127091934 0.0480077291818 0)
(10.015784477 0.0569131812525 0)
(10.0180020085 0.0658394255526 0)
(10.0194390489 0.0750948401097 0)
(10.0201056595 0.0849623032604 0)
(10.020028402 0.0957189586328 0)
(10.0192896085 0.107619068684 0)
(10.0180199856 0.120895662101 0)
(10.0163974414 0.135765370464 0)
(10.0146555344 0.152422312931 0)
(10.0130913978 0.171021550796 0)
(10.0120648096 0.19165694007 0)
(10.0119877414 0.214334253023 0)
(10.0132778124 0.238948089646 0)
(10.0166268421 0.265234560417 0)
(10.0006620366 0.0135721451474 0)
(10.0034743363 0.0258456922368 0)
(10.0072977742 0.0365426195375 0)
(10.0110521154 0.0461453098571 0)
(10.0142258641 0.0553437446059 0)
(10.0167895718 0.0646092218606 0)
(10.0187791241 0.0742448395502 0)
(10.0202133591 0.0845104153755 0)
(10.0211315055 0.0956506753844 0)
(10.0216232508 0.107886115879 0)
(10.0218264448 0.121409393872 0)
(10.021922872 0.136386611373 0)
(10.0221398019 0.152949198574 0)
(10.0227499535 0.171182917484 0)
(10.0240648811 0.191109671697 0)
(10.0264216748 0.212673572464 0)
(10.0301289272 0.235729028282 0)
(10.035884371 0.260015440893 0)
(10.0004952358 0.0124018107523 0)
(10.0028829598 0.0238545452226 0)
(10.0062715148 0.0342433901869 0)
(10.0098747068 0.0438748265714 0)
(10.0132377106 0.053241673916 0)
(10.0162684559 0.0627373499072 0)
(10.0189639975 0.0726391161708 0)
(10.0213432963 0.0831749637007 0)
(10.0234526427 0.0945493903103 0)
(10.0253831582 0.106939227585 0)
(10.0272693535 0.120489922149 0)
(10.0292828183 0.135311848453 0)
(10.0316283455 0.151476266804 0)
(10.0345383146 0.169005211888 0)
(10.0382628801 0.187864077217 0)
(10.0430580754 0.207952823546 0)
(10.0491267147 0.229106911636 0)
(10.0571760026 0.251080252643 0)
(10.0003946047 0.0112029037617 0)
(10.0025356498 0.0217192574772 0)
(10.0056951676 0.0315848912582 0)
(10.0093124454 0.041013009138 0)
(10.0130066931 0.0503429350649 0)
(10.0166591362 0.0598769100337 0)
(10.0202361528 0.0698453518735 0)
(10.023749073 0.080433390348 0)
(10.0272422672 0.091797461073 0)
(10.0307992842 0.104064102385 0)
(10.0345385909 0.117326513687 0)
(10.03860698 0.131641035626 0)
(10.043171341 0.147024414404 0)
(10.0484113025 0.163449085672 0)
(10.054508435 0.180840898616 0)
(10.0616381206 0.199077822033 0)
(10.0699074405 0.217994393609 0)
(10.0800343118 0.237373965546 0)
(10.0003606752 0.00987413629378 0)
(10.0024443535 0.019261733803 0)
(10.0056228908 0.0283220346294 0)
(10.0094820891 0.0372267460435 0)
(10.0137050318 0.0462030064715 0)
(10.0181679454 0.05546173635 0)
(10.0228159802 0.0651713337878 0)
(10.0276464745 0.0754644288422 0)
(10.0326915681 0.086444063395 0)
(10.0380156711 0.0981843938111 0)
(10.0437093718 0.110727423897 0)
(10.0498812296 0.124082494809 0)
(10.0566496557 0.138223783337 0)
(10.0641347295 0.153091658319 0)
(10.0724496852 0.168591922943 0)
(10.0816961516 0.184600550139 0)
(10.0919015477 0.200967410766 0)
(10.1037943244 0.217515095818 0)
(10.0003915223 0.00824338079481 0)
(10.0026131202 0.0161744043082 0)
(10.0060877882 0.0240451127566 0)
(10.0104642504 0.0320074497906 0)
(10.0154551969 0.0402037893512 0)
(10.0209354267 0.0487584209688 0)
(10.0268340805 0.0577707679732 0)
(10.0331298002 0.0673148348422 0)
(10.0398326442 0.077439574922 0)
(10.0469781036 0.0881688829645 0)
(10.0546196589 0.0995008456133 0)
(10.0628207503 0.111407867012 0)
(10.0716476616 0.123837237445 0)
(10.0811627979 0.136713056066 0)
(10.0914187305 0.149938809294 0)
(10.1024572138 0.163401442545 0)
(10.1142458773 0.176976338168 0)
(10.1275222554 0.190526030808 0)
(10.0005034561 0.00599575486787 0)
(10.0030963836 0.011872023952 0)
(10.0072008965 0.0179583079978 0)
(10.0124299291 0.0243845276371 0)
(10.0184729102 0.0312075290855 0)
(10.0251933898 0.0384625553528 0)
(10.0325065608 0.0461772982364 0)
(10.0403698367 0.0543677651447 0)
(10.0487650027 0.063033028879 0)
(10.0576932596 0.0721554463194 0)
(10.0671681699 0.0817007243742 0)
(10.0772083929 0.0916193112425 0)
(10.0878320004 0.101847038835 0)
(10.0990518329 0.112307667182 0)
(10.1108718432 0.122915159469 0)
(10.1232888017 0.133577350083 0)
(10.1362283272 0.144199243124 0)
(10.1504278372 0.154682721635 0)
(10.0006867057 0.00344788568894 0)
(10.0038285854 0.0069996506544 0)
(10.0087887875 0.011072317599 0)
(10.0150182673 0.0157548009402 0)
(10.0221280906 0.0209979162895 0)
(10.0299722198 0.0267466592972 0)
(10.0384680765 0.0329691109576 0)
(10.0475620706 0.0396365123636 0)
(10.0572160566 0.0467129111397 0)
(10.0674082751 0.0541538892311 0)
(10.0781275496 0.0619090406026 0)
(10.08936587 0.0699207861934 0)
(10.1011137343 0.0781259411386 0)
(10.1133571884 0.0864557461025 0)
(10.1260757653 0.0948392009449 0)
(10.1392456559 0.103204074912 0)
(10.1527761707 0.111480762825 0)
(10.1673929047 0.119600501156 0)
(10.0008992049 0.000937268743883 0)
(10.0046739995 0.0022861059357 0)
(10.0105560423 0.00457354125043 0)
(10.0177464108 0.00777769348607 0)
(10.0257662404 0.0116902308316 0)
(10.0344922775 0.0161669780665 0)
(10.0438677447 0.0211346441704 0)
(10.0538395211 0.0265344082853 0)
(10.0643596854 0.0323052309388 0)
(10.0753968594 0.0383861870499 0)
(10.0869290884 0.0447186454905 0)
(10.0989355348 0.0512430398729 0)
(10.1113924167 0.0578988912163 0)
(10.1242722566 0.0646240765316 0)
(10.1375426575 0.0713572440218 0)
(10.1511709407 0.0780379563292 0)
(10.165060352 0.0846091677831 0)
(10.1799421725 0.091015590256 0)
(10.0012043968 -0.00177985819168 0)
(10.0058494241 -0.00264751563726 0)
(10.0128622008 -0.00195173511804 0)
(10.0210632296 1.2387856125e-05 0)
(10.0299158285 0.00279621255354 0)
(10.0393869609 0.00618024265549 0)
(10.0494708514 0.010070752336 0)
(10.0601160456 0.0143881891974 0)
(10.0712696485 0.0190526118203 0)
(10.0828993276 0.023995077952 0)
(10.0949807144 0.0291546655602 0)
(10.1074870765 0.0344742221937 0)
(10.1203870672 0.0398966971217 0)
(10.1336455631 0.0453666652359 0)
(10.1472230958 0.0508294574885 0)
(10.1610802908 0.056233729688 0)
(10.1751147798 0.0615310922769 0)
(10.1900425901 0.0666784749451 0)
(10.0016809477 -0.00483910614629 0)
(10.0075528761 -0.00790242017963 0)
(10.015947276 -0.00849451210702 0)
(10.025174873 -0.00749081628502 0)
(10.0347651219 -0.0056477152992 0)
(10.0448733838 -0.00320844249333 0)
(10.0555515692 -0.00026219658394 0)
(10.0667434539 0.00308827773663 0)
(10.0783979047 0.0067468764787 0)
(10.0904912606 0.010640539271 0)
(10.1030011308 0.0147138711732 0)
(10.1158972009 0.0189166560083 0)
(10.1291431154 0.023201240412 0)
(10.1426986102 0.0275217902295 0)
(10.156520294 0.0318339133594 0)
(10.170566962 0.0360941307954 0)
(10.1847388478 0.0402602604441 0)
(10.1997661755 0.0442917870136 0)
(10.0024114639 -0.00842646899606 0)
(10.0100329608 -0.0135368028666 0)
(10.0200709197 -0.0149498963415 0)
(10.0302588775 -0.0145851639152 0)
(10.0404416329 -0.0134596967313 0)
(10.0510562686 -0.0117293719436 0)
(10.062190942 -0.0094680723996 0)
(10.0737750378 -0.00681033611401 0)
(10.0857685254 -0.00386729660559 0)
(10.0981609379 -0.000708873235383 0)
(10.1109363445 0.00261070971622 0)
(10.1240650994 0.00604304444145 0)
(10.1375114987 0.0095414578192 0)
(10.1512334813 0.0130644000022 0)
(10.1651825364 0.0165739796752 0)
(10.1793098333 0.0200320459097 0)
(10.1935060013 0.0234006064562 0)
(10.2084716134 0.0266420106679 0)
(10.0036500975 -0.0128280518289 0)
(10.0137417741 -0.0195753845382 0)
(10.0256243722 -0.0212166015166 0)
(10.0366179917 -0.0212773123037 0)
(10.0472814368 -0.0208348197554 0)
(10.0583677018 -0.0198453523122 0)
(10.0699311037 -0.018360996211 0)
(10.0818719137 -0.0165283557232 0)
(10.0941706109 -0.0144465519622 0)
(10.1068364983 -0.0121702202795 0)
(10.1198582032 -0.00974156549365 0)
(10.1332061356 -0.00720012100498 0)
(10.1468406767 -0.00457901526889 0)
(10.1607178439 -0.00191000326129 0)
(10.1747873025 0.000774916891371 0)
(10.1889978407 0.00344210169187 0)
(10.2032403978 0.00605112196456 0)
(10.2182429934 0.00854768239722 0)
(10.005515263 -0.0183994755951 0)
(10.018993781 -0.0258828773031 0)
(10.032726061 -0.027024577521 0)
(10.0441858008 -0.0271004627122 0)
(10.0551038426 -0.0268163479533 0)
(10.0664949376 -0.0259607816183 0)
(10.0783221165 -0.0246669579427 0)
(10.0904704698 -0.0231191186001 0)
(10.102950335 -0.0214048582897 0)
(10.1157853027 -0.0195628090084 0)
(10.1289643946 -0.0176225160648 0)
(10.142456475 -0.0156105320843 0)
(10.1562230207 -0.0135485305954 0)
(10.1702188082 -0.0114553128496 0)
(10.1843886057 -0.00934834682 0)
(10.1986686924 -0.0072473916598 0)
(10.2129239212 -0.00518511066086 0)
(10.2278057284 -0.00322483039051 0)
(10.0086933791 -0.0256359500839 0)
(10.0266630919 -0.0323184120015 0)
(10.0421064 -0.0330628435958 0)
(10.0538671309 -0.0340279462062 0)
(10.0650831226 -0.0346895793189 0)
(10.0767932486 -0.0346190382824 0)
(10.0888309845 -0.034047509489 0)
(10.1011054315 -0.0331866969749 0)
(10.1136713913 -0.032121570746 0)
(10.1265681835 -0.030896476095 0)
(10.1397886364 -0.029549865052 0)
(10.1533056759 -0.0281129659415 0)
(10.1670849219 -0.0266080957656 0)
(10.1810839894 -0.0250505866656 0)
(10.1952490557 -0.0234496854185 0)
(10.2095121747 -0.0218090038635 0)
(10.2237175666 -0.0201396687526 0)
(10.2384744986 -0.0185086325339 0)
(10.0129925725 -0.0350181322953 0)
(10.0361967548 -0.0368993664762 0)
(10.0520988648 -0.0348148119193 0)
(10.0632547698 -0.0349724184717 0)
(10.0741390747 -0.0353597383871 0)
(10.0854568054 -0.0353116433801 0)
(10.096874558 -0.035009154338 0)
(10.1083442991 -0.0345733457419 0)
(10.1199662479 -0.0340223007252 0)
(10.1317991803 -0.0333642221147 0)
(10.1438518348 -0.0326153394493 0)
(10.1561155908 -0.0317904254782 0)
(10.1685750338 -0.0308996505128 0)
(10.181206829 -0.0299477301931 0)
(10.1939772911 -0.0289299896857 0)
(10.2068349587 -0.0278209849173 0)
(10.2196106569 -0.0265634576635 0)
(10.2326575912 -0.0250669411051 0)
(10.0164921537 -0.0491543523918 0)
(10.0405857578 -0.0504363439153 0)
(10.0477839344 -0.0481606734132 0)
(10.0476446318 -0.0479549213994 0)
(10.0462564554 -0.0477945972214 0)
(10.0442285939 -0.0472797555457 0)
(10.0413850351 -0.0466185092996 0)
(10.0379568853 -0.0459073088156 0)
(10.0342707052 -0.0451573597441 0)
(10.0305577157 -0.0443735069968 0)
(10.0269694199 -0.0435646280338 0)
(10.0236184609 -0.0427371158933 0)
(10.0205906741 -0.0418937486747 0)
(10.017949061 -0.0410331221886 0)
(10.015742353 -0.0401444770498 0)
(10.014017999 -0.0391878450553 0)
(10.0127637068 -0.0380513562749 0)
(10.0121114921 -0.0360501327277 0)
(9.85296014969 -0.0291583570196 0)
(9.7243884095 -0.0314070023804 0)
(9.58118338298 -0.0314429093835 0)
(9.43977138302 -0.0319404236847 0)
(9.30646801595 -0.0321497580729 0)
(9.18086107997 -0.0320259540062 0)
(9.06204530433 -0.0317226229303 0)
(8.94970876294 -0.0313193979489 0)
(8.84368298508 -0.0308490078372 0)
(8.74373248015 -0.0303333928986 0)
(8.64957799142 -0.0297899039963 0)
(8.56093757101 -0.029230561134 0)
(8.47753568496 -0.0286632229997 0)
(8.39910430746 -0.0280921231601 0)
(8.32539263599 -0.0275161883312 0)
(8.25618631599 -0.0269179166572 0)
(8.19153183732 -0.0262316374739 0)
(8.12997552772 -0.0247968381882 0)
(0.000325667564135 -0.137960701516 2.39965972618e-20)
(0.0882778871716 -0.151264838006 0)
(-0.127636132915 0.193114709207 0)
(-0.315463644577 0.270249036603 0)
(-0.512521508709 0.283820083934 0)
(-0.729538584349 0.288681755498 -6.80867798613e-21)
(-0.959682779928 0.291204303669 0)
(-1.19912611242 0.29217699234 0)
(-1.44547575563 0.291804519452 8.08418841436e-21)
(-1.69693621337 0.290207344527 0)
(-1.95194663139 0.287483214063 -9.62467223394e-21)
(-2.20910371603 0.283719928647 0)
(-2.46711409231 0.279001201017 -1.13322950085e-20)
(-2.72477485581 0.273407622858 -1.22075215399e-20)
(-2.98095960754 0.267018498386 0)
(-3.23461479605 0.259911745361 1.39515133272e-20)
(-3.48475605819 0.252165173457 1.48064042893e-20)
(-3.73046959182 0.243856187301 1.56427188002e-20)
(-3.97091241004 0.235062761402 0)
(-4.20531551759 0.225862997376 0)
(-4.43298604094 0.216335840807 0)
(-4.65331109855 0.206560525303 0)
(-4.86576060959 0.196617000441 0)
(-5.06989109578 0.186585101798 0)
(-5.26534846438 0.176544560721 -2.0709880346e-20)
(-5.4518707987 0.166573773059 -2.13009345889e-20)
(-5.62928979809 0.156749193214 0)
(-5.79753121557 0.147143595882 2.23797157701e-20)
(-5.9566131778 0.137824933903 2.28688218273e-20)
(-6.10664264727 0.12885421916 2.33257667421e-20)
(-6.24780932295 0.120284103035 0)
(-6.38037713175 0.112156848912 0)
(-6.50467301685 0.104503254429 -2.45169297755e-20)
(-6.62107369534 0.0973412982618 0)
(-6.7299906295 0.0906759788175 0)
(-6.83185410702 0.0844991723375 -2.54683602915e-20)
(-6.92709694027 0.078790786146 0)
(-7.01613910145 0.073519921691 0)
(-7.09937392092 0.0686472654286 0)
(-7.17715690627 0.0641272976617 0)
(-7.24979760068 0.0599113824699 0)
(-7.31755511424 0.0559502353588 5.35637107568e-20)
(-7.38063722325 0.0521969753014 0)
(-7.43920338724 0.0486092295658 0)
(-7.49337069948 0.0451512819838 5.43815161555e-20)
(-7.54322249632 0.0417948044532 5.4590640146e-20)
(-7.58881812457 0.0385195019405 0)
(-7.63020382594 0.0353129529043 0)
(-7.66742364073 0.0321703368624 5.50488390648e-20)
(-7.7005281159 0.0290918675423 0)
(-7.72958034403 0.0260805586225 -5.52267318508e-20)
(-7.75465868764 0.0231400130945 0)
(-7.77585774115 0.0202745817949 5.5309970554e-20)
(-7.79328511926 0.01748536878 0)
(-7.80705367983 0.0147671449161 5.52971339348e-20)
(-7.81727121632 0.0121125962258 5.52516963454e-20)
(-7.82404525313 0.00953723676328 0)
(-7.82749692754 0.00707160537493 0)
(-7.82775627511 0.00473812693538 0)
(-7.82496104055 0.00254578855171 5.47020462087e-20)
(-7.81923365786 0.000490840398851 0)
(-7.81067818032 -0.00143774957714 0)
(-7.79938270254 -0.00325013133645 0)
(-7.78542686665 -0.00495627100659 0)
(-7.76888907558 -0.00656327956796 0)
(-7.74985280009 -0.00807309936235 0)
(-7.72841324992 -0.00948218831773 0)
(-7.70468336012 -0.010784952841 -5.20091292072e-20)
(-7.6787968684 -0.0119735956127 0)
(-7.6509080958 -0.0130410631775 -5.10218876375e-20)
(-7.62118873154 -0.013981521683 -5.04887443583e-20)
(-7.58982162349 -0.0147931256156 0)
(-7.5569927627 -0.0154777256498 4.93507770849e-20)
(-7.52288232179 -0.0160425430389 0)
(-7.48765644868 -0.0164984236956 -4.81253934027e-20)
(-7.451460958 -0.0168602981946 0)
(-7.41441842829 -0.0171441977687 4.68217066967e-20)
(-7.37662877735 -0.0173670951373 -4.61440819882e-20)
(-7.33817407373 -0.0175436478789 0)
(-7.29912537046 -0.0176861251323 0)
(-7.2595509097 -0.0178015827775 0)
(-7.21952426002 -0.0178929306268 0)
(-7.1791312315 -0.0179572213945 -4.26021648431e-20)
(-7.13847242786 -0.0179882282153 4.1887703293e-20)
(-7.09766051423 -0.0179764580633 -8.2358709853e-20)
(-7.05681291068 -0.0179144403237 -8.09583901402e-20)
(-7.01604109983 -0.0177987684738 -7.95761652973e-20)
(-6.97543419484 -0.0176374475832 0)
(-6.93503996934 -0.017453037987 0)
(-6.89483924217 -0.0172883167737 0)
(-6.85472289838 -0.0172083814683 -7.41469729965e-20)
(-6.81445996397 -0.0172973113154 0)
(-6.77366856172 -0.0176554167879 0)
(-6.73179049384 -0.0183902143827 -6.9845475717e-20)
(-6.68806477004 -0.0196092179389 0)
(-6.64150236054 -0.0214129578837 6.6560417863e-20)
(-6.59086786098 -0.0238931091909 0)
(-6.53467279754 -0.0271318834155 -6.26486107791e-20)
(-6.47118604552 -0.0312041156736 0)
(-6.39846820101 -0.0361740642752 0)
(-6.31443456844 -0.0420849258925 0)
(-6.21694360162 -0.0489416322952 -5.1363646225e-20)
(-6.10389478418 -0.0566943709068 0)
(-5.97332750549 -0.0652363001924 -4.28614659386e-20)
(-5.82351124024 -0.0744082038702 -3.75864666605e-20)
(-5.65305282838 -0.0840188127702 0)
(-5.46103117356 -0.0938527028962 0)
(-5.24713070706 -0.103699095881 0)
(-5.01168619875 -0.113355414849 -7.27359163375e-21)
(-4.75563420349 -0.122623911063 0)
(-4.4804498414 -0.13119859503 0)
(-4.1879877733 -0.138766567053 2.8477153541e-20)
(-3.88061137081 -0.145084573685 4.37942961746e-20)
(-3.56101511314 -0.149888321932 0)
(-3.23215571779 -0.15286720703 -8.15091322956e-20)
(-2.89713901823 -0.153648432907 -1.05060050913e-19)
(-2.55855339632 -0.152518813412 1.33000705589e-19)
(-2.21926495868 -0.149903016117 0)
(-1.88225150689 -0.146392157967 0)
(-1.55015295505 -0.14330154603 0)
(-1.22473144284 -0.143349683732 -3.3827157513e-19)
(-0.910841770427 -0.14733378659 0)
(-0.60689956362 -0.154299568994 -6.22164545534e-19)
(-0.311753627737 -0.169687221155 0)
(-0.0345486425505 -0.190463744574 0)
(0.290481594337 -0.170981458639 0)
(0.518653698105 -0.140169821687 8.54214721609e-19)
(0.738644772901 -0.115288591345 6.41597413349e-19)
(0.945535710072 -0.0965088649415 0)
(1.13480602472 -0.0818176176751 0)
(1.3056790276 -0.0697606892005 0)
(1.45860969377 -0.0594596687887 0)
(1.59432379288 -0.0503933939407 0)
(1.71357119495 -0.0422557717841 0)
(1.81707031064 -0.0348609337458 5.70362434572e-19)
(1.90552382532 -0.0280981829794 0)
(1.97962357246 -0.0218962589749 0)
(2.04007050838 -0.0162085046583 0)
(2.08757719036 -0.011001505461 -4.87618398741e-19)
(2.12288247434 -0.00626184657997 -4.77451198439e-19)
(2.14677615596 -0.00200553444893 4.70351451756e-19)
(2.16010584757 0.00164253888324 4.65887966587e-19)
(2.16460192617 0.00455411615687 0)
(2.16180962321 0.00689598676897 0)
(2.15199506543 0.00890481302056 0)
(2.13565971725 0.010641886951 4.63931041751e-19)
(2.11346548357 0.0121278975054 0)
(2.08611661146 0.0133787636619 0)
(2.05428612445 0.0144123941179 -4.81216214936e-19)
(2.01859270743 0.0152452860349 0)
(1.97960387893 0.0158934859718 -5.00382765552e-19)
(1.93784628214 0.0163716617742 0)
(1.893811608 0.0166942788546 -5.25048605157e-19)
(1.84796079649 0.0168747820716 0)
(1.80072436446 0.0169263298531 0)
(1.75250389966 0.0168613483545 0)
(1.70367120344 0.0166918577458 0)
(1.6545697523 0.0164292361253 0)
(1.60551365292 0.0160841550451 0)
(1.55678930889 0.0156671742136 0)
(1.5086547344 0.0151883440225 0)
(1.46134132575 0.0146576269301 -6.95330071066e-19)
(1.41505221824 0.0140840642615 0)
(1.36996359578 0.0134771812431 0)
(1.32622318722 0.0128458927151 -7.69994199616e-19)
(1.28395082487 0.0121996993053 0)
(1.24323534801 0.0115472917444 0)
(1.20413387395 0.0108986194477 -8.50806434528e-19)
(1.16666793799 0.010263466272 0)
(1.13082096792 0.00965301264225 0)
(1.09653100527 0.00907829704697 -9.35794285387e-19)
(1.06368392595 0.0085535227121 9.64850436044e-19)
(1.03210146433 0.00809482817433 -9.94318097586e-19)
(1.00152588123 0.0077235584419 0)
(0.971593166592 0.0074664702148 0)
(0.941789349951 0.00736389486271 -2.17433551953e-18)
(0.911418536835 0.00747323584091 0)
(0.87897909874 0.00796272201631 2.3161772649e-18)
(0.848867122322 0.008542413414 2.40036230819e-18)
(0.728988125858 0.0133210623904 0)
(-0.183953420483 0.195916988178 -2.43602261785e-20)
(-0.358996788496 0.394977992871 0)
(-0.5234328762 0.49806533451 7.92662767755e-21)
(-0.716603101862 0.580782802176 -7.8250700244e-21)
(-0.918121699968 0.634564391311 -8.30705547251e-21)
(-1.1350308171 0.672787468093 3.86628221221e-21)
(-1.36499581745 0.700592066637 1.02191457891e-20)
(-1.60511799787 0.720576415099 0)
(-1.85279179273 0.734260976354 -5.69322367248e-21)
(-2.10588456871 0.74261875707 1.4488951217e-20)
(-2.36257341681 0.74631912131 2.34043378733e-20)
(-2.62125890379 0.745857283752 -1.78025601277e-20)
(-2.88050274421 0.741627788976 2.8529751405e-20)
(-3.13899337365 0.733965476624 9.88861003939e-21)
(-3.39552357352 0.723170768971 0)
(-3.64897922973 0.709523745795 -1.16538714691e-20)
(-3.89833203239 0.693293766154 -1.252592141e-20)
(-4.1426370935 0.674744250263 -1.3384303519e-20)
(-4.38103153296 0.65413656812 2.97614483628e-20)
(-4.61273546076 0.631731335857 0)
(-4.83705302854 0.607790059923 3.29027090963e-20)
(-5.05337483474 0.58257506948 0)
(-5.26118012445 0.556350062367 -3.58219422741e-20)
(-5.46003964785 0.529379071559 0)
(-5.64961808451 0.501925855864 5.72285556124e-20)
(-5.82967640849 0.474251544174 -2.03494976309e-20)
(-6.0000731495 0.446612326143 -4.09048127705e-20)
(-6.16076440872 0.419255335524 -6.25922654632e-20)
(-6.3118018465 0.392414473684 -2.11293170783e-20)
(-6.45332846815 0.36630471339 -2.16488854716e-20)
(-6.58557156048 0.341116810126 0)
(-6.70883281211 0.317011360356 -4.58361171815e-20)
(-6.82347554268 0.294114193175 2.30303276266e-20)
(-6.92990981177 0.272512195959 0)
(-7.02857562713 0.252251482323 0)
(-7.11992552848 0.233336890168 2.41687580604e-20)
(-7.20440721665 0.215734331527 0)
(-7.28244777552 0.199374657023 0)
(-7.35444058182 0.184160192671 0)
(-7.42073487487 0.16997213609 0)
(-7.48162977569 0.156679498581 0)
(-7.53737105553 0.144147901414 5.22337458457e-20)
(-7.58815611791 0.132248846035 1.04710084016e-19)
(-7.63413907466 0.120866984172 0)
(-7.67543896462 0.109906392309 5.3295640285e-20)
(-7.71215125176 0.0992937693088 -5.31703912349e-20)
(-7.74435375642 0.088981998199 0)
(-7.7721382629 0.0789495557346 0)
(-7.79560168633 0.0691960503717 -1.62356736364e-19)
(-7.81485699777 0.0597361850993 -1.08795474252e-19)
(-7.83003548225 0.0505954816334 5.44329433726e-20)
(-7.8412684229 0.0418064941496 1.0954228261e-19)
(-7.84875876654 0.0333956448227 5.50764663018e-20)
(-7.85267145127 0.025370169317 0)
(-7.85314833483 0.0177276258593 -1.6532092798e-19)
(-7.85026137789 0.0105054073269 -5.50358085254e-20)
(-7.84471551721 0.00374210506655 0)
(-7.8365934259 -0.00258663626205 1.10194570973e-19)
(-7.82592108222 -0.00852602696161 -1.09993654578e-19)
(-7.8127052736 -0.0141309571515 -5.47319947093e-20)
(-7.79694136755 -0.0194522621114 0)
(-7.77860882802 -0.0245272091693 0)
(-7.75768805035 -0.0293794349478 0)
(-7.73417827224 -0.0340214223585 1.07909060931e-19)
(-7.70810054372 -0.0384495522425 0)
(-7.67950349885 -0.0426464910677 -1.06577338101e-19)
(-7.64847105832 -0.0465853704994 0)
(-7.61512041224 -0.0502349122408 -5.25786529067e-20)
(-7.57959559771 -0.053563315301 0)
(-7.54205979501 -0.0565450897357 -5.16589418536e-20)
(-7.50268529226 -0.0591639722297 -5.11615190327e-20)
(-7.46164248812 -0.0614176574065 0)
(-7.41908990637 -0.0633173641309 -4.99983091922e-20)
(-7.37516632434 -0.0648887919901 0)
(-7.32998691561 -0.0661675563163 4.88768165989e-20)