/*--------------------------------*- C++ -*----------------------------------*\
| =========                 |                                                 |
| \\      /  F ield         | OpenFOAM: The Open Source CFD Toolbox           |
|  \\    /   O peration     | Version:  v1806                                 |
|   \\  /    A nd           | Web:      www.OpenFOAM.com                      |
|    \\/     M anipulation  |                                                 |
\*---------------------------------------------------------------------------*/
FoamFile
{
    version     2.0;
    format      ascii;
    class       volScalarField;
    location    "10";
    object      alpha;
}
// * * * * * * * * * * * * * * * * * * * * * * * * * * * * * * * * * * * * * //

dimensions      [0 0 -1 0 0 0 0];


internalField   nonuniform List<scalar> 
12225
(
0.393995765232
0.337281681418
0.354820215088
0.355507347864
0.3668941449
0.371284319622
0.377190444868
0.381316829808
0.383601491226
0.382876695559
0.377649423632
0.369216271036
0.362283035219
0.35057544742
0.327997369962
0.299941975308
0.265164800042
0.235006564185
0.240059392527
0.288613549968
0.321845644979
0.316937354973
0.326264429788
0.328891048013
0.332981331928
0.335722273303
0.337468421026
0.337513626157
0.334501960881
0.328620793232
0.322359103058
0.313030654978
0.296746009112
0.276700972947
0.255438749739
0.253089971316
0.361557456112
0.31036561166
0.324228339812
0.323748773051
0.332937690316
0.336431198256
0.340977297637
0.344137845841
0.346357065243
0.347126800527
0.345737228758
0.342035228355
0.336542018716
0.32790429731
0.314314613788
0.298225859246
0.284087665524
0.288996071559
0.325421191508
0.295380974715
0.321701775814
0.315982130098
0.324702216221
0.326592049507
0.329934104377
0.332062692489
0.333568397054
0.334015747721
0.333044313791
0.330456657912
0.326147288
0.319384513377
0.309647475454
0.299195862445
0.292867774519
0.30159540057
0.338150257069
0.296364781006
0.319613493292
0.313240164915
0.320963574885
0.321902372392
0.3243171992
0.32550969059
0.326079861669
0.32569208521
0.324184621885
0.321448533612
0.317303645917
0.311470964107
0.304228788885
0.297793078215
0.296338720795
0.305745988276
0.336297939393
0.292901152388
0.316898222196
0.309118273486
0.316289391606
0.316474955683
0.318294307931
0.318918167246
0.3189699559
0.31818016187
0.316480731433
0.313831304477
0.310130019936
0.305400371382
0.300325679138
0.296944335061
0.298331611013
0.307243315999
0.336109594882
0.291157210535
0.314511780934
0.305780244754
0.312343245482
0.311874498003
0.31318334907
0.313353130772
0.313036481073
0.312012700698
0.31027170946
0.307826776993
0.304699234098
0.301102314255
0.297867454525
0.296701360808
0.299649891516
0.307822655035
0.335351138761
0.289842411373
0.312500855729
0.303011940932
0.309026233799
0.308014248226
0.308913435505
0.308743757811
0.30820683297
0.307102370805
0.30544980087
0.303309518414
0.300812144259
0.298278506651
0.296544311364
0.296924820673
0.300693785665
0.308110499557
0.334634478709
0.289069310559
0.310911416719
0.300855116297
0.306362888352
0.304886316113
0.305446226151
0.305034529176
0.304393072847
0.303317294824
0.301842651934
0.300078837671
0.298231497599
0.29666616503
0.296119864211
0.297570888536
0.301730357748
0.30850304976
0.334137586367
0.288769463162
0.309852295947
0.299380310408
0.30445766324
0.302598584337
0.302905815604
0.302345352873
0.301672134371
0.300676626943
0.299431226758
0.298090844397
0.296897559255
0.296197034411
0.296586728242
0.298754860958
0.303056551828
0.309219729636
0.33451439294
0.288715427038
0.309608219342
0.298755900004
0.303585991904
0.301502311541
0.301713467134
0.301107082608
0.300463349616
0.299601997892
0.298632375898
0.297710755892
0.297071599236
0.297008620435
0.297987407968
0.300470845246
0.304593007115
0.310063667572
0.338633763634
0.288855430966
0.311123835526
0.299676653321
0.304563573707
0.302372730923
0.302553830932
0.301932479616
0.301365415724
0.300645077835
0.299824680494
0.299077851687
0.298643569858
0.298797966729
0.299896788747
0.3022597199
0.305940849259
0.310657741776
0.341996696037
0.28954583145
0.312626512649
0.300758488782
0.305468203654
0.303100524237
0.303172285641
0.302462816814
0.301794530583
0.300982252391
0.300136587068
0.299433452687
0.299140922234
0.299456147007
0.300672705766
0.302981024572
0.306347888704
0.310525124513
0.34603405204
0.290397193303
0.31431969147
0.301910384178
0.30640415734
0.303681074989
0.303441958805
0.302504424898
0.301714438141
0.300884947588
0.300132389068
0.2996450932
0.299654101702
0.30029429737
0.301718120404
0.304041113088
0.307126213575
0.310838174392
0.351252924116
0.291326054769
0.316435272837
0.303303507825
0.30757258819
0.304430524044
0.303838521951
0.302633033944
0.301703005928
0.30089602694
0.300294164147
0.300093523853
0.30046392088
0.30142068043
0.303036799004
0.305333867435
0.308163233648
0.311395814954
0.356707307854
0.292321404135
0.318841201032
0.305001550635
0.309148261516
0.305644938779
0.304787634247
0.303382357111
0.302385070269
0.301611178343
0.301184271306
0.301216148072
0.301860312403
0.303010514102
0.304704515638
0.306891499855
0.309443573989
0.312272632353
0.361605704766
0.293223222481
0.321267485758
0.306856111042
0.311027335921
0.30730570236
0.306331724461
0.30485757994
0.303873656034
0.303200692223
0.302905292092
0.303110016071
0.303893536442
0.305123817086
0.306771101097
0.308806187948
0.3110683052
0.313567646922
0.366196000734
0.293914202529
0.323564020711
0.308692656483
0.3130287976
0.30923410073
0.308288547975
0.306843951604
0.305936967811
0.305368138546
0.305185656783
0.305494262171
0.306339494563
0.307559035087
0.309112454545
0.310975425372
0.312991867922
0.315201934525
0.368691317771
0.294015816144
0.324766155261
0.309720495053
0.314331656563
0.310672436586
0.309939407601
0.30868699081
0.307981985119
0.307605014497
0.307589288105
0.308018313679
0.308924446162
0.310131437357
0.311605821834
0.313335024541
0.315173470279
0.31716924608
0.363330827326
0.293356820089
0.323193314502
0.308984470023
0.314060470662
0.311051796701
0.310939444877
0.310320838267
0.310186908405
0.310318012669
0.310717939358
0.311453703906
0.312561784634
0.313879761845
0.315378937391
0.317056394691
0.318781401104
0.320592134144
0.359212910245
0.29234057611
0.321352279028
0.307752052823
0.313185654573
0.310696120987
0.311074709797
0.310915182494
0.311218460339
0.311709572374
0.312400168411
0.313334268449
0.314581667531
0.31595632291
0.31746787151
0.319094266679
0.320746568228
0.322437324245
0.355940852296
0.291259454041
0.319592808248
0.306509103363
0.312225641776
0.310189124915
0.310967429122
0.311207149177
0.311852368344
0.312632959548
0.313560516471
0.314655788761
0.316001523235
0.317434361742
0.31895187507
0.320555665074
0.322151402071
0.323784102654
0.352283627659
0.290050624541
0.317803073695
0.305211502433
0.311209052564
0.309612668688
0.310774811505
0.311379389343
0.312341941794
0.313402013442
0.314528073721
0.315785522237
0.317238781363
0.318745416835
0.32028008562
0.321892058217
0.323462935861
0.325051119586
0.348837127303
0.288907016833
0.315911384842
0.30390218331
0.310177200783
0.3090041887
0.310528474283
0.311484802449
0.312738448277
0.314032100547
0.315357328658
0.316753239545
0.318305158977
0.319866213217
0.321454020202
0.323080653143
0.324665123729
0.326203343541
0.34378983787
0.287299505596
0.314202719105
0.302762059685
0.309290559092
0.308554399786
0.310420844324
0.311679802357
0.313200522488
0.314726707513
0.316244841661
0.317776138356
0.319436412863
0.32108364679
0.322726528835
0.324420686626
0.32608584735
0.32774102211
0.345661861438
0.287881473463
0.31112886118
0.300938531883
0.3074845627
0.307133167494
0.309225274993
0.31073011207
0.312456057244
0.314171059821
0.315832026504
0.317464201429
0.319176465206
0.320864132005
0.322532519608
0.324222920264
0.325870619898
0.327299965175
0.31466025104
0.281037205538
0.31016535548
0.299773946032
0.306858891541
0.30696164038
0.309434943631
0.311288885862
0.313349933704
0.315407064011
0.317438163041
0.319311521273
0.321203871269
0.323081479199
0.32490023895
0.326755349259
0.32863792145
0.330735128847
0.382764834732
0.294135883809
0.299670395539
0.29495151583
0.300783880815
0.301288297152
0.303544956569
0.305201986578
0.306976015572
0.308737887386
0.310353898995
0.311851804462
0.313418488448
0.314973092808
0.316508341645
0.31816952486
0.319926296765
0.321259640556
0.184803288189
0.266143758105
0.296603340371
0.288437373801
0.295195543972
0.296016107573
0.298970817708
0.301555488702
0.304525508085
0.307732614939
0.311074201583
0.314198510722
0.317359643671
0.320644944177
0.323967471861
0.327337296551
0.330790220682
0.334156557202
0.332676906696
0.304758337508
0.307775040696
0.306423280669
0.313729845524
0.314612303654
0.317056182708
0.318928109624
0.320832794614
0.322495608958
0.323819321017
0.325051079671
0.326346315805
0.327321063907
0.327975529047
0.32850736109
0.328755649428
0.329460438085
0.476041186566
0.476400486338
0.476579794779
0.476555875016
0.476348472518
0.476000601808
0.475590657009
0.475159375207
0.474732964155
0.474328436692
0.473956463801
0.473623136186
0.473331424004
0.47308212264
0.472874556281
0.472706826085
0.472576529128
0.472480366544
0.47241531096
0.472378358085
0.472366217781
0.472376614477
0.472406217023
0.472454262743
0.472518725323
0.472599992397
0.472696314956
0.472807918469
0.472933975667
0.473075224692
0.473231203419
0.473402326073
0.473587983233
0.473788852209
0.474004519877
0.474234705247
0.474478142551
0.474735409049
0.475005201809
0.47528731532
0.475580302828
0.475883282548
0.476194542927
0.476512347987
0.476834614586
0.477158798023
0.477482394542
0.477802403746
0.478115731682
0.478419619768
0.478711440646
0.478990095122
0.479252669298
0.479495274245
0.47971281573
0.479900429659
0.480052984023
0.48016536079
0.480232331765
0.480248917413
0.480211418675
0.480119152723
0.47997188492
0.479768562813
0.479509820805
0.479197695277
0.478833680426
0.478419568085
0.477958377734
0.477452833326
0.476907140278
0.476325235918
0.475711974294
0.475071749321
0.474409471933
0.47372935496
0.473035723611
0.472333354189
0.471626337249
0.470917489031
0.470209096592
0.469504490217
0.468805831251
0.468115690979
0.467433206311
0.466760935546
0.466098664836
0.465440469756
0.464789853286
0.464143668584
0.463501980319
0.462864674952
0.462229947341
0.461625062873
0.461065912237
0.460516089503
0.459944879185
0.459367862231
0.458788870004
0.458215482441
0.457543428432
0.4567915965
0.456780190896
0.456877292214
0.456810568604
0.456521423246
0.456040846565
0.455823829739
0.455511635781
0.455226816505
0.454979826918
0.454765843243
0.454575524466
0.454403171151
0.454244529198
0.454096788747
0.453957113852
0.453822404791
0.453691868357
0.453566590142
0.453449986355
0.453343362448
0.453245460065
0.4531552205
0.453069803918
0.452987946225
0.452908870501
0.452832108963
0.452757366618
0.45268438048
0.452612847489
0.452542603305
0.452473539846
0.452405777871
0.452339382303
0.452274585827
0.452211525383
0.452149934229
0.452090378237
0.452033152639
0.451980203281
0.45193024241
0.451884120828
0.451843292402
0.45180938528
0.451784148963
0.45176863684
0.45176360847
0.451769734455
0.451787539887
0.451818102869
0.45186296629
0.451923891837
0.452002550985
0.452100743858
0.452220331643
0.452363407297
0.452532240125
0.452729792412
0.452959657026
0.453227231589
0.453538283851
0.453900926973
0.454326285475
0.454829622539
0.45542767168
0.456141088821
0.456986095575
0.457975620915
0.459132235437
0.460468913755
0.461982429584
0.463655570274
0.465448833477
0.467304221631
0.469277547903
0.471316383824
0.473341040978
0.475240786275
0.476702987178
0.476135961598
0.476378412031
0.476301306516
0.476023181876
0.475673375472
0.475310786821
0.47495936851
0.47463111311
0.474330505772
0.474059388394
0.47381797357
0.473606935904
0.473425594517
0.473273698027
0.473149975364
0.473053275681
0.472981698906
0.472933273259
0.472905359893
0.472896247362
0.472903211852
0.47292466479
0.472958086826
0.473003142265
0.473058288459
0.473124274731
0.473200090159
0.473286486064
0.473383490324
0.473492312415
0.473612932128
0.473746239526
0.473892645415
0.474053214784
0.474227496041
0.474416122346
0.474618711921
0.474835493907
0.475065948688
0.475310181904
0.475567261832
0.47583644716
0.47611636001
0.476405344824
0.476701314474
0.477001673531
0.477303287883
0.477602800311
0.477895886495
0.478177746771
0.478441133046
0.478681387157
0.478895968509
0.479082299268
0.479236886062
0.479356318012
0.479437230423
0.479474391273
0.479462352204
0.479399495967
0.479284731918
0.479115999961
0.478893284247
0.478618681933
0.478292240864
0.477914699928
0.477487695864
0.477012773847
0.476491758436
0.475926339826
0.475318847106
0.474671591466
0.473987882717
0.473271084988
0.472525048292
0.47175410254
0.470963080321
0.470157059189
0.469341469787
0.468520391508
0.467697199672
0.46687610415
0.466061791553
0.465256587216
0.464459264785
0.463675269655
0.462911334843
0.462157356721
0.461391798631
0.460631768
0.459905764074
0.459178591917
0.458408255447
0.457622401997
0.456903487466
0.456255390842
0.455570129768
0.455030604703
0.454496095775
0.453929084244
0.453384488378
0.45270300102
0.452238205549
0.451733415734
0.451295175303
0.450860820368
0.450620666895
0.450466481279
0.450334436562
0.450177124674
0.44999341395
0.449802400153
0.449607415582
0.449410862218
0.449213044272
0.449013994984
0.448812526047
0.448607047683
0.448397155299
0.4481858158
0.447977080214
0.447773005664
0.447573908032
0.447378333521
0.447184573209
0.446991892646
0.446799797572
0.446608035717
0.44641630099
0.446224528954
0.446032650275
0.445840640715
0.445648395516
0.44545586546
0.445262817635
0.445068925246
0.444873465374
0.444675499769
0.444474254536
0.444270076409
0.444063271775
0.443852644796
0.443637792225
0.443418972657
0.443197066994
0.442972552701
0.442745116164
0.442513882944
0.442277754953
0.442035850299
0.441787212871
0.44153079423
0.441265527953
0.44099088623
0.440707196525
0.440415460641
0.440117805357
0.43981697179
0.43951665037
0.439220260935
0.43893271234
0.43865940537
0.438405630663
0.438175478663
0.437972710713
0.43780035384
0.437654687476
0.43754324199
0.437464799217
0.43741747698
0.437402742094
0.437427955907
0.437503487609
0.437633573982
0.437886783136
0.438171118182
0.438504890842
0.438875932713
0.43923970776
0.439617558922
0.475786608547
0.475882473147
0.475845469817
0.475705971647
0.475549252315
0.475413979812
0.47529536855
0.475186428131
0.475081400449
0.474978639454
0.474878090979
0.474781268206
0.474689947577
0.474606145719
0.474531376215
0.474466910393
0.474413307848
0.474370927217
0.474339397839
0.47431830954
0.474306771489
0.474304782639
0.474310805956
0.474325216947
0.474347587238
0.474378643597
0.474418126835
0.47446723352
0.474526269261
0.474596481165
0.474678280619
0.474772974417
0.474880752934
0.475002523648
0.475138455971
0.475288950578
0.475453464207
0.475632482198
0.475825394566
0.476031903804
0.476251129761
0.476482107001
0.476723390904
0.476973227847
0.477229474384
0.47748963488
0.477750703335
0.478009415758
0.4782620759
0.47850470115
0.478731509555
0.478936477405
0.479113019665
0.479256952557
0.47936507605
0.479434873922
0.479464274716
0.479453570079
0.47940383658
0.479313706051
0.479180684874
0.479002649944
0.478775208748
0.478494578849
0.478158715559
0.477764769378
0.477310919748
0.476796758819
0.476223665886
0.475594129653
0.474912199052
0.474182883058
0.473412086826
0.472606188191
0.471771812467
0.470915653095
0.470044238475
0.469164009272
0.468281040644
0.467401097613
0.466527275449
0.465663330163
0.464814394177
0.4639838403
0.463168385571
0.462366921812
0.461593848074
0.460852392581
0.460118752927
0.459382674596
0.458677265119
0.458028757086
0.457359866888
0.456691957923
0.456059155348
0.455459715987
0.454918223073
0.45452703714
0.454055791836
0.453391847243
0.45265282959
0.45215969686
0.45196378507
0.451760389654
0.451664919317
0.451490501421
0.451173842294
0.450718514414
0.45027658938
0.449890260998
0.449541695152
0.449223549327
0.448926714684
0.448646144983
0.448377993675
0.448119551839
0.4478680729
0.447621332605
0.447378659662
0.447142326463
0.446914732356
0.446696454905
0.44648618325
0.446281716318
0.446081963277
0.445886262343
0.445694205176
0.445505483984
0.445319816975
0.445136782226
0.444955891317
0.444776723065
0.444598982312
0.444422424177
0.444246782678
0.444071653416
0.443896488703
0.44372099123
0.443545214556
0.443370586292
0.44319743571
0.443024950864
0.442851994905
0.442678895838
0.442507137942
0.442337900828
0.442171711128
0.442008547322
0.441848465429
0.441691536504
0.441537874673
0.441387401792
0.441240195859
0.441096191743
0.440955117137
0.440816431041
0.440679373619
0.440542778699
0.440405393175
0.44026545203
0.440121233157
0.439971068472
0.439813290262
0.439646091465
0.439468087323
0.439277662505
0.43907189177
0.438850023299
0.438615114688
0.438370190198
0.43812059136
0.437877182347
0.437653550135
0.437475775169
0.437370775202
0.43735546714
0.437444791351
0.437638277954
0.437885534834
0.438037686176
0.475341732219
0.475449140916
0.475664684222
0.47575222654
0.475776966932
0.475794173703
0.475799378151
0.475788544482
0.475759236587
0.475711855175
0.475648620699
0.475573321854
0.475489402535
0.475400533278
0.475309616753
0.475219291276
0.475131399312
0.475047433901
0.474968012423
0.474894248716
0.474825873535
0.474763299445
0.474706416292
0.474655927689
0.47461149961
0.474574555367
0.474545415103
0.474525386437
0.474515227663
0.474516544358
0.474530155425
0.474557356799
0.474598935879
0.47465618456
0.474728998655
0.474818283576
0.47492393183
0.475046073209
0.475184126209
0.475337819525
0.47550599681
0.475687442676
0.475880316743
0.476082415543
0.476291084988
0.476503234876
0.47671523434
0.476923380486
0.477123367237
0.477310566398
0.477480481888
0.477629715701
0.477752732649
0.477844798052
0.477901527364
0.477919253588
0.477894610201
0.477825979992
0.47771477915
0.477563754096
0.477373616505
0.477143409123
0.476870168893
0.476550554074
0.476180823695
0.475758058615
0.47528023163
0.474746121898
0.47415564928
0.473510124192
0.472812235021
0.472066271981
0.47127799503
0.470453681104
0.469600250745
0.468725746298
0.46783755175
0.466941545575
0.466045380191
0.465156509167
0.46427803415
0.463410179954
0.462561856406
0.461743087051
0.460946271262
0.460164027318
0.459410804784
0.458719839053
0.458044876943
0.457374934513
0.456742999233
0.456165371541
0.455630124613
0.45511636077
0.454652438161
0.454185646022
0.453652988439
0.453059461127
0.452357226063
0.451692499411
0.4512632738
0.451135297761
0.451063014079
0.45091812425
0.450755791591
0.450457759661
0.449993535444
0.449416747236
0.448857905551
0.448373546297
0.447956086476
0.447591597965
0.447265585431
0.446968271017
0.446692597292
0.446433399223
0.446186511057
0.445948716166
0.445719131174
0.445498932913
0.445289321914
0.445089430354
0.44489647199
0.44470842907
0.444524431687
0.444344124243
0.444167201837
0.443993339944
0.443822134254
0.44365318007
0.443485864008
0.443319635301
0.443154197913
0.442989237419
0.442824327505
0.442658873585
0.442492402373
0.442324912071
0.442157302987
0.441991078697
0.441826698742
0.441662573111
0.441496751327
0.441329167255
0.441160915614
0.4409929616
0.44082564594
0.440658887966
0.44049251758
0.440326344137
0.4401602532
0.439994132773
0.439828188845
0.439662611238
0.439497530897
0.439333142823
0.439169729482
0.439007704789
0.438847718972
0.438690454854
0.438536340575
0.438385814692
0.438239289701
0.43809656472
0.437956998781
0.437819019592
0.437679103093
0.437534866864
0.437384302688
0.437224230764
0.437053308558
0.436873983218
0.436690955465
0.436513103816
0.436359388767
0.436236402984
0.436154044474
0.436106670905
0.436037672302
0.435821527136
0.474811687442
0.475349860236
0.475922469374
0.47612594684
0.476183454542
0.476219014915
0.4762385224
0.476240334527
0.476220442135
0.4761789158
0.47611693373
0.476037442851
0.475943562542
0.475838983665
0.475726673087
0.475609730725
0.475490209317
0.475370421657
0.475251537612
0.475134737865
0.475020566688
0.474910269516
0.474803548066
0.474701619108
0.474604952398
0.474514618906
0.474431231299
0.474356461042
0.474291219239
0.474237128796
0.474195188941
0.474167117444
0.474153545921
0.474155659614
0.474174011063
0.474209369668
0.474261468324
0.47433092422
0.474417214474
0.474520059359
0.474638470239
0.474771414454
0.474917190884
0.475073870464
0.47523898435
0.475409858279
0.475583193244
0.475755537515
0.475923164931
0.476081747284
0.476225445028
0.476350187916
0.476450877112
0.476522562842
0.476561340461
0.476563786588
0.476526120297
0.476445839021
0.476322483024
0.476154592669
0.475940951428
0.475681069782
0.475373977372
0.475018058142
0.474610562299
0.474148664772
0.473630075541
0.473053476071
0.472419452498
0.471729793343
0.47098793137
0.470198798438
0.469369799192
0.468507208104
0.467618141183
0.466711573535
0.46579663408
0.464877237357
0.463957726354
0.463051561107
0.462165828512
0.461291377884
0.460435463242
0.459617203599
0.458825791378
0.458047633896
0.45730309796
0.456611539072
0.455980836775
0.455375612973
0.454778681366
0.454241998871
0.453725435871
0.453243355943
0.452737830305
0.452122328199
0.451443238817
0.450780629819
0.450220842425
0.449894893396
0.4498058052
0.449821470162
0.449751124568
0.449569839255
0.449311618365
0.448941418406
0.448474246368
0.447959182977
0.447465303575
0.447024785331
0.44663862776
0.446299098137
0.445995587717
0.445719608013
0.445464533798
0.445225299383
0.444997908599
0.444779702923
0.444570218241
0.444370450981
0.444180941204
0.443999946845
0.443824591407
0.443653255358
0.443485509569
0.443321344048
0.44316070971
0.443003420676
0.442849120333
0.442697326851
0.44254755562
0.442399401927
0.44225246383
0.442106383001
0.441960610052
0.441814498874
0.441667771626
0.441520955394
0.441375859555
0.441234155988
0.441096312817
0.44095995422
0.440822791217
0.440684397181
0.440545507618
0.440406978905
0.440269115351
0.440131906422
0.43999517486
0.439858697784
0.439722335875
0.439585971282
0.439449478951
0.439312750796
0.439175706659
0.439038293404
0.43890048664
0.438762282772
0.438623786174
0.438485091818
0.438346030507
0.43820646577
0.438066176969
0.437924540708
0.437780858052
0.437634017548
0.437481625521
0.437322463221
0.437156047362
0.436980974181
0.436798132588
0.436611102247
0.436423776198
0.43624304555
0.436079706456
0.435936266864
0.435809770697
0.435680603746
0.435483642276
0.435107474321
0.474300155745
0.475797321928
0.476613227078
0.476656599339
0.476573899974
0.476531354824
0.476507818834
0.476485798504
0.476451830943
0.476400314716
0.476329110571
0.476240084953
0.47613502679
0.476017292558
0.475889269013
0.475754040867
0.475613553113
0.475470098313
0.475324815366
0.475179677643
0.475035024305
0.474892000176
0.474751282705
0.474613981923
0.474480332885
0.474352080615
0.474230033432
0.474115783776
0.47401048237
0.473915947987
0.473833362426
0.473764265104
0.473709689433
0.473671072494
0.473648591335
0.473643259184
0.473655118104
0.473684394135
0.473730512202
0.473793213205
0.473871250736
0.473963491492
0.474068018899
0.474182818772
0.474305314055
0.47443284857
0.47456214748
0.474690122132
0.474813114604
0.474926883906
0.475025756391
0.475105655013
0.475160966402
0.475186527502
0.475177673306
0.475130200584
0.475040221271
0.474908262468
0.47473561954
0.474522957403
0.474269919484
0.473976129147
0.473640023567
0.473259950918
0.472831460249
0.472350511583
0.471813053381
0.471216351045
0.470560220617
0.469847122452
0.469079180956
0.468262116141
0.46740488328
0.466516213703
0.465600516784
0.464668104074
0.46373332083
0.462802419784
0.461872513673
0.460953880532
0.460071970332
0.459192517957
0.458333090266
0.457507930491
0.45672916067
0.456001564544
0.455303240892
0.4546407945
0.454014103232
0.453404583205
0.452852938913
0.452314230665
0.45170942764
0.45109547386
0.450461328864
0.449842749153
0.449304970257
0.448890934313
0.448618749592
0.448511311202
0.448497658946
0.448459656582
0.448319614395
0.448089787685
0.44779094526
0.447421774515
0.447003762927
0.446568238213
0.446148881669
0.445762777928
0.445414061687
0.445100533138
0.444816765622
0.444557294032
0.444317259664
0.444092566589
0.443879838258
0.443677164575
0.443484276004
0.443302001122
0.44313018108
0.442966409635
0.442808038304
0.442653612942
0.442502788652
0.442355570521
0.44221194782
0.442071736641
0.441934594408
0.441800063612
0.441667702747
0.441536970507
0.441407375421
0.441278387616
0.441149320852
0.44101947367
0.44088872092
0.44075819725
0.440629980796
0.440506105043
0.440386484837
0.440268561809
0.440150046067
0.44003026877
0.439909802605
0.439789297259
0.439669061762
0.439549107816
0.439429318293
0.439309712832
0.439190235188
0.439070841311
0.438951469351
0.438832039761
0.438712439399
0.438592567863
0.43847235854
0.438351743442
0.438230728955
0.438109261393
0.43798706397
0.437863876164
0.437739283504
0.437612436925
0.437482382943
0.43734782205
0.437206456261
0.437056962942
0.436898662857
0.436730115287
0.43655228732
0.436368358853
0.436181122378
0.435995544675
0.43582010344
0.435654701579
0.435492738725
0.435310369025
0.435045615992
0.434610988576
0.47396636198
0.476847466911
0.477536136824
0.47712349205
0.476836410428
0.476702596191
0.476627634583
0.476568875477
0.476502381203
0.476421034061
0.476321394781
0.47620492509
0.476072781127
0.47592810769
0.475772700427
0.475609546064
0.475440109431
0.475266903361
0.475090914726
0.474913624089
0.474735805487
0.474559018178
0.474383290638
0.47421013116
0.474040278277
0.473874953066
0.473715033947
0.473562327325
0.47341790159
0.473283522862
0.473160343824
0.473050156976
0.472953746784
0.472872348358
0.472806619201
0.472757314332
0.472724249202
0.472707922222
0.472707691204
0.472723140825
0.472753054346
0.472796315625
0.472851072349
0.472915519778
0.472987342668
0.473064461307
0.47314414234
0.473223948796
0.473301286517
0.473372949409
0.47343256903
0.473476723132
0.473499102717
0.473492467498
0.473450328419
0.47336661573
0.473237908389
0.473067219343
0.472856013815
0.472605900339
0.472317616945
0.471993277588
0.471632174201
0.471231367055
0.470784138316
0.470286245966
0.469732058232
0.469117099764
0.468441490292
0.467709029805
0.466922532464
0.466084566249
0.465207692017
0.464305887583
0.46338220298
0.462442869591
0.461503476311
0.460570765494
0.459636370882
0.458718759485
0.457827924265
0.456979090728
0.456176801265
0.455395949296
0.454647051664
0.45394169437
0.453281425672
0.452665574654
0.452057033461
0.451429606166
0.450824198216
0.450205207958
0.449578601016
0.448993337226
0.448450857013
0.448000816585
0.447662875467
0.447437173078
0.447300426467
0.447229134109
0.447160467629
0.447036767967
0.446840771556
0.446588805671
0.446292082994
0.44595565245
0.445594173047
0.445225620671
0.444867657847
0.444530803866
0.444219760734
0.443935023838
0.443674474107
0.443434996444
0.443213276802
0.44300604039
0.442810648421
0.442625636342
0.442450960089
0.442287085189
0.442133201534
0.441986927681
0.441845837702
0.441708672797
0.441575058554
0.441444981885
0.441318414777
0.441195206465
0.441075036339
0.440957461609
0.440841994994
0.440728112046
0.440615332174
0.440503043273
0.44039048079
0.440276939869
0.440162553222
0.44004886192
0.439938223936
0.439832623009
0.439731459679
0.439632222678
0.439532629814
0.439432026574
0.439330816059
0.439229453967
0.439128135096
0.439026771508
0.438925376049
0.438823899939
0.438722362812
0.438620707879
0.438518887279
0.438416795843
0.438314322469
0.438211320551
0.438107684184
0.438003275217
0.437898013447
0.437791734749
0.437684072929
0.437574678588
0.437463026049
0.437348187397
0.437229099403
0.437104466537
0.43697214165
0.436830893317
0.436679991661
0.43651810136
0.436346017272
0.436166458697
0.435981154179
0.435793281263
0.435608725607
0.435425276494
0.435233733276
0.43500861291
0.434694641998
0.434226523172
0.473923841747
0.478347762751
0.478398736138
0.477386648078
0.4769648124
0.476766363295
0.47663776806
0.476526081777
0.476407283849
0.476275976686
0.476128830444
0.475968211604
0.475794302596
0.47561018013
0.475416772836
0.475216881133
0.475011479849
0.474802794383
0.474591412892
0.474379326754
0.47416676562
0.473955124235
0.473745083511
0.473537757036
0.473333405639
0.473133747443
0.472939455997
0.472752023205
0.472572452428
0.472402424561
0.472242933456
0.472095365161
0.471960603794
0.47183985917
0.471733271059
0.471641679594
0.471565031939
0.471503399909
0.471456146493
0.471422905602
0.471402384062
0.471393545984
0.471394729653
0.471404458201
0.471421020641
0.471443050498
0.471469127667
0.47149810416
0.471528658859
0.471559200331
0.471584634169
0.471598932614
0.47159407034
0.471558445054
0.471480315493
0.471349272564
0.471164726024
0.470933244635
0.470658862451
0.470346480445
0.470003002283
0.469635901867
0.469248798933
0.468832589455
0.468378411876
0.467878282586
0.467324365136
0.466707702727
0.466024947114
0.465284112245
0.464492594016
0.463649426496
0.462764668613
0.461864504889
0.460934339778
0.45998831602
0.459049519853
0.45812664045
0.457232617059
0.456373887109
0.455530958555
0.454717184581
0.453945310654
0.453215349815
0.452531011907
0.451887611462
0.451262277382
0.450633667165
0.449997621535
0.449366706813
0.448771486177
0.448191879147
0.447662403008
0.447201452404
0.446805697868
0.446498658617
0.446275234179
0.446119746226
0.446002388162
0.445895333798
0.44576393585
0.445589308963
0.445373332226
0.44512607914
0.444852579827
0.444556613418
0.444246605119
0.443932991433
0.44362612679
0.443333331754
0.443058894054
0.442804393577
0.442569409979
0.44235238464
0.442151080778
0.441963005717
0.441786168094
0.441619551578
0.441463241295
0.441317451356
0.441181093934
0.44105196026
0.440927989609
0.44080802989
0.440691642591
0.440578731797
0.440469225185
0.440362966727
0.440259651779
0.440158871798
0.440060162818
0.439963049139
0.439867007234
0.439771372299
0.439675258049
0.439578030812
0.439480110522
0.439383267054
0.439290018199
0.439201919731
0.439118139463
0.439036287227
0.438954321984
0.438871648357
0.43878848291
0.438705131968
0.438621607515
0.438537848211
0.43845378099
0.438369399571
0.438284745083
0.438199802609
0.438114539651
0.438028842162
0.437942575266
0.437855563082
0.437767652071
0.437678646143
0.437588380523