/*--------------------------------*- C++ -*----------------------------------*\
| =========                 |                                                 |
| \\      /  F ield         | OpenFOAM: The Open Source CFD Toolbox           |
|  \\    /   O peration     | Version:  v1806                                 |
|   \\  /    A nd           | Web:      www.OpenFOAM.com                      |
|    \\/     M anipulation  |                                                 |
\*---------------------------------------------------------------------------*/
FoamFile
{
    version     2.0;
    format      ascii;
    class       volScalarField;
    location    "10";
    object      p;
}
// * * * * * * * * * * * * * * * * * * * * * * * * * * * * * * * * * * * * * //

dimensions      [0 2 -2 0 0 0 0];


internalField   nonuniform List<scalar> 
12225
(
-2.98762137675
-3.7300357743
-3.99850333435
-4.07405761742
-4.12905307105
-4.19100005602
-4.24761851311
-4.28899956662
-4.31289279977
-4.32073333067
-4.31420895805
-4.29379579015
-4.258545524
-4.20623531967
-4.13338310663
-4.03489228538
-3.90188226257
-3.72253878345
-3.15953705597
-3.74419763454
-4.00173789398
-4.0814754678
-4.13672600281
-4.19724005166
-4.25253987
-4.29314644789
-4.31672335973
-4.32454053966
-4.31817531877
-4.29806612539
-4.26328559282
-4.21169013551
-4.13997777877
-4.04354513242
-3.91596075826
-3.76877886442
-3.30169408404
-3.73395976207
-3.98477168389
-4.07861563945
-4.13891911379
-4.19960668851
-4.2543523428
-4.29495805194
-4.31912853356
-4.32791798133
-4.32276729389
-4.30412366233
-4.27120243681
-4.22215632512
-4.15426010578
-4.06416548467
-3.94838875601
-3.81650201023
-3.42541600879
-3.74667356419
-3.98512417829
-4.09008705841
-4.15320694812
-4.21162820387
-4.26392299643
-4.30339568287
-4.32762070221
-4.33721922668
-4.33336320897
-4.31647177217
-4.28594186731
-4.24032186734
-4.17760459269
-4.09571686359
-3.99336586003
-3.8774803926
-3.53523039958
-3.77366401436
-3.98930267594
-4.09857522179
-4.16294557809
-4.21901628295
-4.2692731204
-4.30831203679
-4.33342321167
-4.34468924707
-4.34298371008
-4.32872959129
-4.30157502553
-4.26054626981
-4.20440090098
-4.13221167755
-4.0442484096
-3.94597905832
-3.63322936568
-3.8102363429
-3.99914426478
-4.10910418587
-4.17543863504
-4.23061028975
-4.27976483465
-4.31884553627
-4.34508249248
-4.35818154813
-4.35882719563
-4.34752683007
-4.32424002088
-4.28850366378
-4.23980457712
-4.17817014855
-4.1049578544
-4.02518875115
-3.7213762421
-3.85333698159
-4.01513479282
-4.12221961699
-4.18976808229
-4.24410958919
-4.29193396337
-4.3306277533
-4.35764387248
-4.37246624035
-4.37563594096
-4.3677368849
-4.34901118531
-4.31945386861
-4.27916974997
-4.22890865647
-4.17069233666
-4.10920334964
-3.80138268298
-3.90057509875
-4.0369572134
-4.13834210609
-4.20610089356
-4.25980841576
-4.30659699047
-4.34514701026
-4.37327848898
-4.39033739966
-4.39672206035
-4.39305581605
-4.37981471886
-4.35738468173
-4.3263691868
-4.28802938871
-4.24473983044
-4.20079621693
-3.87469050506
-3.95018231208
-4.06399469462
-4.15782630646
-4.22473036405
-4.27788828311
-4.32393978727
-4.36255335182
-4.39198566271
-4.41153860348
-4.42150060556
-4.42252526424
-4.41528773727
-4.40049946849
-4.37914371579
-4.3528044486
-4.32396156246
-4.29636873542
-3.94249608882
-4.00090774558
-4.09547346294
-4.18083845059
-4.24592024105
-4.29850087082
-4.34410860088
-4.38304775382
-4.41402379092
-4.43638310434
-4.45034746693
-4.45659119052
-4.45593998861
-4.44934458706
-4.43803785202
-4.42375499975
-4.40890417281
-4.39664912754
-4.00575756074
-4.05187213725
-4.13053075185
-4.20731554159
-4.26985509531
-4.32179252335
-4.36725065566
-4.40683118626
-4.43964059437
-4.46512898903
-4.48348831925
-4.49539889047
-4.50178046658
-4.50373107722
-4.50261186433
-4.50017326244
-4.49863586327
-4.50054720933
-4.06033948074
-4.09838231316
-4.16526421933
-4.23457428799
-4.29437629909
-4.34566658492
-4.39124484463
-4.43172771804
-4.46650730622
-4.49515553444
-4.51786153193
-4.5352980128
-4.548419252
-4.55838162169
-4.56656931379
-4.57465827714
-4.58464458086
-4.59857364761
-4.11192430697
-4.14396630484
-4.20132267319
-4.26387682689
-4.32085813651
-4.37149664107
-4.41739959309
-4.45904773149
-4.4960346495
-4.52805162682
-4.55529734419
-4.5784250547
-4.5983861777
-4.6163337881
-4.63361481174
-4.65177274245
-4.67255671492
-4.69751911508
-4.16778130611
-4.19488863246
-4.24386536933
-4.29987522768
-4.3538167704
-4.40379647042
-4.45034017332
-4.49367244247
-4.53351260754
-4.56966230855
-4.60233225237
-4.6321367017
-4.65997771806
-4.68694513034
-4.71427228065
-4.7433076623
-4.77550120882
-4.81191459055
-4.22744057218
-4.25075857049
-4.292899768
-4.34312478257
-4.39418143728
-4.44368710248
-4.4913245087
-4.53700373425
-4.5804769773
-4.62162217983
-4.6606426977
-4.69809089455
-4.73476225749
-4.77161826453
-4.80970601435
-4.85012465268
-4.89399850982
-4.94191157372
-4.28996916766
-4.3106427819
-4.34778055181
-4.39356414259
-4.44244610477
-4.49202305906
-4.54143905279
-4.59029770906
-4.63831078915
-4.68536698157
-4.73163983038
-4.77756873654
-4.82380560259
-4.8711097106
-4.92030089715
-4.9721838963
-5.02756669979
-5.08658624481
-4.35350150882
-4.37264602889
-4.40682175997
-4.45006540019
-4.49812101511
-4.5487974068
-4.60096785102
-4.65400688586
-4.70753426323
-4.76139572011
-4.8156765946
-4.87067749292
-4.92685024119
-4.98472707633
-5.04485730399
-5.10776048797
-5.1739358907
-5.24314685427
-4.41426530192
-4.43299103578
-4.46644882469
-4.50958450096
-4.55883291518
-4.61219223565
-4.66843847989
-4.72681072566
-4.78682835713
-4.84824613069
-4.91102409154
-4.97529514794
-5.04130068679
-5.10933961436
-5.17970667607
-5.25266651263
-5.32846758493
-5.40658508279
-4.46461689076
-4.48426473878
-4.51978426096
-4.56600911278
-4.61927669332
-4.67756829054
-4.73965491255
-4.80473783517
-4.87225104649
-4.94183164743
-5.0132915998
-5.08659621623
-5.16179462465
-5.23898304617
-5.3182398062
-5.39962030705
-5.4831705925
-5.56814322381
-4.4830138346
-4.50511256115
-4.54578571027
-4.59829664189
-4.65787401334
-4.7223212748
-4.79061219061
-4.86210190371
-4.93620106546
-5.01246853111
-5.0906066642
-5.17050693761
-5.25211594474
-5.33544634216
-5.42045321438
-5.50709857855
-5.59531307352
-5.6842585063
-4.47700455286
-4.50254720548
-4.55026283634
-4.61052468272
-4.67684029599
-4.74703157275
-4.82062999194
-4.8972635873
-4.97638301293
-5.05746377091
-5.14020390752
-5.22446107021
-5.31021084186
-5.39740834658
-5.48600911672
-5.5758922611
-5.66699537539
-5.75840911728
-4.45275430573
-4.48380576544
-4.54175649084
-4.61177947737
-4.68528696648
-4.76094050985
-4.83935496528
-4.92052868308
-5.00385115584
-5.08873796313
-5.17488729812
-5.26222266654
-5.35074779754
-5.44043764878
-5.53121125585
-5.62292008433
-5.71543947754
-5.80782384125
-4.41306121659
-4.45292997324
-4.52529203312
-4.60672295746
-4.68710863668
-4.76752972888
-4.85021851652
-4.93541218693
-5.0223273751
-5.11032796503
-5.19920832759
-5.28902370411
-5.37984518707
-5.47167868067
-5.56440084078
-5.65785025642
-5.7518659207
-5.84556118346
-4.35946228035
-4.41365109363
-4.50562981776
-4.59920199126
-4.68526142523
-4.76950660467
-4.85590388888
-4.94448697985
-5.03411683307
-5.12414976851
-5.21457431586
-5.30563832759
-5.39754308702
-5.49032002654
-5.5838464606
-5.67788000513
-5.77218769995
-5.86572666327
-4.2923791846
-4.36987590358
-4.48707192006
-4.59180996658
-4.68158061942
-4.76892258031
-4.85899635965
-4.95106494171
-5.04353204984
-5.13579968323
-5.22806612368
-5.32073958272
-5.41409185318
-5.50815891066
-5.6027845639
-5.69768513102
-5.79259372644
-5.88648214602
-4.21126030649
-4.32623396167
-4.47315689321
-4.58569624802
-4.67637386191
-4.76533463849
-4.85764190675
-4.95144981654
-5.04496806626
-5.13791551698
-5.23081264324
-5.32422984235
-5.41845549436
-5.51346449817
-5.60900990794
-5.70469392598
-5.80004737539
-5.89368817522
-4.1148010588
-4.2884625833
-4.46632087182
-4.58260338539
-4.67426712066
-4.76674163862
-4.86269866605
-4.9587806811
-5.05326391483
-5.14646826288
-5.23942933532
-5.33298613689
-5.42752108665
-5.52298797331
-5.61909670946
-5.71539266035
-5.81126910622
-5.90499262092
-4.0012105352
-4.26319394081
-4.4627656997
-4.57208461302
-4.66098715944
-4.75616651403
-4.85582207711
-4.95456375748
-5.05053928508
-5.14453180695
-5.23800400277
-5.33205394511
-5.42715810408
-5.52329848048
-5.62019934557
-5.71744437721
-5.81437550143
-5.9086800422
-3.86848500504
-4.26731396011
-4.48394481803
-4.58121272202
-4.66428684876
-4.75904650837
-4.85962667974
-4.95898018071
-5.05504535386
-5.14883266363
-5.24204422704
-5.33591634236
-5.4309781126
-5.52723324442
-5.62445623386
-5.7224151964
-5.82091909696
-5.91873814306
-3.69899584426
-4.24555186054
-4.47984119188
-4.57424801371
-4.65701685021
-4.75333791719
-4.85558304425
-4.95612657069
-5.05292037816
-5.14713904931
-5.24063222663
-5.33472494474
-5.429990246
-5.52645926751
-5.62394300853
-5.72234348969
-5.82189853785
-5.92698661445
-2.8966464343
-2.90002753079
-2.90409586804
-2.90777456884
-2.91507281869
-2.93047615508
-2.9577336714
-2.99955940897
-3.05794901822
-3.13446697971
-3.23028614964
-3.34624253402
-3.48286182409
-3.64042152006
-3.81897424869
-4.01840789818
-4.23846235859
-4.47878417263
-4.73893494072
-5.01843817993
-5.31678061427
-5.63345297301
-5.96794331313
-6.31977271193
-6.68848306994
-7.07366930511
-7.47496147605
-7.89205557299
-8.32468742865
-8.77266044405
-9.23581168285
-9.71403586642
-10.2072377055
-10.7153485313
-11.238266934
-11.7758666739
-12.3279205149
-12.8941009151
-13.4738901224
-14.066573297
-14.6711401721
-15.2862809869
-15.9102938401
-16.5410865184
-17.1760872076
-17.8122487327
-18.4459905104
-19.0732628895
-19.6895590478
-20.2899998273
-20.8693481655
-21.422092986
-21.9424968104
-22.4246944721
-22.8628307958
-23.2512842331
-23.5849200919
-23.8593057001
-24.070845334
-24.2167018718
-24.2945855193
-24.3024493688
-24.2382397126
-24.0997061516
-23.8849520975
-23.5933111394
-23.2251252659
-22.7806888128
-22.2598015244
-21.6613117996
-20.9828783742
-20.2206966616
-19.3695677686
-18.4230549021
-17.3741283293
-16.2159102785
-14.9429022762
-13.5521574731
-12.0446323468
-10.4260695357
-8.70777005628
-6.90654596415
-5.0441960429
-3.14619028833
-1.24053501546
0.64394451983
2.47958579422
4.24182530853
5.90972457122
7.46636203282
8.89968879859
10.2029427777
11.3739231905
12.4138226577
13.326768141
14.1193743861
14.8000224067
15.3785033789
15.8648355201
16.2687583511
16.599835828
16.8675657219
17.0811997547
17.2485270231
17.3769728432
17.4715778635
17.5433731647
17.5942863786
17.6175062807
17.6132458457
17.5868467741
17.5437427984
17.488449152
17.4246325157
17.3551361905
17.2821281995
17.2071901163
17.1315109421
17.0559549412
16.9811876287
16.9076814532
16.8358015813
16.7658050815
16.6979092645
16.6322464211
16.5689367131
16.5080481085
16.4496817404
16.3938905378
16.3406976183
16.290069728
16.241968831
16.1963077569
16.1530090017
16.1119638125
16.073085657
16.0362707308
16.0014421666
15.9685142063
15.9374215946
15.9080845357
15.8804374718
15.8544298501
15.8300299047
15.8072165522
15.7859757691
15.7662899302
15.7481923434
15.7317204557
15.7168774725
15.7036764069
15.6921538312
15.6823626959
15.6743806175
15.6682643205
15.6640375622
15.6617806736
15.6615896347
15.6634242056
15.6671224817
15.6725996287
15.6797800537
15.6883841319
15.6980819718
15.7085409356
15.7194589943
15.7305599699
15.7416106683
15.7524053005
15.7627734982
15.7725693168
15.7817006151
15.7901128267
15.7978833477
15.8053387627
15.8131415688
15.8221702257
15.8332285983
15.848630759
15.8511022211
-2.87247857474
-2.8812650884
-2.89439731269
-2.90462588344
-2.91147539325
-2.92539672194
-2.95239410835
-2.99492317115
-3.05474531671
-3.13323959002
-3.2314224234
-3.3499939765
-3.48936657448
-3.64971910597
-3.83102504587
-4.0331050045
-4.25564915429
-4.49826345356
-4.76048427039
-5.04181644085
-5.34174047788
-5.65974386101
-5.99532226978
-6.34800515136
-6.71735148295
-7.10297322422
-7.50452702019
-7.92173388151
-8.35436506352
-8.80225895578
-9.26529938978
-9.7434256072
-10.2365999721
-10.7448091827
-11.2680190928
-11.806164065
-12.3590885037
-12.9265255286
-13.5080248194
-14.1029192244
-14.7102461538
-15.3287179639
-15.9566548754
-16.5919618606
-17.2320544253
-17.8738206096
-18.5135939675
-19.1472151311
-19.7700787311
-20.3771750617
-20.963125414
-21.5222434553
-22.0485778658
-22.5360083736
-22.9784657143
-23.3702340404
-23.7062437702
-23.9822632279
-24.1949589004
-24.3417220166
-24.4204202247
-24.4291804569
-24.3657847964
-24.2270285093
-24.0106641623
-23.7171838189
-23.347999064
-22.9039812082
-22.385337977
-21.7912520185
-21.1195845824
-20.36661405
-19.5269890469
-18.5938946946
-17.5596210689
-16.4164074923
-15.1576565807
-13.7793178721
-12.2813450264
-10.6687545975
-8.95234264087
-7.14885637731
-5.280428359
-3.37313406646
-1.45551004714
0.442964540038
2.29384592907
4.07186140028
5.75574967889
7.32831372699
8.7769739179
10.0945526854
11.2785239017
12.3297635174
13.2520728131
14.0519886519
14.7379252861
15.31962365
15.8075638215
16.2121624572
16.5438204182
16.8132373253
17.0298870964
17.2008572505
17.3377989678
17.4440795959
17.5195097053
17.5678319965
17.5896652468
17.5867161187
17.5630208542
17.5230134775
17.470720111
17.4095686025
17.3423489802
17.2712275496
17.1978500956
17.1234486315
17.0489543408
16.9750639454
16.9022954628
16.8310325156
16.7615699639
16.6941430457
16.6289472716
16.5661245258
16.5057558175
16.4478255354
16.3923087288
16.3392678134
16.2887469406
16.2407301146
16.195154935
16.151936802
16.1109750141
16.0721711661
16.0354282803
16.0006609713
15.9677890583
15.936741644
15.9074420556
15.8798172475
15.8538197658
15.8294313071
15.8066351875
15.7854181681
15.7657705975
15.7476893471
15.7311872479
15.7162786801
15.7029966933
15.69138518
15.6815030122
15.6734570729
15.6673266102
15.6631613903
15.6609811327
15.6608523995
15.6628043304
15.6667256268
15.6724408795
15.679750416
15.6883956574
15.6980752297
15.7084777065
15.719314446
15.7303209422
15.7412689157
15.7519564829
15.7622172645
15.7719122887
15.7809471307
15.7892951474
15.7970725575
15.8046269488
15.812591288
15.8217327656
15.8327640197
15.8474303446
15.8544156568
-2.83256988505
-2.84579047927
-2.86515540425
-2.8886172104
-2.91570192583
-2.94982081949
-2.99479946968
-3.05340915903
-3.12775978825
-3.21941660174
-3.32949005691
-3.45872996448
-3.60758091235
-3.77625024096
-3.96474379488
-4.17292098742
-4.40051859027
-4.64719553437
-4.91254739321
-5.19614189846
-5.49752579888
-5.81625414641
-6.15189175626
-6.50403742955
-6.87232225157
-7.25643119328
-7.65609788319
-8.07112382748
-8.50136764943
-8.94676001724
-9.40728502251
-9.8829874208
-10.373942689
-10.8802532784
-11.4020045339
-11.939247501
-12.4919409559
-13.0599223038
-13.6428344713
-14.2400813127
-14.8507486526
-15.4735671954
-16.1068526399
-16.748478574
-17.3957946429
-18.045562664
-18.6939405105
-19.3365658263
-19.9686337721
-20.5849000423
-21.1797298304
-21.747135544
-22.2807944081
-22.7742022083
-23.2210024808
-23.6153566324
-23.9522192709
-24.2275064182
-24.4380738761
-24.5816103639
-24.656450622
-24.6609448039
-24.5924250225
-24.4472168155
-24.2243936979
-23.9258926401
-23.5533977292
-23.1083487438
-22.5915345235
-22.0026643729
-21.3399834836
-20.599948112
-19.7770483572
-18.8638815019
-17.8516650122
-16.7311482238
-15.4938832042
-14.1338341931
-12.6491705754
-11.0435969534
-9.32707958156
-7.51616964501
-5.63359699328
-3.70665170283
-1.76513020448
0.160159376363
2.03914195258
3.84492208533
5.55514511057
7.15173942687
8.62151470771
9.95686293446
11.1550224462
12.2170210235
13.1468194089
13.9514680955
14.6401380322
15.2236414842
15.7133416689
16.1208629642
16.4566185765
16.7333948802
16.9626893604
17.1465017191
17.2888233768
17.3963587775
17.4731936507
17.5227731068
17.5467804501
17.5472873504
17.5277113838
17.4918967687
17.4435270325
17.3858507994
17.3216153385
17.2530086164
17.1817478674
17.1091321834
17.0361637366
16.9635847761
16.891960945
16.8217020681
16.7531383849
16.6865194044
16.6220561489
16.5598844682
16.5001138614
16.4428000542
16.3878741684
16.3352565415
16.2850310272
16.2372440246
16.1918773412
16.1488534006
16.10808266
16.0694559882
16.0328798951
15.9982682567
15.9655475643
15.9346399644
15.905475066
15.8779890919
15.8521186237
15.8278204873
15.8050818988
15.7838993846
15.7642721473
15.746203509
15.7297209149
15.714851676
15.7016492861
15.6902016527
15.6805545656
15.6727522241
15.6668610822
15.6629781033
15.6611763645
15.66141525
15.6636048667
15.667641223
15.6733721396
15.6806062893
15.6891020402
15.6985810471
15.7087531392
15.7193421013
15.7300915445
15.7407738032
15.7511865148
15.7611594168
15.7705506152
15.7792666179
15.7872857184
15.7947138273
15.8018452553
15.8091840862
15.8174017072
15.8272598912
15.840186683
15.849345113
-2.8241198391
-2.84284474188
-2.87084120344
-2.90703533552
-2.95140994921
-3.00505364719
-3.06969398474
-3.1471058542
-3.23891671271
-3.3464745247
-3.47080826438
-3.61265645111
-3.77249046989
-3.95056780048
-4.14695987336
-4.36160309676
-4.59431926697
-4.84485831899
-5.11290996341
-5.39813835222
-5.70018737981
-6.01870869169
-6.35336362749
-6.70384793637
-7.0698907678
-7.45127761631
-7.84784723136
-8.2595113969
-8.68624666647
-9.12810902336
-9.58521640431
-10.0577545287
-10.5459465803
-11.0500467813
-11.5702936012
-12.1068881886
-12.6599333796
-13.2293992011
-13.8150441038
-14.4163621279
-15.0324969556
-15.662200084
-16.3037727098
-16.955039527
-17.6132543821
-18.2750124721
-18.9362343198
-19.5922812143
-20.2380702908
-20.8680386453
-21.4761785698
-22.0560651132
-22.6008649894
-23.1035913825
-23.5575774204
-23.9568849332
-24.2964587695
-24.5722880161
-24.7815297293
-24.9223994579
-24.9936973765
-24.9937059884
-24.9191120256
-24.7663283094
-24.5360272614
-24.2317801489
-23.8560001326
-23.4108641054
-22.8978965116
-22.3174982106
-21.6684779824
-20.9476394727
-20.1494534083
-19.2658987795
-18.2868144819
-17.2008473539
-15.9967849879
-14.6653682539
-13.2016394123
-11.6069176595
-9.88972700868
-8.06617376414
-6.15984984604
-4.20004825762
-2.21918566203
-0.250946743714
1.67168900198
3.5193347906
5.26768378816
6.89764937996
8.39500101718
9.751892654
10.9656189071
12.0383614761
12.9757765611
13.7864178966
14.4810308836
15.0718072415
15.5703592884
15.9906860866
16.3450896072
16.6381740607
16.8758459396
17.0654517975
17.213425826
17.325699951
17.4066219325
17.4595984724
17.4871254776
17.4918046931
17.4768830103
17.4458818922
17.4021937394
17.3488828206
17.2885865371
17.2234784287
17.1552937221
17.085386343
17.0148021682
16.9443341078
16.8745823875
16.8059966765
16.7389326791
16.673671252
16.6104346118
16.5493794658
16.4906174474
16.4342129485
16.3801830175
16.3283961718
16.2788213191
16.2315643125
16.1866403469
16.1439980596
16.103565021
16.0652518086
16.0289689803
15.9946227485
15.9621339541
15.9314278701
15.9024359685
15.8750923058
15.8493433735
15.8251590779
15.80253198
15.7814612703
15.7619659155
15.7440509826
15.7277476686
15.7131263888
15.7002056681
15.6890208112
15.6796273982
15.6721206467
15.6666154557
15.6631145622
15.6616003052
15.6620387245
15.6643536223
15.6684368447
15.6741388728
15.6812690359
15.6895964652
15.6988581218
15.7087810256
15.7190983464
15.7295609008
15.7399417298
15.750039304
15.7596795203
15.768720002
15.7770631902
15.7846791024
15.7916433355
15.7981800193
15.8046668061
15.8115888054
15.8194927451
15.8294146227
15.8360229619
-2.88942827592
-2.91069471187
-2.94389662288
-2.98873759762
-3.0449280901
-3.11278425378
-3.1930087076
-3.2864739789
-3.39408380037
-3.51666297885
-3.65488900904
-3.80928087678
-3.98018798788
-4.16781694042
-4.37223932715
-4.59342853811
-4.8312688796
-5.0855905737
-5.35617531528
-5.64278636889
-5.94517064006
-6.26308577204
-6.59630045639
-6.94461926673
-7.30788341179
-7.68599391491
-8.07891042648
-8.48667215334
-8.9093913159
-9.34726758025
-9.80057141399
-10.2696483784
-10.7548882904
-11.2567154236
-11.7755396109
-12.3117301866
-12.8655511612
-13.4371220604
-14.026333714
-14.6327865373
-15.255695433
-15.8938404064
-16.5455082503
-17.2084691185
-17.8798727634
-18.5561358941
-19.2329143481
-19.9052490713
-20.5677223623
-21.2143825092
-21.8387330685
-22.4337341847
-22.9918424808
-23.5054421404
-23.9674483157
-24.3716795075
-24.7129389472
-24.9873840005
-25.1927766581
-25.3281254361
-25.3927193748
-25.3844297916
-25.2986469468
-25.133705889
-24.8929270401
-24.5802659617
-24.1990237508
-23.7521914879
-23.2422401761
-22.6706460415
-22.037267918
-21.3397839564
-20.5731440274
-19.7289894121
-18.7955796251
-17.7586559554
-16.6029487711
-15.3142374947
-13.8824958811
-12.3052616297
-10.5889707433
-8.74951409294
-6.8123395509
-4.80987040281
-2.77867927304
-0.75692601404
1.21871626746
3.11542829276
4.9062344163
6.57079818124
8.09507693145
9.47308967472
10.7025441806
11.7878383289
12.7362810541
13.5589642872
14.2675129649
14.8765047475
15.399009826
15.840535273
16.2084647495
16.5119787816
16.7592162114
16.9574895345
17.1131584487
17.231894517
17.3183298973
17.3762404374
17.4087065883
17.418714918
17.409458237
17.3842478455
17.3462338851
17.2983078895
17.24297811
17.1823798953
17.1182391393
17.0519507587
16.9845908291
16.9170066887
16.8498286662
16.7835589264
16.7185764884
16.6552031385
16.5936691394
16.5341609525
16.4767913444
16.4216504457
16.3687834679
16.3181138968
16.2695232071
16.2230754804
16.1788271671
16.1367779731
16.0968679901
16.059028355
16.023169517
15.9892116809
15.9570745921
15.9266911835
15.8979938724
15.8709254734
15.8454376244
15.8215092487
15.7991459204
15.778347235
15.7591317899
15.7415525897
15.7256066527
15.7113045241
15.6986899626
15.6878221259
15.6788302413
15.6717772033
15.666655996
15.6634716081
15.6622058695
15.662819261
15.6652334982
15.6693385257
15.6749837483
15.6819832118
15.6901135219
15.6991267349
15.7087618231
15.7187630735
15.7288853759
15.7389042507
15.7486151615
15.757840617
15.7664305494
15.7742770087
15.7813280171
15.7876169975
15.7932821954
15.7985611323
15.8037276238
15.8090197934
15.8148374146
15.815851871
-3.02564034652
-3.04707051513
-3.08242970716
-3.13195858067
-3.19512950053
-3.27191333005
-3.36247333784
-3.46710477337
-3.58615839893
-3.71998388552
-3.86888103467
-4.03308860596
-4.21276305796
-4.40799191159
-4.61878711478
-4.84510902301
-5.08686402273
-5.34393061605
-5.61615688322
-5.90338590347
-6.20545347736
-6.52221213117
-6.85353077142
-7.19931902472
-7.5595277999
-7.9341735121
-8.32333847384
-8.72719178446
-9.14598461836
-9.58006405235
-10.0298573047
-10.4958741264
-10.97867554
-11.4788614
-11.9970193454
-12.5336943812
-13.0893212074
-13.6641803817
-14.258310089
-14.8714366085
-15.5028682725
-16.151434083
-16.8154214932
-17.4925574348
-18.1799044816
-18.8737253693
-19.569422739
-20.2616862594
-20.9446860063
-21.6119658561
-22.2563421177
-22.8699134612
-23.4442017197
-23.9707952423
-24.4420500455
-24.8513739219
-25.1933812502
-25.46470064
-25.6640912226
-25.791548939
-25.8466886152
-25.8265320815
-25.7251590673
-25.5436362702
-25.2886977895
-24.9642574386
-24.5741813004
-24.1223163727
-23.6124704142
-23.0478868581
-22.430293856
-21.7589498201
-21.0297909135
-20.2343594139
-19.3590053735
-18.385516199
-17.2930251872
-16.0604130131
-14.670738712
-13.1167965127
-11.4026527981
-9.54462160665
-7.57086443028
-5.5185606842
-3.42997028403
-1.34942973295
0.681718747775
2.62814235627
4.46170485145
6.16178927773
7.71373824229
9.11426393602
10.3622644315
11.4662049481
12.4354706048
13.2833188461
14.0222824241
14.6583312183
15.1998044313
15.6567689939
16.0387644836
16.354924137
16.613466759
16.8217606306
16.9863403316
17.1129514112
17.2064716213
17.2709793722
17.3099577951
17.3266322097
17.3242073126
17.3058397892
17.2745204207
17.2329771997
17.183621151
17.128518858
17.0693922746
17.0076424023
16.9443847588
16.8804970902
16.8166591757
16.7534061147
16.691163094
16.6302724545
16.5709959711
16.5135321372
16.4580187326
16.4045533064
16.3531923624
16.3039512834
16.2567113743
16.2114218109
16.1681632882
16.1269718876
16.0878234721
16.0506662182
16.0154292455
15.9820419229
15.9504339945
15.9205412893
15.8922981466
15.865653308
15.8405750658
15.8170494132
15.7950764528
15.7746986223
15.7559334175
15.7387689204
15.7232160251
15.7092960271
15.6970771494
15.6866748248
15.6781502926
15.671505316
15.6667393711
15.6638507621
15.6628160853
15.6635891181
15.666088487
15.6702018566
15.6757790724
15.6826380985
15.6905633189
15.699318291
15.7086528644
15.7183200105
15.7280792344
15.7377069542
15.7469953428
15.755760698
15.7638424581
15.7711159539
15.7774997097
15.7829746526
15.7875852024
15.7914199931
15.7945335354
15.7968164171
15.7980043264
15.7924507066
-3.21043197445
-3.23082218123
-3.26646121262
-3.31776796481
-3.3842278139
-3.46572024542
-3.56213034216
-3.67341823122
-3.79957723195
-3.94061778114
-4.09654162986
-4.26734185981
-4.45298515592
-4.65342295264
-4.86857923999
-5.09836775397
-5.34268205998
-5.60141495271
-5.87445012483
-6.16168229727
-6.46301111356
-6.77836318974
-7.10768929584
-7.45098777357
-7.8083058108
-8.17976299688
-8.56555267217
-8.96596313973
-9.38137396022
-9.81226928829
-10.2592227817
-10.7228985459
-11.2040198287
-11.7033538233
-12.2216598978
-12.759655389
-13.3179446928
-13.896971554
-14.4969287604
-15.1176825887
-15.7586559176
-16.4187491769
-17.0962650064
-17.7888904357
-18.4936088957
-19.2065539041
-19.9228767543
-20.6368402564
-21.3420421454
-22.0313637966
-22.6967506704
-23.3293249446
-23.9196541482
-24.4585348016
-24.9376948893
-25.3500021581
-25.6900864644
-25.9555769675
-26.1467720976
-26.2644569988
-26.3073033461
-26.270174429
-26.1480464226
-25.9461507068
-25.6733918105
-25.3331577335
-24.929995786
-24.4691628906
-23.9565122068
-23.3978458695
-22.7974373197
-22.1564097481
-21.4716408318
-20.7343163954
-19.9285080881
-19.0314538203
-18.0157964665
-16.8520889398
-15.5150073884
-13.9909111715
-12.2819836921
-10.4068120018
-8.39797081452
-6.29778508592
-4.15327859301
-2.01502390371
0.0707245734394
2.06513710205
3.93956807812
5.6733186153
7.25471719717
8.68337786204
9.95984491746
11.0971120974
12.1043843593
12.9854984593
13.7491437574
14.4058149462
14.9658686322
15.4395965706
15.8367634102
16.1665782278
16.4374687101
16.6569774833
16.8318030788
16.9677984379
17.0700255789
17.1427882807
17.1898407965
17.2145677982
17.2202003743
17.2097940557
17.1862263587
17.1520941307
17.1097258031
17.061119233
17.0079833285
16.9517121901
16.8934540644
16.8341078491
16.7744048431
16.71490904
16.6560945959
16.5983211622
16.5418885115
16.4870057097
16.4338436857
16.3825065997
16.3330795061
16.2855982407
16.2400202157
16.1962507416
16.1543277867
16.1143084571
16.0762061975
16.0399869878
16.0056070936
15.9730037408
15.9421190509
15.9128947825
15.8852821437
15.8592336848
15.8347179022
15.8117387239
15.7903352173
15.7705178893
15.752273033
15.7356119119
15.7205445771
15.7071076554
15.695412844
15.6855300038
15.677468351
15.6712328706
15.6668242887
15.6642322532
15.6634288997
15.6643599893
15.6669425956
15.6710607378
15.6765670894
15.6832817399
15.6909980964
15.6994874977
15.7085109331
15.7178266607
15.7271994866
15.7364041978
15.7452301128
15.7534833833
15.7609912493
15.7676058799
15.7732113941
15.7777277465
15.7811030006
15.7832749461
15.7840810981
15.7830821827
15.779431089
15.7672957597
-3.41619036378
-3.43508279246
-3.47003630939
-3.52140336409
-3.58884191613
-3.67224985704
-3.77138730289
-3.88604034997
-4.01599199568
-4.16103548629
-4.32096695317
-4.49559781724
-4.68474379363
-4.88823876593
-5.10592207993
-5.33765332949
-5.58329884888
-5.84274730427
-6.11589706046
-6.40267350397
-6.70301981626
-7.01691608854
-7.34437566549
-7.68546737793
-8.04031599883
-8.40912589612
-8.79218310528
-9.18987596934
-9.60269274916
-10.0312344087
-10.4762006359
-10.938389432
-11.4186661484
-11.9179466795
-12.4371453213
-12.9771375246
-13.5386865809
-14.1223909285
-14.7285927278
-15.3572999354
-16.0080617482
-16.6798686551
-17.3710497602
-18.0792404497
-18.8013230795
-19.5333002105
-20.2700789684
-21.0054646586
-21.7324268002
-22.4432481968
-23.1291286835
-23.7803763953
-24.3866456152
-24.9376655139
-25.4239643729
-25.8374908512
-26.173504638
-26.43150048
-26.6131722761
-26.7185989034
-26.7432583071
-26.678573293
-26.5290607046
-26.3054446319
-26.0115179448
-25.6518332007
-25.2327019958
-24.7615582108
-24.2465206788
-23.6957748378
-23.1155874382
-22.5081893428
-21.8709712056
-21.1945348743
-20.4610346181
-19.6438441874
-18.7092920932
-17.6204872503
-16.343799637
-14.8587789051
-13.1642002071
-11.2796226368
-9.24290024397
-7.10205680867
-4.90935431364
-2.72210388627
-0.591333593869
1.44321126012
3.35637361151
5.12615152881
6.74278488382
8.21275873216
9.53562578096
10.7120618454
11.7492443223
12.6561978077
13.4429617899
14.1203151927
14.699050522
15.1897512863
15.6024838409
15.9466476574
16.230817602
16.4626843709
16.6490502678
16.7958826646
16.9083586464
16.9909578917
17.0475898282
17.0817629628
17.0967093996
17.0954369612
17.0807176419
17.0550651411
17.0207174761
16.979628342
16.9334692036
16.8836390172
16.8312921094
16.7773642319
16.7226140686
16.6676539786
16.612984295
16.5590036011
16.5060310082
16.4543088129
16.4040245065
16.3553111547
16.3082683025
16.2629608104
16.219383738
16.1774799108
16.1372482086
16.0987359079
16.0619863876
16.0269917023
15.9937239645
15.9621417715
15.9322024298
15.9038573794
15.8770626671
15.8517735829
15.8279863514
15.805732425
15.7850252556
15.7658538799
15.7482315844
15.7321791558
15.7176923758
15.7048495997
15.6937444345
15.6843917009
15.6768051098
15.6709898438
15.6669442291
15.6646517416
15.6640790768
15.6651666347
15.6678290372
15.6719489529
15.677381107
15.6839492588
15.6914540117
15.6996743653
15.708379736
15.7173335806
15.7263038523
15.7350636482
15.7433975457
15.7511004982
15.757983834
15.7638735327
15.7686141736
15.7720617414
15.7740672486
15.7744239805
15.7727674743
15.7683701574
15.7599423008
15.7416423221
-3.61561197977
-3.63318151357
-3.66729805566
-3.71808116112
-3.78542480402
-3.86926472686
-3.96932206803
-4.08531134552
-4.2169063519
-4.3637771517
-4.52559515531
-4.70205496615
-4.89287032156
-5.09779152083
-5.31659429355
-5.54909444859
-5.79513304553
-6.05459011984
-6.32737037413
-6.61341811374
-6.91270591118
-7.22525223407
-7.55111597801
-7.8904177152
-8.24334029479
-8.61015160207
-8.99120696487