/*--------------------------------*- C++ -*----------------------------------*\
| =========                 |                                                 |
| \\      /  F ield         | OpenFOAM: The Open Source CFD Toolbox           |
|  \\    /   O peration     | Version:  v1806                                 |
|   \\  /    A nd           | Web:      www.OpenFOAM.com                      |
|    \\/     M anipulation  |                                                 |
\*---------------------------------------------------------------------------*/
FoamFile
{
    version     2.0;
    format      ascii;
    class       volScalarField;
    location    "10";
    object      pa;
}
// * * * * * * * * * * * * * * * * * * * * * * * * * * * * * * * * * * * * * //

dimensions      [0 2 -2 0 0 0 0];


internalField   nonuniform List<scalar> 
12225
(
13.3001007583
9.1293827195
8.43114916288
8.19723728848
8.35011288398
8.6161149753
9.01364598754
9.40710388772
9.63915241465
9.54581548214
9.09686358888
8.47562172817
8.06298984551
8.79200555577
12.3276678623
20.5947143092
32.4478351615
34.8387134534
25.7523338228
17.344919329
16.3823766587
16.2789659666
16.5296193364
17.011504931
17.6248020294
18.2639990477
18.7978506525
19.1620158976
19.4373171166
19.8504980624
20.8033197582
23.1313255847
28.044563673
36.2197900143
44.4047934925
40.1470549901
2.16481076317
11.8140853949
12.4399473652
11.8507172437
11.8086869631
11.8210092311
11.8800954278
11.8639020128
11.6781348686
11.3074819157
10.8835088417
10.6940990639
11.2303256286
13.3139631409
17.9635458462
25.3033989519
31.8882256405
29.3996294579
24.9067893328
16.3404863767
15.9455491793
15.7512563053
15.7916044951
15.899351399
16.0226202328
16.0420037583
15.8654184803
15.4678984888
14.9405699434
14.5187881824
14.6416325485
15.9643302903
19.1220732974
23.7361314828
26.8696868509
24.1094126443
12.6516496439
14.6310784388
14.4719690965
14.3534149828
14.3972575691
14.5410991048
14.7225718885
14.8565584674
14.8768061573
14.7770062386
14.6371387643
14.6514534346
15.1686801508
16.6343634755
19.2827352921
22.3900902519
23.723348611
21.2635233085
16.7322999682
15.6038234533
15.5385863363
15.3407544702
15.2881754579
15.2914225211
15.3195604529
15.3067772976
15.21944639
15.0743860424
14.9600140109
15.0524303657
15.6252368856
16.9488992398
18.9905537125
20.9588515357
21.3526166489
19.3835905684
15.9173631197
15.7682885515
15.7392769675
15.6303104232
15.5914886258
15.5882322738
15.5921752949
15.5572472742
15.4686648445
15.3537357907
15.2987244126
15.4535039202
16.0142384247
17.1082198447
18.5594391842
19.6854475198
19.5846806282
18.0254643391
16.0807178097
16.0001782494
15.9960973104
15.917945419
15.8717641243
15.8451890449
15.8200762412
15.7657152861
15.6804642016
15.5954548117
15.5874983758
15.7733213375
16.2752658954
17.1156780576
18.0672707105
18.616232501
18.2684097087
17.0105540361
16.1773141381
16.2039863267
16.2020151964
16.1507290678
16.1004096957
16.0564336068
16.010027883
15.9425482598
15.8618502249
15.7986537321
15.8172288664
15.9999334618
16.4086375752
17.001918021
17.5610341865
17.7339629986
17.2725875418
16.2289669179
16.2741596912
16.3758076092
16.3733967147
16.337291639
16.2843042884
16.2271021841
16.1654650584
16.089075499
16.0115945832
15.9604792061
15.9850831573
16.1369746575
16.4344620481
16.8068117055
17.0731431177
17.0091240171
16.5018950307
15.6167768313
16.3744233002
16.5098029996
16.4931904543
16.4634080061
16.4085802734
16.3424276137
16.2704025916
16.1880483198
16.111352329
16.0628795218
16.0767823287
16.1800397776
16.3635233573
16.5515861306
16.6082494024
16.3994060154
15.8829183162
15.1168612484
16.4509636618
16.5739416301
16.5278931029
16.4969139019
16.4410856997
16.3698683515
16.2923106727
16.2062931202
16.1282861318
16.0751046933
16.0686782615
16.1190680365
16.206694488
16.2611224521
16.1863647458
15.9003125203
15.3936390964
14.7166135056
16.4878197227
16.5765559261
16.5035290774
16.4649007526
16.4085644888
16.3339046328
16.253917253
16.1657983526
16.08572208
16.0241187489
15.9928320878
15.9936996014
15.9973798515
15.9508145914
15.7832343515
15.4524859717
14.9633193748
14.3605168006
16.500632677
16.5262424631
16.4370092098
16.3829479362
16.322756918
16.2428744292
16.1589842335
16.0679880199
15.9823487463
15.9070391708
15.8479660589
15.7962749657
15.7266330573
15.595599017
15.3612695751
15.0021395889
14.5376220417
14.0014428012
16.4812809904
16.439780047
16.3486975727
16.2736379014
16.2080669988
16.1166436395
16.0264578239
15.9260596616
15.830177427
15.7350512803
15.6444450173
15.5431994366
15.4128554085
15.2187012672
14.9408825104
14.5701622403
14.1334062301
13.6580172693
16.4155439329
16.3164830972
16.235289077
16.1439244892
16.0703455699
15.9685933087
15.8660442582
15.7542401077
15.6398031664
15.5229795801
15.3969772234
15.2558863167
15.0754333441
14.8433330487
14.5399920482
14.1761371914
13.7677599154
13.3482360947
16.2989007556
16.139158757
16.0759355804
15.9700899525
15.8920588582
15.7785568195
15.6646582737
15.536207977
15.4025124174
15.258764837
15.1028420752
14.9246758036
14.7132024478
14.4559110247
14.1489558047
13.7978323968
13.425867843
13.050978901
16.1442887552
15.920269522
15.8730272196
15.755929163
15.6746765941
15.5511955231
15.4263831961
15.2820501373
15.1295199196
14.9620504967
14.7808433607
14.5768352646
14.3459417123
14.0786658804
13.777206198
13.4458716411
13.1076715949
12.773802978
15.9555287984
15.6888237827
15.6552782651
15.529772555
15.4432282536
15.3101696514
15.1742533429
15.0156565408
14.8468378326
14.6612699794
14.4622996252
14.2429079202
14.0030996318
13.7354590632
13.444897032
13.1345006851
12.8257706981
12.5261442824
15.8074274145
15.5740458935
15.5244148165
15.3944850067
15.2983413296
15.1517317138
15.0050566061
14.8295550234
14.6503847264
14.448732999
14.2415001025
14.0119929179
13.7715821537
13.5044831442
13.2250757835
12.9270103356
12.6388148573
12.358474853
15.7361553708
15.5485726104
15.4889523373
15.3582304963
15.2472182488
15.0946332496
14.9318360404
14.7520023502
14.5567428605
14.3524591466
14.1328239629
13.9045199278
13.6578687388
13.3992742392
13.1207420583
12.8382522016
12.5553820452
12.2939720897
15.6391691723
15.5300999629
15.4515515288
15.3295173616
15.2082401021
15.0462242991
14.8727443463
14.6797249313
14.477474071
14.2621583046
14.0371067898
13.8022056631
13.555253164
13.2959113995
13.0231540189
12.7439801112
12.4696448421
12.2088174385
15.9892914743
15.7891575211
15.7060947066
15.5811991525
15.4542698233
15.2869446646
15.1098415067
14.9129929911
14.7058631967
14.4862184299
14.2587627944
14.0205700306
13.7748168321
13.5154860443
13.2492620715
12.9727036671
12.7053672399
12.4546492262
14.3065236238
15.0603069166
14.9634733177
14.8451552603
14.6845837404
14.4934284996
14.2869482733
14.0654594866
13.8351522961
13.593975362
13.3462354766
13.0927574552
12.8331554942
12.5677535647
12.2954584036
12.0209891282
11.7510256229
11.4694270572
20.1259337047
17.5660389196
17.4116837245
17.2953087029
17.1614113921
16.9960466897
16.8213606124
16.6323784723
16.4332477534
16.2213984579
15.9979025283
15.7624376963
15.5156023187
15.2600174636
14.9968657801
14.7284885548
14.4638302366
14.2815328006
4.00448251409
12.5188682458
12.6592309168
12.5882065917
12.3744076888
12.1677980538
11.9442656173
11.7101736031
11.4630889197
11.1994749065
10.9229017582
10.6373162258
10.3438474214
10.0494988346
9.76155656522
9.48579183228
9.22549631001
8.84418439589
38.061896204
21.0142790446
19.6350497825
19.5522835156
19.2968415191
19.034354031
18.7683458858
18.4912341866
18.2064588508
17.9119384142
17.6142408186
17.3299433442
17.0639325518
16.8250183681
16.6231777146
16.453202954
16.2901286811
16.2786259221
-12.8870462095
10.5201832594
12.8284061383
12.5246443762
12.341128025
12.1760498311
12.023598186
11.871815981
11.7143919237
11.5436471916
11.3603012548
11.1677544144
10.9602112148
10.7341201813
10.4867917404
10.2064926365
9.88390607085
9.35770808369
34.063066655
22.4448298019
21.3718076377
21.1854513565
20.8660116673
20.6025526165
20.338573691
20.0836106655
19.8304978936
19.5746157399
19.3152394225
19.0473564007
18.7563383507
18.4323688808
18.0725708895
17.6729027743
17.202251407
16.8537938029
9.32315112421
8.68121192592
7.44525110152
7.41977272337
7.27958282232
7.17054286171
7.07236235944
6.98274689743
6.90604365011
6.83381018391
6.76247813648
6.67969815123
6.56973645424
6.42170231115
6.24092415195
6.07712596967
6.04776337558
6.11943978227
4.17607397509
4.16592482732
4.1620070809
4.16716075635
4.18055126107
4.19689078305
4.21157067977
4.23026863662
4.2572448257
4.29716669163
4.34975909086
4.41589160946
4.49186212964
4.57678868713
4.66620161727
4.75914473843
4.8517897499
4.94367260245
5.03197779924
5.11671525044
5.19616730554
5.27068202968
5.33948184558
5.40322443175
5.46188945228
5.51629383547
5.56707465468
5.6151366519
5.66136545219
5.70655048334
5.75161934109
5.79712749488
5.84377419687
5.89184909281
5.94183238586
5.99361054038
6.04752129242
6.10323543694
6.1608119013
6.21973853717
6.28007541978
6.34117371617
6.40312196253
6.46511678893
6.52731355192
6.58869910333
6.64955480971
6.70869138975
6.76657587952
6.82184947858
6.87507115212
6.92491277454
6.97205765023
7.01556360915
7.0560303755
7.09256790418
7.12536842365
7.15391285544
7.17816132066
7.19822868054
7.21428855682
7.22778714422
7.24014270722
7.25523697712
7.27584936918
7.30149537806
7.32999462027
7.35999947415
7.38997127088
7.41880524884
7.44572734222
7.46975193564
7.49038879512
7.50685131685
7.5184886406
7.52447806711
7.52394591357
7.51612891548
7.49976029345
7.47428203342
7.43805089306
7.39040988113
7.32950868403
7.25508861371
7.16517105579
7.05992018568
6.93818390678
6.80078324857
6.64968543061
6.48606584561
6.31973005464
6.15320162325
5.9894688979
5.82713965035
5.66819261055
5.51235023339
5.35751848415
5.19714644605
5.03572709333
4.88055473183
4.73035277654
4.57667532937
4.41092164774
4.25123659323
4.11246744047
3.99054386338
3.87863359909
3.77865038213
3.70136216878
3.64297346333
3.59998535303
3.5678549529
3.54315579292
3.52364228565
3.5078779171
3.49487596211
3.4841508192
3.47527430243
3.46808578267
3.46222673367
3.45749147953
3.45353324949
3.45029490877
3.44753994899
3.44523325098
3.44309310928
3.44122396551
3.43959611614
3.43865264184
3.43855713044
3.43945383011
3.44106773763
3.44338108774
3.4461129755
3.44923059952
3.45243696063
3.45566976517
3.45860536846
3.46102556378
3.46238615232
3.46230719203
3.46035172874
3.45658495417
3.45097672994
3.44377759384
3.43484656394
3.42429080377
3.41194233941
3.39805434092
3.38257915502
3.3657870487
3.34751642412
3.32792385035
3.30668935294
3.28395900706
3.25941567294
3.23321212841
3.2050192506
3.17504080664
3.14309719174
3.10963467597
3.0742123949
3.03699047522
2.99751029067
2.95598202729
2.91197732924
2.86583560068
2.81738512557
2.76787453503
2.71880119323
2.67337352484
2.63507877853
2.60824563062
2.59497588942
2.59231059042
2.59263036868
2.58186847227
2.54015767325
2.45246577724
2.31819745471
4.11738382384
4.1233351708
4.13971130078
4.15111703403
4.14795786747
4.13559106456
4.12880046722
4.136092035
4.15916791279
4.19779593476
4.24807129782
4.30769335958
4.3722551768
4.44003606331
4.5075224725
4.57377907535
4.6361968624
4.69432569815
4.74631019296
4.79197074451
4.83007527444
4.86069168613
4.88320605616
4.89783729492
4.90453472646
4.90374521665
4.89584350804
4.88145421345
4.8612353042
4.83584473635
4.80600414286
4.77230681651
4.7354435475
4.69576097672
4.65377215577
4.60968931473
4.56382061104
4.51612494031
4.46679614962
4.41561483434
4.36269001413
4.30773072348
4.25085911724
4.19171218686
4.13046558209
4.06667798242
4.00062754039
3.93185090449
3.86077032674
3.78699847523
3.71110733249
3.63275640301
3.55234307238
3.46954500513
3.38487216275
3.29843771855
3.21090419154
3.12286444111
3.03525747626
2.94897060462
2.86451157532
2.78238364521
2.70178422565
2.61915744633
2.53464070692
2.45257102003
2.37586282295
2.3067494674
2.24673744582
2.19684111946
2.15766863426
2.12940763174
2.11200229152
2.10506775923
2.10817498083
2.12078701345
2.14211681265
2.17167013716
2.20864170518
2.25256298059
2.30247621459
2.35777701284
2.41724611199
2.48020203845
2.54525068313
2.61153477499
2.67771481788
2.74379005341
2.80857533789
2.87620881298
2.9473004874
3.02734586963
3.1170462084
3.21409699925
3.31445619048
3.41886932823
3.52563575136
3.62595232263
3.71303605424
3.79281303548
3.85795591521
3.88452753702
3.88491664438
3.88963722752
3.90603138021
3.95751341568
4.02713217978
4.08460236491
4.13303671102
4.17158384908
4.20275750779
4.22738923015
4.246621535
4.26109281428
4.27119565368
4.27737606526
4.28001805407
4.2795859663
4.27644502611
4.27086554157
4.26300652453
4.2530693952
4.24135755181
4.22823886612
4.21405222878
4.19919149527
4.18418435237
4.16959215487
4.15577594842
4.14270071088
4.12983136378
4.11706229003
4.1044443203
4.09195264939
4.07958430741
4.06727827118
4.05504450882
4.042840039
4.03055901205
4.01800606704
4.0048549317
3.99094603074
3.97641210677
3.9615015955
3.94645990784
3.93129697917
3.91597984926
3.90039283227
3.88434836675
3.86753564903
3.84975689063
3.83071913978
3.81029132914
3.78821110598
3.76433353528
3.73830873804
3.70999345562
3.67916293401
3.6460398058
3.6106497334
3.57320571043
3.53371693117
3.49260193311
3.44998431206
3.40637691247
3.36190935951
3.31710978462
3.27238784895
3.22903825395
3.18835700048
3.15244619638
3.12283673082
3.10021691623
3.08091784813
3.0596253464
3.02659958697
2.96794762715
2.87097804597
2.74365303099
2.6509589837
4.01455854779
4.06695004062
4.11152336735
4.12232701771
4.09857947688
4.0622492376
4.03553837711
4.02941713743
4.04309015281
4.0728601289
4.11250503554
4.15881351337
4.2078543721
4.25880222552
4.30959407612
4.36043062003
4.41002922371
4.45874341325
4.50559025351
4.55079616534
4.59364355457
4.63420533802
4.67202471869
4.70719581093
4.73953262352
4.76918533393
4.79629220884
4.821121175
4.84399908125
4.8652589315
4.88532511607
4.90451257455
4.92316268435
4.94154371458
4.95991127644
4.97831368666
4.99693211333
5.01570051831
5.03463365176
5.05355435332
5.07246626668
5.09111665251
5.10952817167
5.12739623267
5.14478261185
5.16133300531
5.17716537264
5.19191573672
5.20581340854
5.21851161729
5.2303066894
5.24104518093
5.2510354837
5.26003709883
5.26821368588
5.27555157997
5.28229502495
5.28855398058
5.29429628054
5.29961903772
5.30418319053
5.30743028472
5.30856833792
5.30892079768
5.30310874291
5.2888850791
5.26684181653
5.23841990226
5.20522392477
5.16879448078
5.13070920462
5.09219147309
5.05436321237
5.01799384256
4.98346357086
4.95081774267
4.91973859182
4.88961310325
4.85947642986
4.82828813206
4.79469535415
4.75751808849
4.71550943961
4.66779736296
4.61363438795
4.55294722466
4.48597946395
4.41295314142
4.33704436444
4.25947775177
4.18603324912
4.12048264777
4.06531023903
4.02151514823
3.98380682927
3.95432181515
3.93896148537
3.9300778933
3.92167348207
3.91688572893
3.89627997706
3.8438598548
3.80777581616
3.81968999733
3.86282641532
3.94109847514
4.05058042485
4.14190165604
4.19484259983
4.21948113351
4.22806485318
4.22823549467
4.22414701604
4.217793905
4.2100233963
4.20125757629
4.19163335128
4.18132295736
4.17035387965
4.15874078747
4.14636632295
4.13330313412
4.11964431949
4.10564425615
4.09143334985
4.07722158048
4.06280812227
4.04797737866
4.03215305969
4.01509756856
3.99714028641
3.97871638562
3.95989308963
3.94073125886
3.92115466816
3.90124531666
3.88103087106
3.86062546648
3.83992766991
3.81862651499
3.79635162491
3.77297597155
3.74869173811
3.72393419045
3.69916284901
3.67507048322
3.65220148891
3.63090909827
3.61120403221
3.59303031035
3.57639713516
3.56136982962
3.54791147966
3.536024396
3.52568491734
3.51675786092
3.50891439597
3.50179634146
3.495075041
3.48830562416
3.48098239904
3.47266221179
3.46272646354
3.45037900798
3.43493082796
3.4156047077
3.39193334298
3.36395469576
3.33255342591
3.29932837526
3.266922014
3.23787853396
3.21325094654
3.18984386322
3.16298599151
3.12084782512
3.0466624529
2.92495146678
2.76430799206
2.63013405695
3.89768239548
3.98387846541
4.04860485913
4.08183976623
4.06985338526
4.03852209234
4.01502620654
4.01052700587
4.02247144425
4.04636384618
4.07622783395
4.10969273721
4.14380460176
4.1784417731
4.21216861354
4.24544021466
4.27726858174
4.30798434925
4.33677035332
4.36371172801
4.38811590266
4.40994230363
4.42872959052
4.44436520067
4.45667591221
4.46565044664
4.471346362
4.47388953855
4.47354696768
4.47055405141
4.465244338
4.45789216675
4.44887349815
4.4383587746
4.42663125869
4.41383061083
4.4001028391
4.38542339138
4.36991164078
4.35342574636
4.33602874888
4.31750809666
4.29792517948
4.27700025436
4.25480974712
4.23101332245
4.20572583861
4.17858413531
4.14973104689
4.11885560081
4.08613052729
4.05124051991
4.01446281522
3.97565351851
3.93494172359
3.89227859593
3.84785060577
3.8018045671
3.75428604675
3.70564954186
3.65660937504
3.60878090269
3.56415378946
3.52542483558
3.49784141712
3.48200622081
3.47643081176
3.47949362315
3.48979446843
3.50632504054
3.52853975678
3.55633479022
3.58999396901
3.62999299791
3.67706262713
3.73184657969
3.79469815251
3.8656518757
3.94405222229
4.02856840326
4.11696983745
4.20638513549
4.29328991655
4.37396114631
4.44477838359
4.50265845313
4.54512984705
4.57103225901
4.57950554541
4.5746349582
4.55761275978
4.53167906173
4.49976604122
4.46848371368
4.44105103634
4.41829602376
4.40413967241
4.38691624563
4.37137899953
4.35716461255
4.32414413107
4.27609203126
4.24434779717
4.23595717277
4.24751915182
4.27807250509
4.32413498175
4.3631073882
4.38562435308
4.39326656779
4.39273142513
4.38900104488
4.38468062808
4.38067049262
4.37706328192
4.37362590232
4.37008741839
4.36624139022
4.36189312201
4.35683960412
4.35088406227
4.3439619692
4.33613132247
4.32753092971
4.31833672897
4.30868982962
4.29851407455
4.28765426041
4.2760000202
4.26380013959
4.25173928105
4.23949950288
4.22671124204
4.21325057945
4.19899482681
4.18400240155
4.16836150606
4.15220426688
4.13546627551
4.11783478328
4.09890010634
4.07839715355
4.05612517767
4.03207238653
4.00644987059
3.97977150787
3.95250703309
3.92497056045
3.89741521755
3.87005933178
3.8430283414
3.81642187642
3.79024593181
3.76438880003
3.73860561503
3.71283185166
3.68706919383
3.66117540274
3.63505565041
3.60852955559
3.58147978833
3.55383220282
3.52547431187
3.49619621141
3.46588456557
3.43442168383
3.40202248383
3.36937028099
3.33795983844
3.31000426496
3.28846780865
3.27598573038
3.27334916602
3.27779691212
3.2835186709
3.27941755528
3.25095964183
3.18765897762
3.10054924458
3.03961366094
3.82435523983
3.85307362705
3.91918124826
4.01016547639
4.04295367853
4.03983477641
4.03322725639
4.03549572082
4.04535562636
4.06080471334
4.07855244297
4.0981756784
4.11807832469
4.13876518961
4.15927440705
4.18016649376
4.20068994222
4.22120501224
4.24106872655
4.26041477671
4.27876308038
4.29605771954
4.31198121522
4.32645012448
4.33931711399
4.35052024334
4.36012628091
4.36816474316
4.37483728757
4.38025528337
4.38470615882
4.38832948366
4.39135888383
4.39394730985
4.39627903184
4.39836409993
4.4003439342
4.40216015926
4.40385031828
4.40527082955
4.40644604933
4.40715304393
4.40740880474
4.40692340722
4.40571070948
4.40342320546
4.40006914783
4.3952745188
4.38908771137
4.3811265736
4.37146030413
4.35984335694
4.34635615128
4.33079822274
4.31324173359
4.29354272536
4.27183572518
4.24828853722
4.22333345325
4.19751750688
4.17127375453
4.14463702421
4.11688560724
4.08638183916
4.05202704584
4.01487833033
3.97611491349
3.93673563631
3.89737895154
3.85846570952
3.82028989556
3.78310642125
3.74738735844
3.71394694344
3.68396025727
3.65910874254
3.64149655108
3.63349335538
3.63743847529
3.65537217206
3.68849489539
3.73700343565
3.79970456196
3.8741049884
3.95664034338
4.04323389951
4.12950414311
4.21064271846
4.28440682481
4.34690924184
4.40214757187
4.45333705941
4.50495526154
4.55771751726
4.61202165328
4.66822449065
4.72675982724
4.76583391365
4.77209935315
4.72688132899
4.63499485229
4.54197579598
4.4790579424
4.4384844668
4.40774890091
4.37790974973
4.34637111421
4.31072292771
4.27348402892
4.235382034
4.1982156492
4.16328772223
4.13128707378
4.10222784658
4.07581805588
4.05159813638
4.0292418462
4.00840227114
3.98886140156
3.97027481825
3.9524554009
3.93522717797
3.91868917628
3.90291860388
3.88813527945
3.87435567412
3.86164379054
3.84986844226
3.83905962373
3.82891416214
3.81866767731
3.80811137863
3.79707338161
3.78529666046
3.77284221438
3.75975233031
3.74628036357
3.73255745477
3.7186774924
3.70453884233
3.68999842581
3.67486993323
3.65916808402
3.64301691444
3.62671766516
3.61036855153
3.59417801188
3.57827281461
3.56288306115
3.54808132989
3.53398597131
3.52052157127
3.50780627851
3.49572300339
3.48405379333
3.47246490817
3.4608421753
3.44886002557
3.43637636089
3.42299307046
3.40852475993
3.39258598296
3.37493791626
3.35505328322
3.33260748462
3.30710898634
3.27853222117
3.24711094907
3.21391641822
3.18057490039
3.1494228691
3.1223935297
3.10025067218
3.08147516197
3.06221306334
3.03491422003
2.99136348016
2.92934737177
2.86337663828
2.82534552674
3.79917971612
3.64255640891
3.74344657899
3.94904041911
4.04191326205
4.06737458044
4.07413398758
4.0791884885
4.08476721247
4.09193397217
4.09962718087
4.10855909669
4.11778581707
4.1278991489
4.13808637831
4.14878434784
4.15934285603
4.17002516666
4.18034384589
4.19037909796
4.19976621362
4.20846749297
4.2162572671
4.22300268045
4.22863933882
4.23305856756
4.23632464857
4.23840072
4.23947503785
4.23958860084
4.23897376441
4.23771234245
4.23606629695
4.2340706966
4.23193388687
4.22969186439
4.22747352168
4.22523267539
4.22309259596
4.22095032215
4.21890386643
4.21680882386
4.21475856487
4.21256384767
4.21030777761
4.20775680143
4.20498519443
4.20173612062
4.1980583382
4.19373789215
4.1888398644
4.18314723714
4.176745483
4.16947418489
4.16133395808
4.15220634869
4.14222091688
4.1314644756
4.12008059308
4.10808871296
4.09543250083
4.08190335904
4.06754512381
4.05199064095
4.03472017536
4.01566230909
3.99495639585
3.97284849728
3.94952876549
3.92510473924
3.89948967796
3.87246207935
3.84364858891
3.81265242499
3.77934726853
3.74401106846
3.70752966286
3.67163438007
3.63884404283
3.61239972146
3.595792574
3.59238176737
3.60474039833
3.63424838144
3.68064012989
3.7420377324
3.81542555064
3.89746157965
3.98589121462
4.08235100675
4.18067015684
4.28645588426
4.39791464226
4.51115548999
4.61745411332
4.7032812793
4.75646028118
4.75835934693
4.70266786828
4.6071311667
4.50756022309
4.43871951485
4.40383217702
4.38403490943
4.3641282407
4.33651466785
4.30105099426
4.26168548929
4.2246372802
4.19277724099
4.16699926644
4.14706494333
4.1323032943
4.12188050198
4.11485265773
4.11037004073
4.10770962112
4.10626532223
4.10550054044
4.10491798163
4.10411845308
4.10287084722
4.10109564339
4.09878611012
4.09593508557
4.0925067661
4.0884314341
4.08358369011
4.07784260688
4.07104107541
4.06329430274
4.05468155457
4.0452061126
4.03474263056
4.02328830187
4.0108831406
3.99766776461
3.98371900353
3.96902062372
3.95334759181
3.93639689317
3.91794364108
3.89809945181
3.87715018486
3.85540009932
3.83304845959
3.81028080157
3.78723900687
3.76409947006
3.74098287124
3.71801237707
3.69523361643
3.67270995572
3.65049287302
3.6286962241
3.60722978943
3.58603513904
3.56498512481
3.54398795169
3.52285470245
3.50144518371
3.47953300035
3.45690792719
3.4332157462
3.40815716658
3.38139309203
3.35287282644
3.32280808164
3.29199725234
3.26165392129
3.2333012635
3.20798225386
3.18567735066
3.16448935598
3.14008232495
3.10596535098
3.0558299508
2.98945725496
2.91910647268
2.86406514631
3.78487823458
3.35355734499
3.58007106919
3.93457092215
4.06360102326
4.09956469907
4.11043371244
4.11582665092
4.11966326617
4.1236522829
4.12727360902
4.13131172237
4.135075774
4.13912339621
4.14286114784
4.1467121028
4.15024880805
4.1537548053
4.15692291843
4.1598806559
4.16243776116
4.16456220402
4.1661393024
4.16705356932
4.16726499559
4.16663059329
4.16521795813
4.16291627848
4.15987693367
4.15603707547
4.15161190411
4.14657038859
4.14111757114
4.13525554389
4.1291795715
4.12284567601
4.11644234806
4.10991938379
4.10342786754
4.09689826804
4.09048123554
4.08408119048
4.07783810234
4.07162352934
4.06555071283
4.05945476633
4.05340017261
4.04719477852
4.04088220569
4.0342526274
4.0273298143
4.01998433661
4.01221170596
4.00387466835
3.99491532557
3.98518114725
3.9748304683
3.96392038343
3.95258636317
3.94091881849
3.92905007689
3.91696041763
3.90478481554
3.89331257301
3.88271816303
3.87274410142
3.86303777799
3.85335043041
3.84346085673
3.83324341425
3.82251990119
3.81101597321
3.79827039531
3.78364833236
3.76632374026
3.74553504105
3.72078533776
3.69209883782
3.66036486214
3.62758754591
3.59674085586
3.57161417739
3.55615969542
3.55395254016
3.56745622059
3.59829942741
3.64737253166
3.71295648639
3.79569417365
3.89309209402
3.99815428011
4.10821654251
4.21002186895
4.29781842178
4.36863452587
4.4074838214
4.40481674036
4.37095285701
4.31819025037
4.26837429648
4.24402882846
4.25342728111
4.28149566056
4.30768867422
4.32101978222
4.31839674493
4.30239616778
4.27831678696
4.25246742624
4.22869377776
4.20867283473
4.19254447856
4.17981142652
4.16976177079
4.16161301109
4.15474749652
4.1485891179
4.14276175233
4.13684440312
4.1305892906
4.12375126528
4.11634374709
4.10837851718
4.10003439512
4.09137936126
4.08258351455
4.07365075408
4.06469206371
4.05564611357
4.04655993418
4.03725525049
4.02750391882
4.01707096595
4.00589474551
3.99383313446
3.98099741945
3.96746701105
3.9534027364
3.93876059195
3.92335837453
3.90690064568
3.88923399292
3.87038519524
3.85061719502
3.8301690943
3.8093113436
3.78822521335
3.76712877812
3.74616730087
3.7255076708
3.70519526846
3.68529813476
3.66572983994
3.64642388474
3.62732524643
3.60837134774
3.589411162
3.57034289387
3.55098872619
3.53121775636
3.51082960573
3.48967210991
3.46750969819
3.44412963344
3.41928508633
3.39285453376
3.36488838281
3.33578267534
3.30634509574
3.27776711976
3.25131867762
3.22782649502
3.20712011521
3.18739491854
3.16476047836
3.13373640244
3.08955397389
3.0326980076
2.97257759222
2.9213261623
3.7451303188
3.02487222016
3.47118828096
3.95104921561
4.07017667096
4.10582585347
4.11997078949
4.12993681452
4.13853934024
4.14581731774
4.15109750036
4.15514911986
4.15761093244
4.15914913177
4.15952733931
4.15927221099
4.1582626529
4.15685774077
4.1550061499
4.15290656339
4.15055380815
4.14798224853
4.14519182578
4.14208647941
4.13869791641
4.13486845439
4.1306668924
4.12592925541
4.12077536076
4.11506735321
4.10896081088
4.10235247774
4.09543782054
4.08812382489
4.08061144799
4.07284314907
4.06500948745
4.05705476758
4.04917867854
4.0413284953
4.03369469261
4.02621739208
4.01906719882
4.0121613488
4.00562815127
3.99934381767
3.99336822278
3.98753084441
3.98181049634
3.97603430403
3.97015469952
3.9640313942
3.95758992551
3.95072119401
3.94340086883
3.93577314881
3.92821082856
3.92062462241
3.91312530649
3.90596764438
3.89916618172
3.89241831359
3.88537422455
3.87767250641
3.86915049112
3.85968800065
3.84926876756
3.83801735338
3.82614746551
3.81392922758
3.80155316015
3.78916369204
3.77667927912
3.76376951603
3.74983854921
3.73408688032
3.71559034535
3.69354907273
3.66757969023
3.63817010574
3.60682318127
3.57615328776
3.54967633535
3.53147313229
3.52546201227
3.53441633125
3.56176539048
3.60674434808
3.66418051659
3.7291097692
3.78996516596
3.84522105068
3.88822469725
3.91875748507
3.94270265805
3.95860497108
3.96279189095
3.96598848873
3.9779083261
4.01100322359
4.06995357923
4.14507129304
4.21747904513
4.27261166138
4.30546801976
4.31716428198
4.3122007469
4.29631542726
4.27528446352
4.25323331159
4.23260734163
4.21439500869
4.1987784164
4.18547710339
4.17406706537
4.16410254098
4.15515625306
4.14683848359
4.13879681577
4.13075054585
4.12254141421
4.1141310415
4.1055534431
4.09687974454
4.08817588013
4.07950589413
4.07089411315
4.06236033469
4.05386210775
4.04533657083
4.03660002921
4.02744413655
4.01764065009
4.00705262779
3.99557291442
3.9832541307
3.97017404946
3.95644543007
3.94202750631
3.92679684069
3.91053421475
3.89313682371
3.87463340379
3.85523474916
3.83515408938
3.81464016982
3.79387595719
3.77306693649
3.7523531928
3.73186982434
3.71165974184
3.69178857112
3.67222463322
3.65291971681
3.63380140018
3.61479597198
3.59577006763
3.57661203497
3.5571647964
3.53729628614
3.51683076171
3.4956136987
3.47343617182
3.45010559384
3.42542421846
3.39931835268
3.37187971322
3.34351012251
3.31495388488
3.28725101361
3.26144150926
3.23815086843
3.21711927772
3.19668439466
3.17360390968
3.14345922032
3.10275782036
3.05227303809
2.99919356686
2.95193833568
3.66519220028
2.71046152514
3.41307528711
3.94712036996
4.02581502823
4.06876128088
4.09065158674
4.11107579341
4.12960300088
4.14392517722
4.1541534054
4.16128626168
4.16540751062
4.16733117982
4.16719983445
4.16564665648
4.16284056624
4.15920656489
4.15491638485
4.15023713816
4.14531606146
4.14022458258
4.13507816532
4.12980865671
4.12449241971
4.11896089203
4.11328232328
4.10724986446
4.1009584189
4.09421014264
4.0871466063
4.0796038863
4.07175864284
4.06349505439
4.05502107903
4.04624810915
4.03740568289
4.02843282098
4.01955834584
4.01073283104
4.00217391106
3.9938285135
3.98588381346
3.9782645307
3.97109801444
3.96425362902
3.95775380813
3.95140346965
3.94512239327
3.9386136564
3.93165915294
3.92400208297
3.91538310997
3.90577211924
3.8958438943
3.88687705506
3.87919214607
3.87137912757
3.86333743253
3.8557681543
3.84878804924
3.84270305551
3.83798134844
3.83421955938
3.83061423124
3.82631087434
3.82080755127
3.81385311996
3.80560158173
3.7962285678
3.78607559581
3.77526422143
3.76397679961
3.75209475115
3.73937327207
3.72526705406
3.70914254617
3.69007946821
3.66743066772
3.64086502858
3.61096548746
3.57939611684
3.54863022717
3.52245908093
3.50470485199
3.49629459657
3.4991008327
3.50948222014
3.5210375047
3.52838246496
3.52991863269
3.53016627242
3.53477788083
3.55062609078
3.58026580735
3.61906358237
3.66422931779
3.72321538252
3.79995447312
3.89550191837
4.00252351802
4.10659638968
4.19350425209
4.25601082625
4.29353532999
4.3095269416
4.30894113206
4.2972380051
4.2793302054
4.25909104321
4.23905801767
4.22064825226
4.20440569589
4.1903387622
4.17823155264
4.1676675535
4.15826914418