/*--------------------------------*- C++ -*----------------------------------*\
| =========                 |                                                 |
| \\      /  F ield         | OpenFOAM: The Open Source CFD Toolbox           |
|  \\    /   O peration     | Version:  v1806                                 |
|   \\  /    A nd           | Web:      www.OpenFOAM.com                      |
|    \\/     M anipulation  |                                                 |
\*---------------------------------------------------------------------------*/
FoamFile
{
    version     2.0;
    format      ascii;
    class       volScalarField;
    location    "10";
    object      rho;
}
// * * * * * * * * * * * * * * * * * * * * * * * * * * * * * * * * * * * * * //

dimensions      [0 0 0 0 0 0 0];


internalField   nonuniform List<scalar> 
12225
(
0.583032988342
0.641095353748
0.623071939796
0.622367052943
0.610699649257
0.606208129747
0.600171660184
0.595958284378
0.593626898937
0.594366406415
0.599702839785
0.608323444287
0.615421301834
0.627428458235
0.650661123472
0.679671821304
0.715853298166
0.747428386332
0.742125203093
0.691430827082
0.65700881952
0.662078898813
0.652448503493
0.649739605166
0.645523933264
0.642700835222
0.640903129316
0.640856597486
0.64395754021
0.650018262223
0.656478715183
0.666117822522
0.682986642361
0.70382415203
0.726015996406
0.728473112776
0.616164658035
0.668874821391
0.654549323345
0.655044256714
0.645568895098
0.641970904734
0.637292482524
0.634042363808
0.631761437948
0.630970528341
0.632398410797
0.636204348676
0.641856809699
0.650757104734
0.664790070111
0.68145150227
0.696135977655
0.691033343873
0.653318448872
0.684403068273
0.657157362369
0.663066171082
0.654060307824
0.652110545704
0.6486642567
0.646470443029
0.644919145482
0.644458336068
0.645459046777
0.648125607017
0.652569346905
0.659550473185
0.669617980203
0.680445497299
0.687011869315
0.677957714054
0.640201325688
0.683382185341
0.659313950472
0.665901143994
0.657919609371
0.656950250419
0.654457621712
0.653227140168
0.65263890512
0.653038959915
0.654594440207
0.657418841367
0.661700367452
0.667731156529
0.675228814109
0.681900407158
0.683409225166
0.673657219889
0.642108104431
0.686977213421
0.662119340886
0.670165687849
0.662748581132
0.662556788575
0.660676734926
0.660032213625
0.659978713254
0.660794669895
0.662550819072
0.665289825463
0.669118610619
0.674015187184
0.679273986211
0.68278088098
0.681341816311
0.672106663398
0.642302024847
0.688788231042
0.664586207215
0.673621740585
0.666828814251
0.667313696914
0.66595990298
0.665784316551
0.666111796962
0.667170732436
0.668971989619
0.671502582813
0.674741452932
0.678468839437
0.68182325717
0.683032965666
0.679974681995
0.671506850201
0.64308300646
0.690154006084
0.66666578866
0.676489623137
0.670260951814
0.671308500837
0.670377703909
0.670553333951
0.671109132385
0.67225259987
0.673963989893
0.676181267562
0.678769647883
0.681396895987
0.683195910083
0.68280112663
0.678892350703
0.671208858167
0.643821056027
0.690957243637
0.668310067639
0.678725099301
0.67301833495
0.67454765631
0.673967692442
0.67439412869
0.675058617874
0.676173209733
0.677701435665
0.679529915095
0.681445654101
0.683069482113
0.68363631406
0.682130889479
0.677817828131
0.670802496037
0.644332838765
0.691268812066
0.669406012429
0.680254224972
0.67499170448
0.676917980837
0.676599596574
0.677180419293
0.677878177423
0.678910139453
0.680201425982
0.681591543235
0.682829409742
0.683556239994
0.683151900564
0.68090284311
0.676443395324
0.670060679519
0.643944735901
0.691324962393
0.669658607132
0.680901765509
0.675894796315
0.678054204904
0.677835335403
0.678463896405
0.679131252752
0.680024344369
0.681029874641
0.681985800784
0.682648849723
0.682714187186
0.681698832713
0.679123481571
0.674851495666
0.669187273749
0.639703715717
0.691179481924
0.668090290459
0.679946932055
0.674881986745
0.67715204521
0.676964360449
0.677608331464
0.678196106576
0.678942847122
0.679793441833
0.680567877914
0.681018265052
0.680858138033
0.679718673972
0.67726916863
0.673455406257
0.668572541969
0.636243977155
0.690462132909
0.666535817854
0.678825272378
0.673944929074
0.676397829531
0.676323468617
0.677058682993
0.677751312938
0.678593301053
0.679470038568
0.68019911776
0.680502471559
0.680175584493
0.678914204613
0.676521660291
0.673033868243
0.668709764552
0.63209337184
0.689577672224
0.664784819894
0.677631232696
0.672975597962
0.675796278415
0.67604403598
0.67701556222
0.677834328944
0.678694173787
0.679474391172
0.679979657496
0.679970316345
0.679306522612
0.677830512242
0.675423250648
0.672227912478
0.668385849243
0.626732906184
0.688612865859
0.662597802801
0.676187495675
0.671765746275
0.675019819638
0.67563314778
0.676882279709
0.677846178566
0.678682688085
0.679306660737
0.679514687901
0.679130660487
0.678138820558
0.676463864037
0.674084070361
0.67115426682
0.667808902645
0.621136312784
0.687579191944
0.660111724716
0.674428289379
0.670134649663
0.673761877842
0.674649879114
0.676105793401
0.677139256999
0.677941359874
0.678383880679
0.67835083678
0.677683130891
0.676491101688
0.674735981735
0.672470945825
0.669829005245
0.666901855199
0.616115224031
0.686642822948
0.657605785736
0.672507589985
0.668190131772
0.672042069029
0.673050607614
0.674577423402
0.675596746074
0.676294033311
0.676600139075
0.676387993802
0.675576148499
0.674301641267
0.672595616514
0.670488713072
0.668147743529
0.665562474499
0.611414260301
0.685925480943
0.655234941286
0.670606229064
0.666119743491
0.670045805432
0.671024541258
0.672520180812
0.67345942612
0.674048573064
0.674237586565
0.673917938892
0.673042561043
0.671779778263
0.670171710585
0.668243840717
0.666157937681
0.663872677553
0.608860529818
0.685819998734
0.653994329537
0.669542411594
0.66477244826
0.668557337078
0.669315863537
0.670612093647
0.671341901126
0.671732174368
0.671748456338
0.671304292104
0.670366307195
0.669117143845
0.667591641306
0.665803041547
0.663902104019
0.661839255433
0.614348021925
0.686504120875
0.655617571124
0.670304179194
0.665052855376
0.668164823756
0.668281068042
0.668921151834
0.669059741674
0.668924075709
0.668510255105
0.667749013099
0.66660276763
0.665239717076
0.663689694838
0.661955878172
0.660173502741
0.658303190618
0.618567358458
0.687559283741
0.657518230032
0.671579943927
0.665957518614
0.668532830644
0.66814111714
0.668306171335
0.667992390674
0.667484310083
0.666769934927
0.665803823479
0.664513949157
0.663092846627
0.661530662627
0.659850295949
0.658143705517
0.656397962702
0.621922395783
0.688682038093
0.659335316468
0.672866920393
0.666950461959
0.669057448013
0.668252114038
0.668004093222
0.667336589408
0.666529149714
0.665569848312
0.664437313841
0.663046125495
0.661565289978
0.65999739163
0.658340853165
0.656693143463
0.655007793486
0.62567487766
0.689937697056
0.661184293503
0.674210815391
0.668002123973
0.6696540024
0.668451409761
0.667825896034
0.666830162753
0.665733763685
0.664569361477
0.663269397744
0.661767397639
0.660210677663
0.65862545976
0.656960899402
0.655339274767
0.653700286601
0.629213574055
0.691125879169
0.663139297084
0.675567189728
0.669069787204
0.670283769436
0.668706298414
0.667716840093
0.666420042068
0.66508219102
0.663712033263
0.662269177013
0.660665523831
0.659052917916
0.657413176187
0.655733861639
0.654098583705
0.652511519694
0.634400137081
0.692796493032
0.664905768178
0.676748568705
0.669987371409
0.670749341544
0.668817668498
0.667515107314
0.66594214215
0.664363990658
0.662794627429
0.661212125335
0.659496863165
0.657795618832
0.656099409871
0.654350826141
0.652632730147
0.65092548662
0.63247586697
0.692191619808
0.668085090821
0.67863862445
0.671856882712
0.67222071224
0.670054940067
0.668497660002
0.666712125873
0.66493850404
0.663221327212
0.661534455097
0.659765383746
0.658022299826
0.6562996884
0.654554916292
0.652854768473
0.651380364915
0.664432700243
0.699309600559
0.669082044851
0.67984604819
0.672504710844
0.672398317949
0.6698379373
0.667919528886
0.665787622871
0.663660618569
0.66156136189
0.65962587192
0.657671473631
0.655733008964
0.653855972085
0.651942101021
0.650000601052
0.647838580636
0.594480546975
0.685695362584
0.679953420882
0.684848773323
0.678798948451
0.678276046795
0.675937314587
0.67422067199
0.672383433102
0.670559410416
0.66888694134
0.667337172728
0.665716725878
0.664109259747
0.662522282742
0.660805660118
0.658990859942
0.657613886595
0.800404973516
0.714831456727
0.683134664793
0.691613903992
0.684595509185
0.683743976887
0.680678877713
0.677999084237
0.674921420489
0.671600067938
0.668141642954
0.664910119656
0.661642500779
0.658248652811
0.654818544503
0.651341862184
0.647781798051
0.644313298526
0.645837575717
0.674680227467
0.671556144715
0.672955794503
0.665394742808
0.664482273766
0.661956097243
0.66002194259
0.658054661034
0.65633779265
0.654971445317
0.653700327787
0.652364031545
0.651358604129
0.650683646781
0.650135225339
0.649879211498
0.649152560364
0.500149636303
0.499789522023
0.499609816342
0.499633788742
0.499841652226
0.500190314616
0.500601222087
0.501033551381
0.501461033096
0.501866608447
0.502239572545
0.502573810895
0.502866337563
0.503116347914
0.50332451365
0.503492734219
0.503623415828
0.503719864381
0.503785114433
0.50382217813
0.5038343549
0.503823926974
0.503794235618
0.503746046115
0.503681391318
0.503599883052
0.503503276257
0.503391345638
0.503264921839
0.503123265648
0.502966841735
0.50279523603
0.502609061134
0.502407639434
0.502191386923
0.501960587164
0.501716511139
0.501458581964
0.501188107871
0.500905296815
0.500611600998
0.500307906092
0.499995929273
0.499677411835
0.49935444259
0.499029572373
0.498705310368
0.498384662751
0.498070728708
0.49776627071
0.497473919173
0.497194773177
0.496931749431
0.496688740819
0.49647084694
0.49628293636
0.496130145741
0.496017597786
0.495950525939
0.495933915442
0.495971470437
0.496063875952
0.496211369886
0.496415011009
0.496674170413
0.496986816485
0.497351461946
0.497766322489
0.498228384698
0.498734931546
0.499281761507
0.499864940986
0.500479616563
0.501121394444
0.501785360784
0.502467299595
0.503162880211
0.503867317346
0.504576511121
0.505287637956
0.505998403744
0.506705466197
0.507406654487
0.508099385134
0.508784521275
0.509459491186
0.510124505676
0.510785511043
0.511438987159
0.512088092462
0.512732760342
0.513373103239
0.514010933634
0.514618847026
0.515180860107
0.515733556121
0.516307813026
0.51688797122
0.517470179784
0.518046816082
0.518722758348
0.519479043071
0.519490517063
0.519392834325
0.519459957266
0.519750843012
0.520234347914
0.520452701621
0.520766834675
0.521053439382
0.521301989903
0.521517335413
0.521708872825
0.521882335756
0.522042004107
0.522190704781
0.522331291344
0.52246688322
0.522598278457
0.522724383966
0.522841760481
0.522949093271
0.523047648481
0.523138491412
0.523224480557
0.523306888275
0.523386496558
0.52346377622
0.523539024151
0.523612505034
0.523684523916
0.523755246195
0.523824780641
0.523893005619
0.523959855712
0.524025096586
0.524088590296
0.524150605363
0.524210571954
0.524268192729
0.524321508296
0.524371815202
0.524418256656
0.524459368584
0.524493511393
0.52451892327
0.524534543366
0.524539606747
0.52453343811
0.524515508749
0.524484733187
0.524439558045
0.524378209795
0.524299005965
0.52420013482
0.524079723486
0.523935666152
0.52376567999
0.523566785151
0.523335367857
0.523065998711
0.522752877601
0.522387846019
0.52195971827
0.52145314929
0.520851323495
0.5201334912
0.51928338163
0.518288055388
0.517124899156
0.515780981108
0.514259682325
0.512578450009
0.510777111089
0.508914017103
0.506933219837
0.504887449057
0.502856693478
0.500951939857
0.499486354588
0.500054644024
0.49981164566
0.499888924211
0.500167682458
0.500518306786
0.500881767965
0.501234055936
0.501563145025
0.501864533928
0.502136371035
0.502378438582
0.502590055982
0.502771902336
0.502924226648
0.503048301045
0.503145277679
0.503217060605
0.503265626282
0.503293620566
0.503302759547
0.503295774841
0.50327425969
0.503240740906
0.503195555383
0.5031402505
0.503074075111
0.502998043424
0.502911402422
0.502814124675
0.502704997922
0.502584043168
0.502450368728
0.502303563652
0.502142561198
0.501967815458
0.501778692993
0.501575578115
0.501358242727
0.501127209504
0.500882374359
0.500624673172
0.500354850887
0.500074290403
0.499784652694
0.499488030929
0.499187027221
0.49888478289
0.498584662093
0.498290997202
0.498008595882
0.497744717756
0.49750402656
0.49728906416
0.497102409661
0.496947559318
0.496827926881
0.496746880195
0.496709658096
0.496721716978
0.496784677116
0.496899632817
0.497068651123
0.497291753134
0.497566844798
0.497893886351
0.498272147183
0.498699998309
0.499175903412
0.499698046953
0.500264748602
0.50087368801
0.501522562749
0.502208068882
0.502926847085
0.503675049538
0.504448345364
0.505241897214
0.506050619281
0.506869068432
0.507693154524
0.508519491697
0.509343854028
0.510161534198
0.510970193562
0.511771059826
0.512558658561
0.513326218311
0.514083884036
0.514853298108
0.515617268282
0.516347139055
0.51707828585
0.517852943796
0.518643323366
0.519366482532
0.520018490897
0.520707975943
0.521250890252
0.52178881217
0.522359504357
0.522907693659
0.523593758175
0.524061726726
0.524570009804
0.525011322777
0.525448759534
0.525690632546
0.525845928016
0.525978926857
0.52613737983
0.526322429166
0.526514841688
0.526711261316
0.526909268702
0.527108557546
0.527309094504
0.527512076977
0.527719107059
0.527930592903
0.528143545432
0.528353882631
0.528559531156
0.528760172119
0.528957270097
0.529152547022
0.529346742928
0.529540355872
0.529733640065
0.529926904011
0.530120212659
0.530313635908
0.530507198206
0.530701005177
0.530895106468
0.531089736939
0.531285226138
0.531482303077
0.531681913997
0.531884839558
0.532090730495
0.532299278177
0.532511688911
0.532728369849
0.532949060707
0.533172873498
0.533399327016
0.533628737949
0.533861988767
0.534100187727
0.534344225185
0.534595066563
0.534853770638
0.535121414581
0.535398532333
0.535684794947
0.53597919294
0.536279581304
0.536583194539
0.536886308348
0.537185470712
0.53747572576
0.537751619961
0.538007809934
0.538240163146
0.538444878892
0.538618897686
0.538765973093
0.538878499372
0.538957704321
0.539005486931
0.539020365255
0.538994906024
0.538918639871
0.53878729116
0.538531634292
0.538244565429
0.537907603576
0.537533041696
0.537165841428
0.536784459603
0.500404806384
0.50030871738
0.50034580712
0.500485633405
0.500642725799
0.500778324091
0.500897223896
0.501006431705
0.501111719324
0.501214736688
0.501315537971
0.501412606012
0.501504159616
0.501588176672
0.501663139313
0.501727772517
0.501781514844
0.501824006382
0.501855618494
0.501876762235
0.501888330655
0.501890324744
0.501884285567
0.501869836658
0.501847407587
0.501816269784
0.501776683268
0.501727448549
0.501668259499
0.50159786613
0.501515856453
0.501420920894
0.501312869298
0.501190792728
0.501054522331
0.500903657558
0.50073874424
0.500559297207
0.500365929361
0.500158940435
0.499939214181
0.499707719775
0.49946590653
0.499215533217
0.498958748954
0.498698055369
0.498436464977
0.498177248187
0.497924107832
0.497681032932
0.497453814368
0.497248484317
0.497071636526
0.496927458947
0.496819154249
0.496749240589
0.4967197913
0.496730513575
0.496780329304
0.496870610061
0.497003855793
0.497182196559
0.49741003728
0.497691173767
0.498027663147
0.498422371182
0.49887713531
0.499392379864
0.499966740228
0.500597741153
0.501281343924
0.502012546787
0.502785447894
0.503593668922
0.504430580174
0.505289479919
0.506163827986
0.507047168079
0.507933406525
0.508816756918
0.509694109725
0.510561689781
0.511414336929
0.512248655498
0.513067935343
0.513873283033
0.514650220039
0.51539548868
0.516133005277
0.516873077416
0.517582412051
0.518234613045
0.518907397018
0.519579279928
0.520215926759
0.520819078772
0.521363984903
0.521757671735
0.522231968893
0.522900285856
0.523644270113
0.524140775489
0.524338040169
0.524542847976
0.524638984015
0.524814622639
0.525133513005
0.52559208308
0.526037193087
0.526426336596
0.52677746709
0.52709797419
0.527397029537
0.527679713879
0.527949900422
0.528210316922
0.528463729691
0.528712379235
0.52895694141
0.529195125406
0.529424512057
0.529644518063
0.529856463569
0.530062566327
0.530263925272
0.530461207001
0.530654822718
0.530845082323
0.531032269558
0.531216809493
0.531399194313
0.531579848477
0.531759069427
0.53193710395
0.532114220144
0.532290825731
0.532467472993
0.532644461774
0.53282173809
0.53299786211
0.533172501605
0.533346475397
0.53352093014
0.533695535018
0.533868792777
0.534039513318
0.534207165119
0.534371769595
0.534533269946
0.534691594198
0.534846626917
0.534998446659
0.535146974446
0.535292275716
0.535434624976
0.535574567893
0.53571287103
0.535850711073
0.535989352566
0.536130576794
0.536276121932
0.536427671835
0.536586910192
0.536755661571
0.536935324572
0.537127530784
0.537335234355
0.537559196044
0.537796331275
0.538043588689
0.538295576913
0.538541327663
0.538767121452
0.538946621651
0.539052643472
0.53906810069
0.538977906781
0.538782541603
0.538532894631
0.538379278407
0.500850747119
0.500743077968
0.500527018656
0.500439269302
0.500414470666
0.500397223456
0.500392006787
0.5004028659
0.500432242741
0.500479735963
0.500543120329
0.500618598658
0.500702719289
0.500791803201
0.500882940889
0.50097348766
0.501061596454
0.501145770388
0.501225390347
0.501299339478
0.501367887467
0.501430620488
0.501487648768
0.501538266702
0.501582808992
0.501619848494
0.50164906408
0.50166914461
0.50167932972
0.501678009611
0.501664363266
0.501637091498
0.501595405089
0.501538009173
0.501465008717
0.501375496664
0.501269581623
0.501147134471
0.501008739302
0.500854669342
0.500686085099
0.500504206238
0.500310878812
0.500108312609
0.499899168764
0.499686545104
0.499474080807
0.499265486641
0.49906507724
0.498877489388
0.498707226896
0.498557692872
0.498434431656
0.498342185338
0.498285345356
0.498267584678
0.498292275981
0.498361040246
0.498472460209
0.498623786646
0.498814309875
0.49904499342
0.49931881198
0.499639121408
0.500009679692
0.500433423487
0.500912397833
0.501447841796
0.502039852997
0.502687136494
0.503387016482
0.504135210619
0.504925961068
0.505752988922
0.506609366284
0.507487035346
0.508378594157
0.509278147495
0.510178014736
0.511070709727
0.511953112993
0.512824993438
0.513677392421
0.514500226329
0.51530112136
0.516087488637
0.516844792685
0.517539598506
0.518218400413
0.518892240733
0.519527931902
0.520109059924
0.520647607678
0.521164591728
0.521631465803
0.522101269484
0.5226374148
0.523234892772
0.523941889715
0.524611211429
0.52504344939
0.525172330448
0.5252451267
0.525391046989
0.525554538966
0.525854712551
0.526322306785
0.526903340041
0.527466355877
0.527954381671
0.528375037918
0.528742344751
0.529070899814
0.529370550824
0.529648406308
0.52990966912
0.530158536025
0.530398247898
0.530629694042
0.530851686921
0.531063014946
0.531264551816
0.531459105741
0.531648710492
0.531834242714
0.532016060558
0.53219447111
0.532369801296
0.53254245855
0.532712850759
0.532881596337
0.533049250625
0.533216112105
0.533382497851
0.533548837834
0.53371573182
0.533883657289
0.534052616155
0.534221700271
0.534389392766
0.534555229887
0.534720815638
0.534888117918
0.535057203619
0.535226968332
0.535396438198
0.53556526937
0.535733543189
0.535901431253
0.536069125918
0.536236742656
0.536404394491
0.536571873526
0.536738988157
0.536905606184
0.537071530733
0.537236476617
0.537400025929
0.53756152216
0.537720275822
0.537875854452
0.538027815025
0.538175740782
0.538319834193
0.538460742086
0.538600051675
0.538741321015
0.538886955817
0.539038984218
0.53920061764
0.539373212661
0.539554299135
0.539739130799
0.539918741555
0.54007398191
0.540198191368
0.540281370959
0.540329217419
0.540398905554
0.540617216712
0.501382109526
0.500842599314
0.500268628048
0.500064681657
0.500007042862
0.499971401743
0.499951850065
0.499950033836
0.499969971287
0.500011591927
0.500073715371
0.500153388634
0.500247485902
0.500352308447
0.500464883038
0.500582102867
0.500701910565
0.500821987895
0.500941162143
0.501058249637
0.50117270461
0.501283278317
0.501390269554
0.501492458219
0.501589373066
0.501679940056
0.501763544592
0.501838510493
0.501903923882
0.501958157201
0.502000208222
0.502028354314
0.502041961956
0.502039842635
0.502021442362
0.50198598987
0.501933753312
0.50186411438
0.501777598012
0.501674485496
0.501555768985
0.501422484826
0.501276339527
0.501119268025
0.500953746205
0.500782455605
0.500608703676
0.500435950526
0.500267930874
0.5001089824
0.499964957054
0.499839932982
0.499739018993
0.499667174403
0.499628311261
0.499625859748
0.49966360909
0.499744068285
0.499867700067
0.500035970448
0.500250103074
0.500510594234
0.500818423543
0.501175219419
0.501583748717
0.502046856103
0.502566852363
0.503145076712
0.50378096049
0.504472730515
0.50521696487
0.506008737109
0.506840637557
0.507706387277
0.508598859101
0.5095090548
0.510427815686
0.511351214286
0.51227488996
0.513185318263
0.514075370205
0.514954233011
0.515814608606
0.516637264601
0.517433051385
0.518215627597
0.518964500373
0.519660183046
0.520294726473
0.520903708214
0.521504415337
0.522044550844
0.522564489788
0.523049766654
0.523558692793
0.524178401634
0.524862217037
0.525529523024
0.526093344488
0.526421670272
0.526511411645
0.52649563172
0.526566493943
0.526749115041
0.527009249551
0.527382215412
0.527852915587
0.528371917584
0.528869621662
0.529313591051
0.529702804686
0.530045045132
0.530350997628
0.530629213328
0.530886367234
0.531127563607
0.531356829463
0.531576843856
0.531788073615
0.531989512895
0.532180615961
0.532363138492
0.532539980524
0.53271277483
0.53288195381
0.533047527195
0.533209544154
0.533368191844
0.533523829671
0.533676943395
0.533828021642
0.533977472499
0.534125701306
0.534273069449
0.53442013111
0.53456753811
0.534715570795
0.534863697421
0.53501009239
0.535153068642
0.53529215355
0.535429744124
0.535568149997
0.535707801744
0.535847957243
0.535987752318
0.536126879837
0.536265350377
0.53640334278
0.536541081956
0.536678708497
0.536816341342
0.536954106714
0.537092113721
0.537230443294
0.537369149092
0.53750825577
0.537647766985
0.537787577406
0.537927591179
0.538067979132
0.538208879076
0.538350513808
0.53849351279
0.53863858182
0.538786843295
0.538940714427
0.53910142634
0.539269467674
0.539446256677
0.539630896558
0.539819773077
0.54000895501
0.540191482636
0.540356451225
0.54050132605
0.540629091222
0.540759557167
0.540958505639
0.541338489348
0.501894963825
0.500394067838
0.499576310658
0.499532843511
0.499615724109
0.499658363005
0.499681951004
0.49970402009
0.499738063041
0.499789694029
0.499861057629
0.499950283975
0.500055580967
0.500173585353
0.500301905672
0.5004374507
0.500578271368
0.500722070009
0.500867705194
0.501013198837
0.501158210917
0.501301593686
0.501442667836
0.501580320287
0.501714315109
0.501842902415
0.501965271348
0.502079824783
0.502185408387
0.502280197923
0.502363007786
0.50243229378
0.502487019117
0.502525742303
0.502548285445
0.502553632312
0.502541740671
0.502512383977
0.502466139178
0.502403266524
0.502325016409
0.502232525882
0.502127717402
0.502012611244
0.501889791928
0.501761923101
0.501632288434
0.501503984614
0.501380678743
0.501266622123
0.501167501952
0.501087404543
0.501031956257
0.501006332089
0.501015208117
0.501062798148
0.501153000994
0.501285290419
0.501458370936
0.50167157994
0.501925279831
0.502219854133
0.502556876861
0.502938012694
0.503367735162
0.503850108316
0.504389210803
0.504987803501
0.505646091317
0.506361627746
0.507132304041
0.507952402745
0.508812956274
0.509705217105
0.510624773013
0.511561280519
0.51250033651
0.51343565931
0.514370148634
0.515293472557
0.516180038605
0.517064282737
0.517928536753
0.518758464082
0.519541853574
0.520273871251
0.520976534385
0.521643184073
0.522273929537
0.522887465224
0.52344280556
0.523985179753
0.524594165124
0.52521243662
0.525851117599
0.526474196641
0.527015947097
0.527433078739
0.527707316562
0.527815569298
0.527829325193
0.527867616235
0.528008724631
0.528240309321
0.528541452875
0.528913490074
0.529334779086
0.529773754399
0.530196468036
0.530585692679
0.530937252347
0.531253357443
0.531539473294
0.531801105763
0.532043150714
0.532269735951
0.532484264672
0.532688661779
0.532883197935
0.533067036347
0.533240336115
0.53340552328
0.533565268576
0.533721038337
0.533873180121
0.534021688485
0.534166573944
0.53430802173
0.534446377178
0.534582101618
0.534715640288
0.534847539164
0.534978293998
0.535108439339
0.535238667566
0.535369686484
0.535501622434
0.535633330527
0.535762713673
0.535887719639
0.536008434048
0.536127438461
0.536247043732
0.536367924915
0.536489504111
0.536611125659
0.536732477656
0.536853548272
0.536974455712
0.537095180141
0.537215778319
0.537336294701
0.537456791717
0.537577349664
0.53769808276
0.537819092376
0.537940445776
0.538062211622
0.538184383496
0.538307015627
0.538430387496
0.53855476219
0.53868055826
0.538808633105
0.538939949642
0.539075820288
0.539218565838
0.539369522452
0.53952937675
0.539699584475
0.539879169967
0.540064922689
0.540254022955
0.540441454632
0.540618654705
0.540785720214
0.540949317257
0.541133533127
0.541400977776
0.541840053264
0.502229647647
0.499341562654
0.498651459502
0.499064952166
0.499352642888
0.499486746425
0.499561871593
0.499620759659
0.499687400667
0.499768928467
0.499868790756
0.499985523532
0.500117969129
0.500262976631
0.500418747207
0.500582287968
0.500752131269
0.500925758732
0.501102181413
0.5012799153
0.501458184514
0.501635425824
0.501811610571
0.501985226359
0.502155532414
0.502321304022
0.502481659922
0.502634788194
0.502779616825
0.502914374007
0.503037902996
0.503148405346
0.5032450935
0.503326727993
0.5033926487
0.503442097798
0.503475259913
0.50349163486
0.503491866556
0.503476371544
0.503446370268
0.503402982378
0.503348065915
0.503283431212
0.503211400552
0.503134059925
0.503054150724
0.50297411696
0.502896560125
0.502824695221
0.502764908285
0.50272063071
0.502698188685
0.502704842407
0.502747099188
0.502831046715
0.502960117731
0.503131293972
0.503343110061
0.503593957625
0.503883102002
0.504208429056
0.504570655806
0.504972739083
0.505421428093
0.505920991227
0.506477094533
0.507094247543
0.507772351583
0.508507615442
0.509297237545
0.510138663588
0.511019302571
0.511925132736
0.512853102612
0.513796961915
0.514741050912
0.515678591801
0.516617992863
0.517540684146
0.518436605923
0.519290428214
0.520097560315
0.520883244474
0.521636886811
0.522346811701
0.523011442836
0.523631438504
0.524244146919
0.524875945473
0.525485643188
0.52610909249
0.526740288574
0.527329907094
0.527876482688
0.52832996371
0.528670514097
0.528897971422
0.529035786079
0.529107636691
0.529176841788
0.529301514043
0.529499057529
0.529753023165
0.530052116519
0.530391255542
0.53075566943
0.531127239678
0.531488158764
0.531827817271
0.532141469495
0.532428611198
0.532691375178
0.532932899575
0.533156524055
0.533365549462
0.533562635776
0.533749258988
0.533925462438
0.534090775455
0.534246014273
0.534393580515
0.534535920999
0.534674305307
0.534809110883
0.534940350658
0.535068052631
0.535192368663
0.535313622021
0.535432259289
0.535548771991
0.535663689203
0.535777495792
0.535890809383
0.536004401498
0.536118983483
0.536234421469
0.536349160225
0.536460819931
0.536567398273
0.536669499965
0.536769659385
0.536870179888
0.536971722126
0.537073879282
0.537176191418
0.537278461914
0.537380779532
0.53748313131
0.53758556649
0.537688065258
0.537790684944
0.537893473874
0.537996538229
0.538099990188
0.538203977786
0.538308607976
0.538414020275
0.538520295707
0.538627600036
0.538736303062
0.53884675766
0.538959494731
0.53907545138
0.539195701434
0.539321553406
0.539455175929
0.539597813144
0.539750202868
0.539913694497
0.540087486306
0.540268832888
0.540455989172
0.540645746306
0.540832159563
0.541017461673
0.5412109466
0.541438358131
0.541755540873
0.542228483861
0.502272282792
0.497838260894
0.49778719294
0.49880125165
0.499223966537
0.499422841032
0.499551715943
0.499663647695
0.499782709341
0.499914311134
0.500061791465
0.500222779712
0.50039709426
0.50058165239
0.500775524305
0.500975903729
0.501181814143
0.501391025151
0.50160294747
0.501815584837
0.502028707074
0.502240915729
0.502451527911
0.502659426744
0.50286435034
0.503064575319
0.50325942564
0.503447404431
0.503627504615
0.503798039449
0.503958011135
0.504106028427
0.504241203468
0.504362321694
0.504469241926
0.504561120522
0.504638009696
0.504699836746
0.504747240178
0.504780586856
0.504801173809
0.504810040084
0.504808852639
0.504799093056
0.504782477822
0.504760377825
0.504734217751
0.504705149287
0.504674497782
0.504643859726
0.504618345592
0.504604002061
0.504608879662
0.504644617389
0.504722994395
0.504854454979
0.505039595278
0.505271830659
0.505547119875
0.505860552092
0.506205206598
0.50657358926
0.506962072291
0.507379797688
0.507835667372
0.508337705732
0.508893793562
0.509512941436
0.510198534015
0.510942548372
0.511737580013
0.512584622516
0.513473593311
0.514378197612
0.515313114854
0.516264142315
0.517208074032
0.518136167097
0.519035397343
0.51989927338
0.520747391339
0.521566304979
0.522343171755
0.523077959882
0.523766916578
0.524414741798
0.525044452842
0.525677538907
0.526318190849
0.526953751776
0.527553426118
0.528137435688
0.528670990219
0.52913553542
0.529534408848
0.529843888655
0.530069100458
0.530225837979
0.530344142272
0.530452062108
0.530584525354
0.530760573173
0.530978315446
0.531227600796
0.531503361849
0.531801792062
0.532114399196
0.532430660824
0.532740134811
0.533035436508
0.533312238744
0.533568944981
0.533805976296
0.534024902334
0.534227977342
0.534417714232
0.534596120625
0.534764220767
0.534921927781
0.535069024701
0.535206608262
0.53533690643
0.53546199805
0.535583045297
0.535700490397
0.535814429897
0.535924936554
0.536032167611
0.536136430307
0.536238136771
0.536337755099
0.536435765267
0.53653269556
0.536629216891
0.536726223762
0.536824355773
0.536923189134
0.537020937456
0.537115059293
0.537203984069
0.537288551537
0.537371174168
0.537453912167
0.537537366545
0.537621318721
0.53770545949
0.537789776761
0.537874332468
0.537959200385
0.538044386866
0.538129850406
0.538215606077
0.538301686704
0.538388207446
0.538475304501
0.538563155473