/*--------------------------------*- C++ -*----------------------------------*\
| =========                 |                                                 |
| \\      /  F ield         | OpenFOAM: The Open Source CFD Toolbox           |
|  \\    /   O peration     | Version:  v1806                                 |
|   \\  /    A nd           | Web:      www.OpenFOAM.com                      |
|    \\/     M anipulation  |                                                 |
\*---------------------------------------------------------------------------*/
FoamFile
{
    version     2.0;
    format      ascii;
    class       volVectorField;
    location    "10";
    object      U;
}
// * * * * * * * * * * * * * * * * * * * * * * * * * * * * * * * * * * * * * //

dimensions      [0 1 -1 0 0 0 0];


internalField   nonuniform List<vector> 
12225
(
(9.73843144949 0.0395331883076 0)
(9.50305335715 0.0411378784753 0)
(9.24883023257 0.0401433103412 0)
(8.99821607656 0.0400696823862 0)
(8.76059593481 0.0400599854691 0)
(8.53596596865 0.0397749105023 0)
(8.32239505843 0.0392502268167 0)
(8.11848903389 0.0386039002343 0)
(7.92348490655 0.0379329002839 0)
(7.73687961326 0.0372982315668 0)
(7.5581639875 0.0367360692646 0)
(7.38671158135 0.0362721846247 0)
(7.22175137069 0.0359333079785 0)
(7.0623653962 0.035757973986 0)
(6.90744070866 0.0358141980443 0)
(6.7554513047 0.0362551481698 0)
(6.60433573184 0.0376283950033 0)
(6.43939375341 0.0350014346143 0)
(10.0162725101 0.0708272272393 0)
(10.036936557 0.0705857530501 0)
(10.02553387 0.0668128462366 0)
(9.99797280789 0.0667416998309 0)
(9.96435981272 0.0676403629285 0)
(9.92673908569 0.0682880340123 0)
(9.88506428433 0.0685917204869 0)
(9.8394853514 0.068742301806 0)
(9.79050469661 0.0689101411113 0)
(9.73869522916 0.0691959810543 0)
(9.68449892012 0.0696558630468 0)
(9.62815108707 0.0703350147369 0)
(9.56966838433 0.0712942573498 0)
(9.50884752292 0.0726356242685 0)
(9.44522438982 0.0745459073258 0)
(9.3779284701 0.0774099635254 0)
(9.30623923372 0.0822390305556 0)
(9.22081500961 0.0924283170779 0)
(10.0211806297 0.0578657308803 0)
(10.0537643647 0.0586186665397 0)
(10.0687008809 0.0556551707102 0)
(10.0733203298 0.0574410049669 0)
(10.0752085391 0.0605135465538 0)
(10.0757044906 0.0631147303566 0)
(10.0741681251 0.0651136960745 0)
(10.0701563626 0.0668145547724 0)
(10.063649732 0.0684863031851 0)
(10.0548016911 0.0702874964852 0)
(10.0437402691 0.0723082084865 0)
(10.0304868459 0.0746247831965 0)
(10.0149405792 0.0773419752108 0)
(9.99688090705 0.0806318232606 0)
(9.9759653873 0.0847931480939 0)
(9.9517168032 0.0903712683993 0)
(9.92410875248 0.0984089669788 0)
(9.88890846618 0.109375315065 0)
(10.0159666027 0.0473893879884 0)
(10.043541161 0.0550342436676 0)
(10.0601990578 0.0558309040709 0)
(10.0681935732 0.0592331880271 0)
(10.0738045826 0.0631541683667 0)
(10.078750746 0.066201561044 0)
(10.082648257 0.0684472293993 0)
(10.0850667393 0.0703479184837 0)
(10.0859057128 0.0722622447206 0)
(10.0852286737 0.0743907432895 0)
(10.0830939989 0.0768427277446 0)
(10.0794825114 0.0797096992287 0)
(10.074288308 0.083118318797 0)
(10.0673342496 0.0872736101482 0)
(10.0584007297 0.0925129247901 0)
(10.0472762067 0.0993841819239 0)
(10.0341539563 0.108750822014 0)
(10.0173586395 0.120947792458 0)
(10.0116912463 0.0392855327031 0)
(10.0340547841 0.050749814475 0)
(10.049878723 0.0531851876529 0)
(10.0582866932 0.0563391904289 0)
(10.064098119 0.0598673371069 0)
(10.0692130979 0.0627830151986 0)
(10.0735039043 0.0651335199675 0)
(10.076600222 0.0673106776832 0)
(10.0783778538 0.0696257532513 0)
(10.0788736081 0.0722505642007 0)
(10.0781412344 0.0752820637039 0)
(10.0761813132 0.0788131679844 0)
(10.0729316668 0.0829823242492 0)
(10.068287813 0.0880105527996 0)
(10.0621438196 0.0942400858092 0)
(10.0544584321 0.102175179414 0)
(10.0454954192 0.112509677665 0)
(10.0347011041 0.125656447186 0)
(10.0085327779 0.0327989513395 0)
(10.0264944935 0.0462271325295 0)
(10.0410144707 0.0503942530187 0)
(10.0495199429 0.0540358106583 0)
(10.055356094 0.0579655122117 0)
(10.0603601046 0.0614789396427 0)
(10.064595549 0.0645100484561 0)
(10.0677555296 0.0673466532379 0)
(10.069701236 0.070266391739 0)
(10.0704486638 0.0734513832703 0)
(10.0700506328 0.0770272427629 0)
(10.0685292106 0.0811191808013 0)
(10.0658640788 0.0858936215565 0)
(10.0620138396 0.0915877715295 0)
(10.056959424 0.0985342759226 0)
(10.0507683647 0.107176157095 0)
(10.043748922 0.118055606385 0)
(10.0358562419 0.131566307908 0)
(10.0062194554 0.0276212927044 0)
(10.0205656067 0.0418339993053 0)
(10.0335855492 0.0475180678643 0)
(10.0419790641 0.0517166468738 0)
(10.0478027516 0.0559118801221 0)
(10.0526771852 0.0597304486284 0)
(10.0568069246 0.0630893081907 0)
(10.0599620069 0.0662311134675 0)
(10.0620045702 0.0694360785271 0)
(10.0629351873 0.0729161817707 0)
(10.0628044375 0.0768303657297 0)
(10.0616513838 0.0813285501098 0)
(10.0594906519 0.0865885018951 0)
(10.0563323364 0.0928406794911 0)
(10.0522225816 0.100382913198 0)
(10.0472980759 0.109578874706 0)
(10.041885375 0.120828271546 0)
(10.0361187057 0.134411185619 0)
(10.0045400012 0.0234813084092 0)
(10.015964624 0.0376991827521 0)
(10.0274294128 0.0445508523379 0)
(10.0355294192 0.0493196030993 0)
(10.0413063575 0.0537835427059 0)
(10.0460773945 0.0579008457739 0)
(10.0501284375 0.0616285223847 0)
(10.0533056932 0.0651744424993 0)
(10.0554819526 0.0688046844017 0)
(10.0566458867 0.0727377574578 0)
(10.0568442432 0.0771434696471 0)
(10.0561292572 0.0821768565405 0)
(10.0545449609 0.0880099548412 0)
(10.0521435936 0.0948516105643 0)
(10.049019712 0.102953806851 0)
(10.0453522092 0.112599915045 0)
(10.0414663128 0.124068800931 0)
(10.0375910686 0.137523633219 0)
(10.0033269429 0.020154193702 0)
(10.0124245886 0.0338967568725 0)
(10.02238363 0.0415524565282 0)
(10.0300508933 0.0468599963647 0)
(10.035737475 0.0516020148713 0)
(10.040426742 0.0559979307767 0)
(10.0444270631 0.0600665480934 0)
(10.04765007 0.0639874596761 0)
(10.0499866028 0.068003634429 0)
(10.0514191091 0.0723301502447 0)
(10.0519916258 0.0771415631026 0)
(10.051767552 0.0825949899076 0)
(10.0508155224 0.088854850058 0)
(10.0492208768 0.0961068824208 0)
(10.0471113983 0.104558186619 0)
(10.0446864131 0.114420647519 0)
(10.0422496005 0.125876473637 0)
(10.0400596833 0.138994452232 0)
(10.0024534836 0.0174580887311 0)
(10.0097219455 0.0304516937755 0)
(10.0182946765 0.0385726898259 0)
(10.0254391799 0.0443369422007 0)
(10.030989829 0.049348431433 0)
(10.0356124441 0.0539983445631 0)
(10.0395912649 0.0583750678296 0)
(10.042887486 0.0626429487779 0)
(10.0454144172 0.0670221542809 0)
(10.047153992 0.0717193636383 0)
(10.0481488438 0.0769086236698 0)
(10.0484707098 0.0827440764423 0)
(10.0482063939 0.0893774092133 0)
(10.0474639236 0.0969667334306 0)
(10.0463896429 0.105673211747 0)
(10.0451861684 0.115644204338 0)
(10.0441243626 0.126985071872 0)
(10.0434865225 0.139698077659 0)
(10.0018238928 0.0152521623309 0)
(10.0076709911 0.0273700854008 0)
(10.0150172475 0.0356720622382 0)
(10.0215992791 0.0417756050293 0)
(10.0269773322 0.0470225006922 0)
(10.0315454954 0.0518919039116 0)
(10.0355333052 0.0565347098775 0)
(10.0389334757 0.0611092601372 0)
(10.0416822121 0.065813443266 0)
(10.0437650802 0.070839805329 0)
(10.0452241183 0.0763547092223 0)
(10.0461360298 0.0825029061168 0)
(10.0465988103 0.0894183619675 0)
(10.0467330121 0.0972294199856 0)
(10.0466910976 0.106054087215 0)
(10.0466666508 0.115985853888 0)
(10.0468907296 0.127073167817 0)
(10.0476599417 0.139276792082 0)
(10.0014048867 0.0135372530258 0)
(10.0062513714 0.0248070643833 0)
(10.0126316207 0.0330844909112 0)
(10.0186987342 0.0393946900916 0)
(10.0238978882 0.0448191928176 0)
(10.0284277669 0.0498586502926 0)
(10.0324534414 0.0547076321454 0)
(10.035980453 0.0595235972155 0)
(10.0389631747 0.0644854376988 0)
(10.0413925246 0.0697693447012 0)
(10.0433102556 0.0755297927269 0)
(10.0447943627 0.081898810314 0)
(10.0459468321 0.0889918757849 0)
(10.0468912833 0.0969103017322 0)
(10.0477767198 0.105737059886 0)
(10.0487813269 0.115525528478 0)
(10.0500999235 0.126286125049 0)
(10.0520442587 0.137955985998 0)
(10.0010928278 0.0120988911875 0)
(10.0051542311 0.0225135002393 0)
(10.0107137803 0.0305975561856 0)
(10.0162936967 0.0369936866939 0)
(10.0213057999 0.0425403339753 0)
(10.0258027618 0.0477098725729 0)
(10.0298843554 0.0527199652665 0)
(10.0335580576 0.0577284443413 0)
(10.0367926742 0.0628976959032 0)
(10.0395850847 0.0683858912706 0)
(10.0419767959 0.0743321109467 0)
(10.0440449202 0.0808526807612 0)
(10.0458909683 0.0880435892695 0)
(10.0476361804 0.0959811458945 0)
(10.0494207892 0.104718581979 0)
(10.051404122 0.114278104684 0)
(10.0537445861 0.124642607392 0)
(10.0567707733 0.13573354017 0)
(10.0008344816 0.0106773654356 0)
(10.0042232388 0.0201364716509 0)
(10.0090319861 0.0278642579472 0)
(10.0141277271 0.0342307011583 0)
(10.0189456223 0.0398403240513 0)
(10.0234289219 0.0451026406285 0)
(10.0276112605 0.0502393492555 0)
(10.0314923333 0.0554053054386 0)
(10.0350508905 0.0607450185061 0)
(10.0382889072 0.0663950930182 0)
(10.041246304 0.0724740575923 0)
(10.043995671 0.0790781883147 0)
(10.0466325704 0.086280810432 0)
(10.0492689148 0.0941327104813 0)
(10.052029163 0.102659176528 0)
(10.0550479005 0.111856171026 0)
(10.0584445312 0.121686063034 0)
(10.0625662728 0.132063778959 0)
(10.0006328362 0.00927286727187 0)
(10.0034843579 0.017689778825 0)
(10.0076567057 0.0248845265237 0)
(10.0123134535 0.0310573760119 0)
(10.0169538748 0.036616068489 0)
(10.0214546216 0.0418868916121 0)
(10.0257917491 0.0470741498322 0)
(10.0299498727 0.0523212734391 0)
(10.0339115281 0.0577520536259 0)
(10.0376809122 0.0634777696453 0)
(10.0412939997 0.0695923057067 0)
(10.0448147251 0.0761677781786 0)
(10.048326669 0.0832535089406 0)
(10.0519257412 0.0908753380747 0)
(10.0557144659 0.0990350116496 0)
(10.0597988202 0.107708395573 0)
(10.064258586 0.116845532192 0)
(10.0694625815 0.126361176394 0)
(10.0004893254 0.00785954812901 0)
(10.0029536299 0.0151387217092 0)
(10.0066479875 0.021610983424 0)
(10.0109675571 0.0273892750759 0)
(10.0154922463 0.0327329442949 0)
(10.0200702331 0.0378788627097 0)
(10.0246351121 0.0429944868773 0)
(10.0291533402 0.0482005791717 0)
(10.0336045392 0.0535955646097 0)
(10.037990821 0.0592625388257 0)
(10.0423403615 0.0652677231355 0)
(10.0467040515 0.0716572762842 0)
(10.0511480082 0.0784565222325 0)
(10.0557466297 0.0856695112788 0)
(10.060576371 0.0932797071681 0)
(10.065712992 0.101250267009 0)
(10.0711986899 0.109525966273 0)
(10.0774261341 0.118027412786 0)
(10.0004036538 0.00637585230651 0)
(10.0026401169 0.0123839719885 0)
(10.0060538766 0.017919004305 0)
(10.0101980095 0.0230607157995 0)
(10.0147245279 0.0279655333764 0)
(10.0194779132 0.032786488621 0)
(10.0243661581 0.0376414332043 0)
(10.0293388856 0.0426180475714 0)
(10.0343678516 0.0477843785435 0)
(10.0394476086 0.0531935706031 0)
(10.0445944346 0.058883180834 0)
(10.0498420195 0.0648743222351 0)
(10.0552351162 0.071170720732 0)
(10.0608233092 0.0777597413952 0)
(10.0666555279 0.0846130053228 0)
(10.0727782229 0.0916885247888 0)
(10.0792001901 0.098932557326 0)
(10.0863374592 0.106276701017 0)
(10.0003751571 0.00470831851805 0)
(10.0025533422 0.00922983497509 0)
(10.0059209959 0.0135619335485 0)
(10.0101118007 0.017777855763 0)
(10.0148191523 0.0219623548928 0)
(10.0198913531 0.0261938964671 0)
(10.0252238839 0.0305354478028 0)
(10.0307538224 0.0350344472088 0)
(10.0364424843 0.0397248687023 0)
(10.0422728755 0.0446286306512 0)
(10.0482461745 0.0497555928728 0)
(10.0543769788 0.0551036851677 0)
(10.0606878869 0.0606590128524 0)
(10.0672042798 0.0663969219994 0)
(10.0739499591 0.0722830107622 0)
(10.0809465784 0.0782750419102 0)
(10.0881767063 0.0843247582507 0)
(10.096080862 0.0903758734723 0)
(10.0004183544 0.0026368485184 0)
(10.0027467109 0.00528109616601 0)
(10.0063688619 0.00803227326904 0)
(10.0109075601 0.0109577934328 0)
(10.0160487299 0.0140718744101 0)
(10.0216388689 0.0173769220917 0)
(10.0275703703 0.0208778528338 0)
(10.0337734606 0.024579790997 0)
(10.0401987486 0.0284821094076 0)
(10.0468155565 0.0325771908862 0)
(10.0536090229 0.0368500678696 0)
(10.0605756439 0.0412800881459 0)
(10.0677183437 0.0458407598653 0)
(10.0750418082 0.0505010995818 0)
(10.0825490019 0.0552254979687 0)
(10.0902415851 0.0599755220578 0)
(10.0980816785 0.0647104298534 0)
(10.1065281154 0.0693863172999 0)
(10.0005519348 0.000429038907404 0)
(10.0032645855 0.00108659073344 0)
(10.0074605443 0.00218958367615 0)
(10.0126244705 0.00377852329266 0)
(10.0183787204 0.00577217163234 0)
(10.0245703518 0.00808938305965 0)
(10.0311087813 0.0106826691112 0)
(10.0379302437 0.0135220255501 0)
(10.0449803448 0.0165797263992 0)
(10.0522191322 0.0198246850827 0)
(10.0596226135 0.0232248900322 0)
(10.0671784062 0.0267477271254 0)
(10.0748802327 0.0303615593469 0)
(10.0827227044 0.0340339213354 0)
(10.0906984943 0.0377327260954 0)
(10.0987994538 0.0414249917552 0)
(10.10697821 0.0450790975619 0)
(10.1156997594 0.0486621090947 0)
(10.0007342552 -0.00170467474037 0)
(10.0039774393 -0.00288428834408 0)
(10.0089167545 -0.00318531630241 0)
(10.0148042131 -0.00266393542854 0)
(10.0211784082 -0.00155177616996 0)
(10.0279144738 -1.90071124529e-05 0)
(10.034962117 0.00185008326338 0)
(10.0422728352 0.0040044647564 0)
(10.0497907094 0.00639566569404 0)
(10.0574720703 0.00897420423869 0)
(10.0652908122 0.0116952774718 0)
(10.0732340249 0.0145192129109 0)
(10.0812936951 0.0174116833918 0)
(10.0894616897 0.0203406180643 0)
(10.0977267122 0.0232760803873 0)
(10.1060772085 0.0261883802938 0)
(10.1144628082 0.0290495527146 0)
(10.1233616219 0.0318311344798 0)
(10.001020631 -0.00403814062076 0)
(10.0050589581 -0.00706275016823 0)
(10.0110009229 -0.00857484181217 0)
(10.017734401 -0.00888724803286 0)
(10.0247387044 -0.00847226417905 0)
(10.031984017 -0.00758362994776 0)
(10.0394913313 -0.00631834842253 0)
(10.047228009 -0.00473651491548 0)
(10.0551324516 -0.00290184070004 0)
(10.0631576258 -0.00087646498565 0)
(10.071280382 0.00128652830652 0)
(10.0794920109 0.00354642891098 0)
(10.0877867459 0.00586982951996 0)
(10.09615662 0.00822709730764 0)
(10.104587716 0.0105902225796 0)
(10.1130645983 0.0129332053614 0)
(10.121532708 0.0152301309598 0)
(10.1304640995 0.0174581876767 0)
(10.001476678 -0.00672584677461 0)
(10.0066870113 -0.0115886468435 0)
(10.0139220745 -0.0140264862122 0)
(10.0215689037 -0.0149033612994 0)
(10.0291556521 -0.015010628032 0)
(10.0368508977 -0.0146387733665 0)
(10.044766199 -0.0138633290323 0)
(10.0528733424 -0.0127510895653 0)
(10.0611015266 -0.0113881363943 0)
(10.0694063713 -0.00985458507827 0)
(10.0777751129 -0.0082097275014 0)
(10.086208032 -0.00649329796419 0)
(10.094704037 -0.00473291749307 0)
(10.1032530731 -0.00294964559346 0)
(10.1118390507 -0.00116488542942 0)
(10.1204447091 0.000598670347707 0)
(10.1290171873 0.00231700212713 0)
(10.1380520867 0.00396438561701 0)
(10.002214 -0.00997127546383 0)
(10.0091343875 -0.0165518640942 0)
(10.0179580167 -0.0194788546577 0)
(10.0264966603 -0.0206255525129 0)
(10.0345633808 -0.0210977993385 0)
(10.0426375877 -0.0211113902469 0)
(10.0509059439 -0.0206778535638 0)
(10.0593157368 -0.0198665785195 0)
(10.0677803125 -0.0187850549502 0)
(10.0762639922 -0.0175275765509 0)
(10.0847714171 -0.0161584720702 0)
(10.0933174913 -0.0147184760534 0)
(10.1019082586 -0.013234714454 0)
(10.1105360873 -0.0117299483743 0)
(10.1191812578 -0.0102258590522 0)
(10.1278193054 -0.00874677831025 0)
(10.136386316 -0.00731858904812 0)
(10.1453485653 -0.00596984581073 0)
(10.0034140139 -0.0140553298887 0)
(10.0127758463 -0.0219822259263 0)
(10.0234164439 -0.0248176602215 0)
(10.032704224 -0.0259938139514 0)
(10.0411216312 -0.0267726423413 0)
(10.049537451 -0.0271772619754 0)
(10.0581595079 -0.0271571339263 0)
(10.0668792002 -0.0267958485187 0)
(10.075591791 -0.0262094171288 0)
(10.0842735717 -0.0254796984348 0)
(10.0929463244 -0.0246492603029 0)
(10.1016360329 -0.0237379742864 0)
(10.110352838 -0.0227583707171 0)
(10.1190882945 -0.0217240314371 0)
(10.1278194629 -0.0206530428842 0)
(10.1365183192 -0.019569238199 0)
(10.1451200026 -0.0185057409533 0)
(10.1541212848 -0.017509333672 0)
(10.0053321499 -0.0193469590068 0)
(10.0180651367 -0.0277910595855 0)
(10.0305821556 -0.0298640728333 0)
(10.0403255963 -0.0307935392853 0)
(10.0488982745 -0.0315250665444 0)
(10.0575294148 -0.0317918672312 0)
(10.0663694791 -0.0315703918751 0)
(10.075249068 -0.0310434593054 0)
(10.0840682835 -0.0303848093245 0)
(10.0928317176 -0.0296873945231 0)
(10.1015831874 -0.0289789851414 0)
(10.1103576803 -0.0282559956798 0)
(10.119164555 -0.02750673037 0)
(10.1279894528 -0.0267240657794 0)
(10.1368005093 -0.0259081904678 0)
(10.1455546868 -0.0250681648702 0)
(10.1541598068 -0.0242304055615 0)
(10.1630411688 -0.0234562809435 0)
(10.0083881086 -0.0263045349986 0)
(10.0256015297 -0.0337480381954 0)
(10.0398328816 -0.0349233187851 0)
(10.0498141076 -0.0364440688357 0)
(10.0586018384 -0.0381102146434 0)
(10.0675638301 -0.0391262801481 0)
(10.0766686016 -0.0394302070301 0)
(10.085679803 -0.0392791733697 0)
(10.0945260706 -0.0389127503563 0)
(10.1032609536 -0.038465330104 0)
(10.1119634816 -0.0379876004032 0)
(10.1206863321 -0.0374859194001 0)
(10.1294440274 -0.0369512275024 0)
(10.1382211369 -0.0363731255854 0)
(10.1469828072 -0.0357427091298 0)
(10.1556778592 -0.0350520265569 0)
(10.1641908958 -0.0343052656596 0)
(10.1728975958 -0.0335636812772 0)
(10.0127731318 -0.0354797131393 0)
(10.0352950221 -0.0383054439719 0)
(10.0500403609 -0.0360208667088 0)
(10.0591882503 -0.0361875336422 0)
(10.0674337414 -0.0373751119082 0)
(10.0759853775 -0.0383075946295 0)
(10.0845175256 -0.038748214728 0)
(10.0927036575 -0.038852059217 0)
(10.100496505 -0.0387959188435 0)
(10.1080004848 -0.038681991448 0)
(10.1153387924 -0.0385473454616 0)
(10.1225947173 -0.038392778888 0)
(10.1298035877 -0.038206553031 0)
(10.1369671679 -0.0379731998886 0)
(10.1440681131 -0.0376727329072 0)
(10.1510699196 -0.0372692120662 0)
(10.1578441378 -0.0366977056337 0)
(10.1645038171 -0.0358552312311 0)
(10.0160085719 -0.0491518285611 0)
(10.0395556081 -0.0517104017551 0)
(10.0457696635 -0.0490788382973 0)
(10.0433100122 -0.0485544755476 0)
(10.0388932573 -0.0488181988543 0)
(10.0338525504 -0.0489312396541 0)
(10.0278958674 -0.0487388289876 0)
(10.0208551452 -0.0483478090523 0)
(10.0128861057 -0.0478767785026 0)
(10.0042852024 -0.0473949216219 0)
(9.99533766306 -0.0469274627535 0)
(9.98625786716 -0.0464753557912 0)
(9.9771868813 -0.0460298708006 0)
(9.9682152556 -0.0455778909315 0)
(9.95940999374 -0.045099264673 0)
(9.95083620214 -0.0445479498733 0)
(9.94253027746 -0.0438072646111 0)
(9.93436254901 -0.0422050781535 0)
(9.85227715417 -0.0289541688271 0)
(9.72315908851 -0.0318852745256 0)
(9.57927064615 -0.031786122027 0)
(9.43544870673 -0.032103498143 0)
(9.29897948497 -0.0324407479955 0)
(9.17039331463 -0.0325391193257 0)
(9.04859220704 -0.0324011844486 0)
(8.93275956596 -0.0321050739937 0)
(8.82252483963 -0.0317220233812 0)
(8.71773354975 -0.0312978924715 0)
(8.61826415719 -0.0308568284304 0)
(8.5239525968 -0.0304098941107 0)
(8.43458561964 -0.0299614538175 0)
(8.34992396796 -0.029511728342 0)
(8.26973322529 -0.0290562327219 0)
(8.19381412828 -0.0285756618776 0)
(8.12225007613 -0.028002400775 0)
(8.05331638449 -0.0267013546498 0)
(0.0259291827966 -0.107042606731 2.03177309091e-19)
(0.0473280307768 -0.10592938027 0)
(0.0714046645865 -0.0932745756677 0)
(0.0844521808178 -0.0455764214409 0)
(0.0130286281355 0.070465792982 0)
(-0.0897873317873 0.109253403871 -1.04141991401e-19)
(-0.199763811071 0.125801353036 0)
(-0.316831729201 0.136317628252 0)
(-0.440557005734 0.143748326583 4.29270890534e-20)
(-0.56997847332 0.14908533435 0)
(-0.704153957442 0.152869878441 -3.11766317405e-20)
(-0.842245293154 0.155455732708 0)
(-0.983521151807 0.157094010615 -2.52884025969e-20)
(-1.12734836359 0.157971261876 -2.34529046726e-20)
(-1.27318072642 0.158231518434 0)
(-1.42054807158 0.157988277229 2.10615564534e-20)
(-1.56904691676 0.157333378725 2.03016250093e-20)
(-1.71833180528 0.156341908279 1.97446137764e-20)
(-1.86810854468 0.155076854182 0)
(-2.01812764042 0.153591485713 0)
(-2.16817998555 0.151932208281 0)
(-2.31809293725 0.150139844994 0)
(-2.46772784738 0.14825159989 0)
(-2.6169777894 0.14630147801 0)
(-2.76576666259 0.144321472761 -1.89244151431e-20)
(-2.91404816888 0.142341402158 -1.90489494488e-20)
(-3.06180530831 0.140389339258 0)
(-3.20904955613 0.138490728455 1.93934992697e-20)
(-3.35581945652 0.136668356789 1.9604450249e-20)
(-3.5021782311 0.134940991709 1.98364059317e-20)
(-3.64821047714 0.13332293302 0)
(-3.79401763062 0.131822454044 0)
(-3.93971168429 0.130441511528 -2.06311934035e-20)
(-4.0854074945 0.129174315497 0)
(-4.23121407767 0.128007371938 0)
(-4.37722492276 0.126918659905 -2.15311084818e-20)
(-4.52350741343 0.12587849729 0)
(-4.67009227715 0.124849375276 0)
(-4.81696331706 0.123787654337 0)
(-4.96404789996 0.122644216691 0)
(-5.11120895776 0.121367057253 0)
(-5.25823917589 0.119902508826 4.69627324332e-20)
(-5.40485792855 0.118198041082 0)
(-5.55071009208 0.116203275345 0)
(-5.69536675932 0.11387246846 4.89200170562e-20)
(-5.83832726247 0.11116574533 4.95543872327e-20)
(-5.97902510271 0.10805238454 0)
(-6.11683870313 0.104511692341 0)
(-6.25110676194 0.100533719814 5.13524645458e-20)
(-6.38114282106 0.0961177599409 0)
(-6.50624791556 0.0912732335379 -5.24219238718e-20)
(-6.62572046001 0.0860193319567 0)
(-6.73886724985 0.080386063337 5.33442493138e-20)
(-6.84501362209 0.0744154126106 0)
(-6.94351918238 0.0681626889621 5.40760525828e-20)
(-7.03380146997 0.0616933911937 5.43562652834e-20)
(-7.11536315433 0.0550760517593 0)
(-7.18781715775 0.0483732425528 0)
(-7.25089819413 0.0416342913343 0)
(-7.30445363378 0.0348926431731 5.47994367773e-20)
(-7.34841534821 0.028169346535 0)
(-7.38274935615 0.021477358388 0)
(-7.4074288863 0.0148192435386 0)
(-7.42240592901 0.00820356180222 0)
(-7.42763189649 0.00168358766202 0)
(-7.42327240507 -0.00466798478512 0)
(-7.40955510699 -0.0108122990132 0)
(-7.38669874457 -0.0167666450738 -5.14092818568e-20)
(-7.35485982163 -0.0225831218992 0)
(-7.31407441061 -0.0283407965314 -4.9465797648e-20)
(-7.26420909906 -0.0341425306883 -4.83075404147e-20)
(-7.20491884451 -0.0401088203271 0)
(-7.13561685945 -0.0463716045348 4.55403421843e-20)
(-7.05546541371 -0.0530611888707 0)
(-6.9633952734 -0.0602921489625 -4.20155918969e-20)
(-6.85815815719 -0.0681438976709 0)
(-6.73841262945 -0.0766456713874 3.748872565e-20)
(-6.60284227732 -0.0857594595289 -3.47631270505e-20)
(-6.45029148031 -0.095374367949 0)
(-6.27990190365 -0.105307636361 0)
(-6.09123529382 -0.115318526558 0)
(-5.88436989999 -0.12512077709 0)
(-5.65994217629 -0.134413440484 -1.52868830161e-20)
(-5.41913244538 -0.142912866261 1.00642716846e-20)
(-5.1636270374 -0.150378970858 -8.71715429843e-21)
(-4.89557130454 -0.156614098213 3.69719397033e-21)
(-4.61743194961 -0.161478507021 1.71637033798e-20)
(-4.33181070075 -0.164905488131 0)
(-4.04133465174 -0.166897416458 0)
(-3.74866011745 -0.167472837225 0)
(-3.45640400235 -0.166645922293 8.35107670068e-20)
(-3.16692453662 -0.164451286197 0)
(-2.88224683006 -0.160939145983 0)
(-2.60415674876 -0.156191295133 1.52338378651e-19)
(-2.33436920857 -0.150297790959 0)
(-2.07443484586 -0.1433662373 -2.14292752085e-19)
(-1.82551191625 -0.135548106986 0)
(-1.58820670373 -0.127228031255 2.98950778393e-19)
(-1.36259809139 -0.11914257936 0)
(-1.14877378611 -0.112124798284 0)
(-0.947145034775 -0.107246339719 0)
(-0.75431458915 -0.105387247454 6.33453212867e-19)
(-0.570759551619 -0.107215780195 0)
(-0.394559679238 -0.111581691464 1.05025273639e-18)
(-0.214880704363 -0.124468918924 1.43412391373e-18)
(-0.0521152559114 -0.14207656164 0)
(0.140393627421 -0.142508092027 0)
(0.268859307287 -0.121840242216 0)
(0.382518824407 -0.100887974849 1.27521390891e-18)
(0.493821328583 -0.0833147308358 0)
(0.599358565332 -0.0691273092585 0)
(0.697223061537 -0.0576801906388 7.62492069607e-19)
(0.786671244616 -0.0483729913983 6.89555932319e-19)
(0.867506278096 -0.0407003222889 0)
(0.939885922604 -0.0342808384474 -5.93123713106e-19)
(1.00417794582 -0.0288187883907 -5.60070061564e-19)
(1.06086329683 -0.0241066915723 5.33619268804e-19)
(1.11044727202 -0.0199865715878 0)
(1.15342937777 -0.0163509440754 0)
(1.19027762814 -0.0131147101116 0)
(1.22143223751 -0.0102190868206 -4.69425793683e-19)
(1.24729085026 -0.00761524206032 0)
(1.26821189247 -0.00527376136301 -4.5305117995e-19)
(1.28451604101 -0.00317454182624 0)
(1.29651121206 -0.00133161353581 0)
(1.30451283837 0.00022587604598 0)
(1.30892781465 0.00146631601949 4.38884776536e-19)
(1.31067111235 0.00243513350005 4.37255226621e-19)
(1.30987406571 0.00324191871176 0)
(1.30664251979 0.00395618123403 0)
(1.30109003073 0.00460165279917 0)
(1.2933380969 0.00519362757396 0)
(1.283509661 0.00573568352245 0)
(1.27172483141 0.00623444731409 0)
(1.25809909065 0.00669145754005 8.97535852708e-19)
(1.24274099261 0.00711374817613 0)
(1.22575258003 0.00750394900007 0)
(1.20722793201 0.00786875052446 0)
(1.18725751676 0.00821121900765 -9.44573240289e-19)
(1.1659332357 0.00853720935864 -9.60275028022e-19)
(1.14335476064 0.00885047185061 9.7762926174e-19)
(1.11961970315 0.00915922154035 9.96687118869e-19)
(1.09482180594 0.00946970002647 0)
(1.06905263827 0.00977752648032 0)
(1.04240748089 0.0100728690684 0)
(1.01499437074 0.0103423153628 1.0910710366e-18)
(0.986915217106 0.0105619840819 0)
(0.958262011709 0.0107347978143 0)
(0.929164379243 0.010886566892 -1.18265576472e-18)
(0.899798714015 0.0110358028391 0)
(0.870365549766 0.0111823081222 -1.25382894712e-18)
(0.841091711579 0.0113145878874 0)
(0.812234755184 0.0114088434979 -1.33156740001e-18)
(0.784114353525 0.011403781848 0)
(0.757160473075 0.0112119727156 0)
(0.731861434509 0.010723352343 0)
(0.70882637715 0.00989823002333 0)
(0.688807222963 0.00875719783932 0)
(0.67305357254 0.00731610687185 0)
(0.662398208382 0.00567118009467 0)
(0.659078432291 0.00405204564489 0)
(0.661156020725 0.00268312325224 -1.51394761998e-18)
(0.667248938438 0.00160114253004 0)
(0.67626699842 0.000796797815239 0)
(0.687361178903 0.000246402766097 -1.45262345176e-18)
(0.699851714503 -7.53011748194e-05 0)
(0.713174032338 -0.000194214789858 0)
(0.726825391706 -0.000131068940643 -1.38675990502e-18)
(0.740336810805 9.72404936151e-05 0)
(0.753241711195 0.000475138974538 0)
(0.765059943307 0.00098294875056 -1.33466877184e-18)
(0.775297299556 0.00160579273648 1.32272297997e-18)
(0.783460504028 0.00229681124993 -1.31412573378e-18)
(0.789086146084 0.00296421967744 0)
(0.791982271834 0.00349455646479 0)
(0.792540684642 0.00381949698525 -2.61353740023e-18)
(0.791448675965 0.00403024246073 0)
(0.786814020593 0.00438746562987 2.62173738136e-18)
(0.786103253982 0.00518479139986 2.63816955875e-18)
(0.663527460925 0.00232457426111 0)
(0.00877525463849 -0.10425712219 -6.28037784352e-19)
(-0.0609555215286 0.0233507409304 0)
(-0.158710675451 0.138784539283 1.82367114707e-19)
(-0.238202760333 0.205063100367 -1.2206132019e-19)
(-0.320264220816 0.259909246724 -9.17640025556e-20)
(-0.418557896182 0.299870550362 3.74778139443e-20)
(-0.525838092982 0.32869728675 6.37810368694e-20)
(-0.64148472916 0.350669677835 0)
(-0.763899383728 0.367651085145 -2.44174451063e-20)
(-0.891696723823 0.380720570518 4.48094189495e-20)
(-1.02377837654 0.390619831133 6.17102126409e-20)
(-1.15925367423 0.397903798782 -3.87286157611e-20)
(-1.29738680887 0.403010278881 5.48040484565e-20)
(-1.43756372408 0.406295572521 1.73141445963e-20)
(-1.57926938504 0.408056123403 0)
(-1.72207087794 0.408540963639 -1.63949572626e-20)
(-1.86560454615 0.407961326727 -1.61431224136e-20)
(-2.00956524666 0.406496720142 -1.59955466597e-20)
(-2.15369801876 0.404301034651 3.24491515446e-20)
(-2.29779079391 0.401506615243 0)
(-2.44166917932 0.398229040709 3.25599675617e-20)
(-2.58519210113 0.394570338315 0)
(-2.72824920357 0.39062286145 -3.30626156954e-20)
(-2.87075873849 0.386471397703 0)
(-3.01266658452 0.382195780253 5.05374440973e-20)
(-3.1539456892 0.377871514161 -1.73758403524e-20)
(-3.29459599356 0.373570686042 -3.48289720564e-20)
(-3.43464379327 0.369360806414 -5.28726665458e-20)
(-3.57414061337 0.365304038439 -1.77937562914e-20)
(-3.7131611819 0.361454403403 -1.81089842427e-20)
(-3.85180024483 0.357855694616 0)
(-3.99016778162 0.354537820407 -3.78719292073e-20)
(-4.12838271856 0.351514519747 1.9118564107e-20)
(-4.26656515624 0.348779847365 0)
(-4.40482735795 0.346306696917 0)
(-4.54326363416 0.344044726365 2.01945082885e-20)
(-4.68193978272 0.341920855063 0)
(-4.82088242632 0.339839198188 0)
(-4.96006870391 0.337683892064 0)
(-5.09941658502 0.335321424582 0)
(-5.23877700703 0.33260600257 0)
(-5.37792857876 0.329383798873 4.54183049565e-20)
(-5.51657536421 0.325499355737 9.18013353372e-20)
(-5.65434645917 0.320799820082 0)
(-5.79079634209 0.315140976744 4.77075937894e-20)
(-5.92540524074 0.308392289123 -4.78382630108e-20)
(-6.05758497671 0.300445091122 0)
(-6.18669252916 0.291217253211 0)
(-6.31204781785 0.280656082663 -1.50572809613e-19)
(-6.43294739634 0.268737185661 -1.01979999723e-19)
(-6.5486744935 0.255467861549 5.12645966313e-20)
(-6.65850898304 0.240888491571 1.04536981103e-19)
(-6.76173599276 0.225076416748 5.32581966702e-20)
(-6.85765607651 0.208150530015 0)
(-6.94560932828 0.190272355498 -1.61253697635e-19)
(-7.02500636734 0.171635908441 -5.39061509358e-20)
(-7.09536722131 0.152449942563 0)
(-7.15634425083 0.132919268903 1.10021563079e-19)
(-7.20772617426 0.113228245735 -1.10499263752e-19)
(-7.2494311632 0.0935359943713 -5.50020973301e-20)
(-7.28141582294 0.0739723564356 0)
(-7.30367715671 0.0546302757905 0)
(-7.3161869442 0.0355760425129 0)
(-7.31881242154 0.0168978325156 1.10434873171e-19)
(-7.31176577986 -0.00123900881948 0)
(-7.2957614446 -0.0186703868596 -1.08262124987e-19)
(-7.27096812367 -0.0354072661552 0)
(-7.23758940095 -0.0515385655004 -5.29912530324e-20)
(-7.19573525839 -0.067217633006 0)
(-7.14539864699 -0.0826556272269 -5.10622803167e-20)
(-7.08641596282 -0.0981174551804 -4.99256497805e-20)
(-7.01842626097 -0.113911214132 0)