/*--------------------------------*- C++ -*----------------------------------*\
| =========                 |                                                 |
| \\      /  F ield         | OpenFOAM: The Open Source CFD Toolbox           |
|  \\    /   O peration     | Version:  v1806                                 |
|   \\  /    A nd           | Web:      www.OpenFOAM.com                      |
|    \\/     M anipulation  |                                                 |
\*---------------------------------------------------------------------------*/
FoamFile
{
    version     2.0;
    format      ascii;
    class       volScalarField;
    location    "17";
    object      alpha;
}
// * * * * * * * * * * * * * * * * * * * * * * * * * * * * * * * * * * * * * //

dimensions      [0 0 -1 0 0 0 0];


internalField   nonuniform List<scalar> 
12225
(
0.392154640267
0.330261991902
0.350130108948
0.349979411735
0.361659343301
0.365856515778
0.371676669157
0.375607301393
0.377678466033
0.376736689445
0.371347168414
0.362869382224
0.356040575047
0.344473485341
0.321581349999
0.291778049571
0.253387096104
0.221156679116
0.225368350341
0.282629634118
0.314275046475
0.309709927315
0.318579604207
0.320884742059
0.324514853179
0.326757810931
0.327977669383
0.327511771158
0.324041155323
0.317798983416
0.311268202672
0.30160003553
0.284433565259
0.26227454791
0.237998551622
0.235451649659
0.370882561482
0.300662136968
0.318591450649
0.316869308332
0.326340460707
0.329570507612
0.333944083425
0.336860257977
0.33884592744
0.339411293825
0.337880498601
0.334122017918
0.328620276472
0.319815116731
0.305430326982
0.287417171599
0.270797461066
0.275414780615
0.308919716082
0.288465101975
0.314597131647
0.308811903131
0.317380868002
0.319029291425
0.322103299625
0.323924645724
0.325132254613
0.325323434657
0.324181878892
0.321538624772
0.317253621548
0.310416028798
0.300155960775
0.288498850236
0.280934729553
0.290047083549
0.33888820672
0.289224119417
0.313132667688
0.306440824683
0.31413074951
0.31487554195
0.317073108318
0.317999245658
0.318290004221
0.317635404393
0.315907650814
0.313016057045
0.308740089229
0.302654800929
0.294825025059
0.287465748321
0.285380534178
0.295363208685
0.328367477087
0.285380286547
0.31003135627
0.301955661424
0.30910731314
0.309140493895
0.310802461534
0.311235160919
0.311093626559
0.310124492405
0.308280606067
0.305522018501
0.301696041537
0.296707361434
0.291126125028
0.287105292451
0.288217070447
0.297679826643
0.330552550949
0.284016262938
0.307533873869
0.29862292848
0.30511257303
0.304509539262
0.305666987528
0.305666732424
0.305181906493
0.304007259219
0.302145637582
0.299601900961
0.29634795885
0.292512912412
0.288888636486
0.287328851157
0.290217347939
0.298869892934
0.328800667499
0.282598511938
0.305393818637
0.295754147962
0.301695407948
0.300574485825
0.301347813208
0.30104035736
0.300368088338
0.299143152975
0.297391857565
0.295162094447
0.292543940037
0.289808983621
0.28780077599
0.287970563447
0.291799281597
0.299623333717
0.327785721907
0.2818375599
0.303659471378
0.293514093009
0.298936747507
0.29737475633
0.297829918067
0.297309405798
0.296562224459
0.295393555258
0.293840831937
0.292000427351
0.290048911259
0.288330174823
0.287611984302
0.288979016856
0.293259387318
0.300377325687
0.326942832783
0.281512520327
0.302469841234
0.291957489033
0.296945053289
0.295021177757
0.295243338303
0.294599730625
0.293847012492
0.292782936918
0.291478837186
0.290078010146
0.288804824595
0.288001751598
0.288302737289
0.29047052084
0.294921193608
0.301379631849
0.327003241831
0.281436249373
0.302107162627
0.291261938569
0.296000228189
0.293870104387
0.29401358714
0.293346191117
0.292645529984
0.291736653187
0.290726473355
0.289762847951
0.28907189377
0.288954214031
0.289908274966
0.292444910976
0.296727087522
0.302453987917
0.330911054717
0.281550258696
0.303548122671
0.292140353937
0.296938552141
0.29471505941
0.294842867074
0.294177659049
0.293571160295
0.292819874265
0.291974829042
0.291204198691
0.290744435621
0.290882112809
0.291998972511
0.294444909884
0.298286848136
0.303230753264
0.334132202648
0.282208704033
0.305002397258
0.29319569204
0.297823341659
0.295434256011
0.295465436214
0.294726495679
0.29403394904
0.293205692962
0.292350469982
0.291641274643
0.291347472524
0.29167673333
0.292941852898
0.295351115738
0.298875280504
0.30325506042
0.338056939662
0.283032267809
0.306663843749
0.294334503023
0.298757002679
0.296024515799
0.295758944611
0.294806635414
0.294007633492
0.293177092755
0.292430490678
0.291955240246
0.291985367822
0.292665115021
0.294159629058
0.296593806107
0.299829292659
0.303720685541
0.343179340876
0.283935302362
0.308754988837
0.295718700662
0.299931004475
0.296792588105
0.296189976755
0.294985237585
0.294062157181
0.293269814589
0.292690110866
0.292519291089
0.29293064463
0.293946478229
0.295647593257
0.298059508061
0.3010298896
0.304420643165
0.34858414987
0.28490384246
0.311148952778
0.297412813436
0.301518916364
0.29803171324
0.297179680871
0.29579028935
0.294815730173
0.294071804638
0.2936827777
0.293760642231
0.294461788862
0.295684593271
0.297471119306
0.299771587979
0.302453639845
0.305421521316
0.353488107972
0.285792976011
0.313584643683
0.29927929593
0.303425893571
0.299731565666
0.298777482748
0.297333052591
0.296386047374
0.295756917908
0.295513026797
0.295776814028
0.29662875238
0.297939596462
0.29968169373
0.301825458339
0.304205837823
0.306826661418
0.358134919771
0.28647782397
0.315915693795
0.301145924016
0.305473698745
0.301715116321
0.300802050376
0.299398543095
0.29854008528
0.298025964209
0.297905146829
0.298281622048
0.299201864588
0.300505082186
0.302151789515
0.304116689027
0.306239872872
0.308556166035
0.360699333776
0.286574659149
0.317162155736
0.302211706244
0.306829440108
0.303213179918
0.302522389042
0.301319576914
0.300671394619
0.300356515771
0.300408790681
0.300910458217
0.301894219436
0.303184673419
0.304748797159
0.306572901962
0.308508175019
0.310598129185
0.355415929201
0.28594872285
0.315611088403
0.301502578363
0.306586513007
0.303625550008
0.303558640597
0.302993290898
0.302918900736
0.303114203965
0.303583338358
0.304391798002
0.305576295644
0.306974770789
0.308558900349
0.310324681754
0.31213825722
0.31403340816
0.3511023309
0.284878845621
0.313769500045
0.300274533964
0.305718249913
0.303279355389
0.303705713916
0.303601999547
0.303967020916
0.304524434444
0.305286163745
0.306294463483
0.307618751565
0.309073674334
0.310669085724
0.31238207513
0.314121273916
0.315895409567
0.348441236981
0.283949244998
0.311942689408
0.298976381343
0.30469163411
0.302709991487
0.303536383947
0.303833655519
0.304540253613
0.305386024925
0.306381677532
0.30754734094
0.308965436603
0.310472735182
0.31206694988
0.313749054587
0.315421574634
0.317127314739
0.342676986036
0.282368971364
0.310225168901
0.297726910053
0.303735081248
0.302190722259
0.303402245838
0.304064759126
0.305090097116
0.306217104256
0.307414739463
0.308745324141
0.310272861382
0.311855474305
0.313468474043
0.315160360284
0.316811947737
0.318472637859
0.344883513122
0.28187519092
0.308021061473
0.296162638848
0.30241236085
0.301310180124
0.302885066856
0.303906145949
0.305226157319
0.306590236075
0.307988050651
0.309459732393
0.311089620019
0.3127308158
0.314400877984
0.316111438357
0.317777798951
0.319407724923
0.326359704734
0.279385233178
0.306645609771
0.295326589768
0.301864117228
0.301179257789
0.303096502589
0.304408769492
0.305983507052
0.307563633114
0.309136369727
0.310720906214
0.312433731201
0.3141330866
0.315827546035
0.317572059536
0.319287085867
0.320962443585
0.356304925835
0.280201708583
0.303220564138
0.292844760165
0.299451622927
0.299170178815
0.301319833218
0.302899588256
0.304702876919
0.306504535613
0.308261178732
0.309999069947
0.311826012507
0.313636994167
0.31543446835
0.317254983479
0.319025938665
0.320609456619
0.278085196273
0.275397041058
0.301573363822
0.292367213915
0.299168263423
0.299403377836
0.301906841701
0.303813519645
0.305919667868
0.308020022792
0.31009037357
0.312000416824
0.313924895086
0.315826201002
0.317656369979
0.319508271339
0.321378629806
0.323424558799
0.407575876668
0.281726671208
0.293101077935
0.286564511664
0.292986752134
0.293443683914
0.295812407639
0.297550456776
0.299416625764
0.301272689067
0.302986171322
0.304583134325
0.30625020749
0.307906080874
0.309542834092
0.311306387188
0.313169243436
0.314659966487
0.15736384403
0.261766812479
0.286683638104
0.280318664674
0.286551408399
0.287582825921
0.290523071743
0.293160173505
0.296164759435
0.299412054744
0.302793656007
0.305961549401
0.309171141292
0.312513487151
0.315905442074
0.319360236023
0.322923145646
0.326380126841
0.329462818871
0.298091511199
0.302367513817
0.300825212073
0.308296958157
0.309260337036
0.311807594602
0.313775643218
0.315774327975
0.317527692022
0.31893894123
0.320255570574
0.321633812403
0.322693508974
0.323438251156
0.324060551229
0.32437297056
0.32510994286
0.476039651617
0.476399222882
0.476583982056
0.476565472872
0.476352171544
0.475981952182
0.475553624045
0.475100353949
0.474648175449
0.474215374646
0.473814067579
0.473451464407
0.473131201542
0.472854378228
0.472620300331
0.472426990071
0.472271824305
0.472151410544
0.472062589885
0.472002346183
0.471967362727
0.471955443366
0.471963323313
0.471990343259
0.472034640911
0.472096714074
0.472174988954
0.472269826258
0.472380652273
0.472508356188
0.472652738054
0.472814385438
0.472992956665
0.473189288699
0.473403208111
0.473634605903
0.473882362543
0.474147212836
0.474427977732
0.474724572911
0.475035605557
0.475360282649
0.475696889944
0.476043733093
0.476398668718
0.476759122785
0.477122485221
0.477485620011
0.477845271639
0.478198491742
0.478542436884
0.478875755025
0.479195312861
0.479496934561
0.479775279742
0.48002527007
0.480241532779
0.480418729821
0.480551370927
0.480634248035
0.480663328401
0.480637451307
0.480555729992
0.480415380055
0.480215433063
0.479959030304
0.479648223064
0.47928511087
0.478873036344
0.478414814386
0.477914761431
0.477376778744
0.476805673038
0.476205708471
0.475581577188
0.474937286904
0.474276829577
0.473604779381
0.472924962142
0.472240035672
0.471552076241
0.470864396762
0.470179071093
0.46949877874
0.468822718289
0.468153502333
0.467491132182
0.466829317837
0.466171720212
0.465514880685
0.464858105266
0.464201203743
0.46354215819
0.462907584073
0.462312289919
0.46171865446
0.461095131756
0.460456498757
0.459804736542
0.459145982162
0.458375316483
0.457514268572
0.457382339075
0.457349585656
0.457153277142
0.456738360716
0.456137152963
0.455826688834
0.45545341034
0.455113328475
0.454842616321
0.454604096036
0.454386274783
0.454186667401
0.454003522283
0.453833786577
0.45367452127
0.453522409632
0.453376448239
0.453237527508
0.453108922688
0.452991810896
0.452884842122
0.45278687602
0.452695045521
0.45260807462
0.452525199011
0.452445890695
0.45236975192
0.452296353253
0.452225289921
0.452156311531
0.452089200126
0.452023944194
0.451960522082
0.451899023494
0.451839490523
0.451781591006
0.451725854332
0.451672530145
0.451623502626
0.451577471924
0.451535294346
0.451498467137
0.451468662483
0.451447664875
0.45143656141
0.451436128541
0.451447040242
0.451469811201
0.4515055053
0.451555620402
0.451621857614
0.451705823469
0.451809270468
0.45193398819
0.452082012049
0.452255553724
0.452457555439
0.452691578163
0.452962965567
0.453277393579
0.453642907678
0.454070761934
0.45457637087
0.455176703655
0.455892710665
0.456740954357
0.457734755614
0.458897018557
0.460240785762
0.461762711418
0.46344421766
0.465244950531
0.467106049788
0.469082483095
0.47112178086
0.473149374719
0.475058037754
0.476573107035
0.476138361118
0.476375956828
0.476279568763
0.47599327354
0.475644050807
0.475286057584
0.474941297587
0.47461990864
0.474326298307
0.474062776072
0.473829959579
0.473628713437
0.473458347628
0.473318548049
0.473207924551
0.473125286528
0.473068683704
0.473036187216
0.473025189125
0.473034085251
0.473060232176
0.473102133074
0.47315738597
0.473225760145
0.473305832405
0.473398445794
0.473502736373
0.473619550434
0.473749087545
0.473892665416
0.474050442174
0.474223399239
0.474412098938
0.474617706116
0.47483985678
0.475079230181
0.475335483152
0.475608856729
0.475898802355
0.476205409594
0.476527665097
0.476864761243
0.477215187392
0.47757717179
0.477948449111
0.478326245974
0.478707199465
0.479087710245
0.479463172307
0.479828463238
0.480176036371
0.480500917084
0.480800271473
0.4810712144
0.481309926889
0.481512637761
0.481675618173
0.481793250655
0.481859680446
0.481872904937
0.481831543505
0.481733409785
0.481578862499
0.481371838707
0.481111511707
0.480795509525
0.480423891457
0.479997156873
0.479516384512
0.478982719862
0.478398200125
0.47776504168
0.477086642346
0.47636661437
0.475609091673
0.474818733485
0.474000639196
0.473160110836
0.472302635833
0.471432217623
0.470551964113
0.469665748568
0.468777829592
0.467890200458
0.467001408739
0.466116991976
0.465243968934
0.464373074294
0.46348384986
0.462594898117
0.461736744155
0.460875860304
0.459972045621
0.459054972218
0.458208795755
0.457437882064
0.456633371541
0.455976685554
0.45532469818
0.45463865622
0.453977973438
0.453185826445
0.452606566932
0.451980602843
0.451404627687
0.450853280507
0.450539926838
0.45030009365
0.450087745476
0.449885683234
0.449658568738
0.449407483981
0.449157175901
0.448908147256
0.448662442762
0.448419508938
0.44817796046
0.447935938012
0.447692743514
0.44745108107
0.447214761747
0.446985623403
0.446763761988
0.446547530848
0.446335043104
0.446125403825
0.445917941961
0.445712256654
0.445507892053
0.445304697382
0.445102610364
0.444901631552
0.444701656942
0.444502588523
0.444304074732
0.444105821394
0.443907206427
0.443707419457
0.443505777037
0.443302673447
0.443098442608
0.44289193177
0.442682778702
0.442471266769
0.442258250127
0.442044141486
0.441828526635
0.441610400983
0.441388524513
0.441161864896
0.440929289486
0.440689566737
0.440441456623
0.440184239063
0.439918019635
0.439643586841
0.439362881709
0.439078455363
0.438793847467
0.43851230872
0.438238823992
0.437978926059
0.437738026709
0.437520193105
0.437329180546
0.437168016854
0.437033107659
0.436932144295
0.436864394819
0.436828428089
0.43682585677
0.436863653686
0.436951599967
0.43709469789
0.437360119296
0.43765565029
0.437999377487
0.438385259746
0.438769865321
0.43917625204
0.475776156917
0.475851777298
0.475814127037
0.475694776367
0.475568462838
0.475464012197
0.475372205014
0.475286138589
0.475201869174
0.475119336458
0.475039335428
0.474963666268
0.474894104147
0.474832585931
0.474780512759
0.474739082918
0.47470876954
0.474689884535
0.474682002936
0.474684666575
0.474696946497
0.474718818786
0.47474872313
0.474787022731
0.474833322577
0.474888366914
0.474951963129
0.475025374444
0.475109034108
0.475204297954
0.47531173829
0.475432810701
0.475567883499
0.475717996216
0.475883487039
0.476064885477
0.476261745679
0.476474648015
0.476703041623
0.476946661846
0.477204607352
0.477475875444
0.477758915321
0.47805185137
0.478352350336
0.478657706605
0.478964654376
0.479269630028
0.479568619912
0.479857315438
0.480129578456
0.480379034599
0.480598792611
0.480784368068
0.480932272141
0.481039713825
0.481104364783
0.481126311515
0.481106446387
0.481043262301
0.480934103071
0.480776818194
0.480566112194
0.480298086769
0.479974345115
0.479593969747
0.479155752574
0.478659548315
0.478106877926
0.477500152139
0.47684309027
0.476140121793
0.475396335948
0.474617111029
0.473807915032
0.472974216214
0.472121274155
0.471254327805
0.470378313569
0.469497995259
0.46861558377
0.467734122237
0.466858169531
0.465990683452
0.465128081943
0.464269028516
0.463428012286
0.462608289234
0.461786502737
0.460953404024
0.460143130097
0.459383573312
0.458599771153
0.457815606252
0.457066470662
0.456350572504
0.455693767228
0.455192768105
0.454618245022
0.45385516787
0.453022192439
0.452433075165
0.452127889419
0.451805586185
0.451634425087
0.451415863998
0.451035709956
0.450491951402
0.449984787696
0.44953853231
0.449116423766
0.448728186645
0.448375830641
0.448048123898
0.447739429011
0.447444859564
0.447160658586
0.446883974746
0.446613762805
0.446352093663
0.446101275415
0.445861849515
0.44563248386
0.445410947352
0.445196097638
0.444987194563
0.444783745558
0.444585363669
0.444391723611
0.44420235122
0.444016584957
0.443833753588
0.443653407833
0.443475238454
0.443298937405
0.443124091417
0.442950089592
0.442776503126
0.442603231486
0.442431538411
0.442261617019
0.442092555948
0.441923171577
0.441753759195
0.441585762799
0.441420287395
0.441257785663
0.44109820467
0.440941616504
0.440788135548
0.440637913047
0.440490903129
0.440347212629
0.440206804732
0.440069428575
0.43993456874
0.439801513173
0.439669120868
0.439536232052
0.439401179746
0.439262314236
0.439117981106
0.438966529931
0.438806154613
0.438635563839
0.438453196661
0.438256421229
0.438044757999
0.437821374942
0.437589188231
0.437353145146
0.437123330995
0.436912198202
0.436745635424
0.436649553938
0.436640823071
0.436736985941
0.436942418008
0.437207484181
0.437381574407
0.475307212572
0.475419350032
0.475674442042
0.475810024763
0.475882154097
0.475938084711
0.475971556564
0.47598203882
0.475971325234
0.475942568531
0.47589923421
0.475845491489
0.475784774259
0.475720633951
0.475655820816
0.475592835957
0.47553339012
0.475478849604
0.475429711249
0.475386984839
0.475350301833
0.475319968107
0.475295807547
0.475278457839
0.47526753374
0.475264431762
0.475269474503
0.475283978571
0.475308741134
0.475345417572
0.475394904717
0.475458550983
0.475537226033
0.475632295583
0.475743710787
0.475872414734
0.476018354021
0.476181671142
0.476361788291
0.476558428638
0.476770402821
0.476996447593
0.477234643814
0.477482695066
0.477737827539
0.477996812991
0.478255860454
0.478511105466
0.47875806457
0.478991921759
0.479208029386
0.479402840492
0.479570662048
0.479706648928
0.479806323381
0.479865937377
0.47988205279
0.479853008773
0.479780191925
0.479666307414
0.479511982592
0.479316064991
0.479075834296
0.478786038782
0.478440404973
0.478035027603
0.477567904885
0.477038041268
0.476445813182
0.47579318819
0.475083645812
0.474322300397
0.473515676086
0.472670689225
0.471794675322
0.470895865504
0.469981557507
0.469057285239
0.468130104313
0.467206690787
0.466289238929
0.465377039237
0.464478127778
0.463601797886
0.462739859445
0.461884556324
0.461050098248
0.460269827523
0.459497888305
0.458724134621
0.457982761512
0.457290688426
0.456636044186
0.455998228829
0.455408608407
0.454817389391
0.454164748793
0.453457855666
0.452649285945
0.451882272662
0.451350707346
0.451125938858
0.450966806116
0.450766116521
0.450595047614
0.45028264026
0.449761615147
0.449111273536
0.448479961414
0.447909332433
0.447400902895
0.446958360782
0.446569343496
0.446218331011
0.445895962512
0.445595135376
0.445310846514
0.445039418012
0.444779696904
0.444532670799
0.444299382398
0.444078788225
0.443867895274
0.443664437663
0.443467275013
0.443275769446
0.443089341303
0.442907420764
0.442729394671
0.442554680454
0.442382454777
0.442212183165
0.442043665968
0.441876571014
0.441710472517
0.441544643839
0.441378522539
0.441212027679
0.441046000131
0.44088187593
0.440720068606
0.440559003873
0.440396816319
0.440233526202
0.440070254508
0.439907910734
0.439746742759
0.439586576392
0.439427151858
0.4392681806
0.439109453668
0.438950757562
0.438792208053
0.438633914189
0.438475980901
0.438318533437
0.438161845596
0.438006425055
0.437852926262
0.437702054953
0.43755423293
0.437409920902
0.437269521898
0.437132829612
0.436999205259
0.436867267324
0.436733633809
0.436596084486
0.436452770142
0.436300505564
0.436137515429
0.435965498299
0.435788026808
0.435613834508
0.435461152185
0.435336913164
0.43525551761
0.435214424054
0.435155378042
0.434952491861
0.47476391504
0.475403904707
0.476051081001
0.476292016461
0.476378362571
0.476435129818
0.476468798832
0.47648169309
0.476473289246
0.476445346876
0.476399447473
0.476338409364
0.476265087651
0.476182921265
0.476094670675
0.476003267708
0.475910631918
0.475818960177
0.475729335256
0.475642834721
0.475559933946
0.475481812587
0.475408108741
0.47533998604
0.475277886451
0.475222851908
0.475175477831
0.475137441355
0.475109667624
0.4750938029
0.475090870624
0.475102628444
0.475129733546
0.475173367719
0.475234100235
0.475312674678
0.47540877701
0.475522957329
0.475654611479
0.475803333194
0.475967987175
0.476147356715
0.476339526828
0.476542322953
0.47675300394
0.476968601182
0.477185506608
0.477399939408
0.477607856868
0.477804641813
0.477984158181
0.478142088205
0.47827313048
0.478372171479
0.478435190162
0.478458712762
0.478438930547
0.478373336505
0.478261475188
0.478101921474
0.477893557267
0.477635813422
0.477328334726
0.476971826843
0.476565202136
0.476105758715
0.475591022821
0.475019210603
0.474390314598
0.473705465951
0.472967450174
0.472180613205
0.471351842962
0.470486973454
0.469592729081
0.468677721833
0.467750692215
0.466815120059
0.465874800686
0.464942556277
0.464024713154
0.463111263103
0.462208601789
0.461335057131
0.460479170999
0.45962692966
0.458798759441
0.458014455365
0.45728257095
0.456568628837
0.455855739931
0.455195785562
0.454550043218
0.453934962805
0.453296755385
0.452550105069
0.451745861559
0.45096278669
0.450286030098
0.449850591387
0.449669535652
0.449614534606
0.449495124161
0.449300475425
0.44904407553
0.448644067318
0.448118974198
0.447534679615
0.446962180475
0.446432624439
0.445961960189
0.44555238415
0.445192532161
0.444870030789
0.444576138982
0.444303898088
0.444048089449
0.443805147382
0.44357391328
0.44335485727
0.443148121033
0.442951647557
0.442762305177
0.442578272148
0.442398957439
0.442224216359
0.442053899695
0.44188776229
0.441725431573
0.441566515009
0.441410728099
0.441257770973
0.441107193682
0.440958571307
0.440811308812
0.440664709217
0.440518448235
0.440372916321
0.440229737461
0.440090375885
0.43995511531
0.439821493907
0.439687208832
0.439551833063
0.439416078755
0.439280771347
0.439146173217
0.439012221507
0.43887868877
0.438745306374
0.438611910907
0.438478369986
0.438344533689
0.438210303679
0.438075608421
0.437940507215
0.43780502561
0.437669163477
0.43753305022
0.437396840053
0.437260405372
0.437123624461
0.436986297735
0.436847840033
0.436707681427
0.436564788277
0.436416879179
0.436262909368
0.436102616504
0.435934477271
0.435758965243
0.435579043046
0.435397627757
0.43522120486
0.435059926997
0.43491631742
0.434792138192
0.434669417874
0.434478700228
0.434111455853
0.474272394012
0.476049471899
0.476910910265
0.476921826652
0.476826414581
0.476783224066
0.476763693867
0.476748491094
0.476724207412
0.476685122732
0.476628743568
0.476556624433
0.476470328287
0.476373051248
0.476267068318
0.47615536779
0.476039827396
0.47592266448
0.475804962676
0.475688641992
0.475573996944
0.475462117796
0.475353654623
0.475249682567
0.475150395958
0.475057518707
0.474971833966
0.474894917567
0.474827896342
0.474772579532
0.474730131409
0.474702057938
0.474689362205
0.474693439106
0.474714395857
0.474753152721
0.474809666512
0.474884024986
0.474975511977
0.475083694068
0.475207137186
0.475344483487
0.475493577184
0.47565213539
0.475817303861
0.475986129877
0.47615503624
0.476320642214
0.476479003092
0.476625615974
0.476754589941
0.476861678579
0.476941120522
0.476987684203
0.476996684139
0.476963965748
0.476885723879
0.47676260073
0.476596116113
0.476387188159
0.476135818228
0.475841899492
0.475503480168
0.475119038173
0.474683649284
0.474193810089
0.473645956247
0.473037866536
0.472369839056
0.471644724145
0.470864904591
0.470036197062
0.469167500043
0.468267330915
0.467339713095
0.466394433495
0.465445179977
0.464497426083
0.463547389283
0.462604419188
0.461692999806
0.46077783762
0.459875482723
0.458999260656
0.458160527586
0.457363524713
0.456586091052
0.45583464043
0.455109266204
0.454392133784
0.453725078594
0.453064130308
0.452333663259
0.451592718379
0.450834924273
0.450092855087
0.449433310797
0.448900570519
0.448518257414
0.448319319269
0.448236893234
0.448146828613
0.447974622346
0.447729177158
0.447405292788
0.446983903556
0.446499079091
0.445989395873
0.445490124406
0.445022268465
0.444599486141
0.444223361409
0.443887211226
0.443583149399
0.443304670792
0.443046177962
0.442803245709
0.442573241212
0.442355433256
0.442150403173
0.441957882559
0.44177542935
0.441600383195
0.441431286608
0.441267768348
0.441109793031
0.440957292419
0.440810015937
0.440667543509
0.440529327037
0.440394720877
0.440262866855
0.440133058937
0.440004663392
0.439876927745
0.439749072236
0.43962090161
0.43949345174
0.439368681898
0.43924848331
0.439132669514
0.43901865507
0.438904150651
0.438788478913
0.438672191049
0.438555916607
0.438439947412
0.438324281311
0.438208780358
0.438093449936
0.437978213989
0.437863010066
0.437747759587
0.437632304509
0.437516551377
0.437400387335
0.437283747795
0.437166535668
0.437048738982
0.436930301782
0.436810946928
0.436690400442
0.436568221648
0.436443615578
0.436315636145
0.436183025162
0.436043554286
0.435896056819
0.435739979561
0.435573802375
0.435398179386
0.435215886587
0.43502902261
0.434842452953
0.4346641044
0.434494421389
0.434331171246
0.434152440284
0.433891838205
0.433467027329
0.474012749781
0.477400189985
0.478000203785
0.477452511032
0.477122608166
0.476979108844
0.476906596072
0.476853495965
0.476794637284
0.476722780161
0.476634380995
0.476530894996
0.476413475692
0.476285243378
0.476147968097
0.47600458473
0.47585651523
0.475706217773
0.475554637598
0.475403198097
0.475252642456
0.47510450206
0.474958768775
0.474816922418
0.474679674505
0.474548215273
0.47442338364
0.474306957319
0.474199962368
0.474104121189
0.474020527987
0.473950918165
0.473895995261
0.473856884514
0.473834140529
0.473828371507
0.473839231642
0.473867029928
0.473910926966
0.473970266983
0.474043585799
0.474129483549
0.474225812405
0.474330447387
0.474440747416
0.474554302118
0.474668048756
0.474779226029
0.474884942965
0.474981752301
0.475063055771
0.475125280214
0.475162031772
0.475166047629
0.475130891928
0.475050649645
0.47492206503
0.474748369448
0.474531342431
0.474272947311
0.473974193049
0.473637633489
0.473263661009
0.472849684444
0.472388365838
0.471875622159
0.47130584631
0.470674675258
0.469982433984
0.469233203349
0.468430119886
0.467576054487
0.466683811109
0.46576749322
0.464830086364
0.463877495959
0.462924711417
0.461977579548
0.461026544792
0.460088743234
0.459172817504
0.458292719412
0.457451839366
0.456624067325
0.455819016119
0.455047604078
0.454311031705
0.453608854396
0.452904347914
0.452173779833
0.451460358832
0.450730555676
0.449994638307
0.449297540472
0.448643082544
0.448076669615
0.447625135671
0.447293973303
0.447062833795
0.446918825156
0.446795540907
0.446626846719
0.446396228392
0.446111215385
0.445765094464
0.445361383567
0.444926809501
0.444483620253
0.444051661648
0.443644416514
0.443270610496
0.442931618188
0.442624445573
0.442344704903
0.44208812539
0.441850498322
0.441628476905
0.441420055848
0.441224807473
0.441042929375
0.440873404797
0.440713660286
0.440561068202
0.44041415829
0.440272343446
0.440135401084
0.440003103749
0.439875117047
0.439750959994
0.439630050658
0.439511809525
0.439395752562
0.439281471153
0.439168413083
0.439055818787
0.438942985703
0.438829999328
0.43871826904
0.43860999212
0.438506991857
0.43840857036
0.438312191768
0.438215584104
0.438118087135
0.438020076128
0.437921966541
0.437823913762
0.437725791059
0.437627577707
0.437529196527
0.437430644304
0.437331861268
0.437232789241
0.43713337832
0.43703351799
0.436933065983
0.436831927151
0.43672999692
0.436627232259
0.436523481395
0.436418391428
0.436311569351
0.436202510215
0.436090247283
0.435973688956
0.435851529447
0.435721679672
0.435582939187
0.435434625173
0.435275292153
0.435105395796
0.434927254988
0.434741837703
0.434552210073
0.434363588489
0.434173916477
0.433976897949
0.433748876508
0.433430818799
0.432963835374
0.474107482484
0.479252817909
0.478983186391
0.477752713555
0.477287121769
0.477078063508
0.476950368435
0.47683858557
0.476720831252
0.476592504545
0.476450430015
0.476297103858
0.476132666236
0.47596010326
0.475780251516
0.475595792226
0.475407609848
0.475217824292
0.475026941855
0.474836883355
0.474647821366
0.474461094637
0.47427733837
0.474097618308
0.473922137175
0.473752569362
0.473589530997
0.473434457191
0.473288280524
0.473152610574
0.473028356926
0.472916800056
0.472818718255
0.472735193918
0.472666222799
0.47261247736
0.47257373986
0.47254987572
0.472540042277
0.472543639754
0.472559136728
0.472585233045
0.472619996499
0.47266166384
0.472708239825
0.472758078379
0.472809483785
0.472861056895
0.47291123587
0.472958243438
0.472996824621
0.473020874068
0.473022378248
0.472989759922
0.472911392642
0.472777082514
0.472586431063
0.472346270498
0.472060857503
0.471735438662
0.471377004475
0.470993123057
0.470589029081
0.470154396239
0.469680850336
0.469160557116
0.468585869548
0.467948060057
0.467244048604
0.466482184113
0.465670247622
0.464807662713
0.463904883935
0.46298844734
0.462043935216
0.461085391591
0.460135438526
0.459201851014
0.458296206889
0.457423260232
0.456561745959
0.45572328524
0.454919109804
0.454147910226
0.453412181702
0.452706507365
0.452008405824
0.451298071935
0.450573148797
0.449849778263
0.449159823935
0.448482303021
0.447854009076
0.44728757696
0.446784789206
0.44636718074
0.446038461259
0.445792901559
0.445603036922
0.445443892614
0.445269581671
0.445055324334
0.444799996698
0.444504506115
0.444167289418
0.443798736456
0.443416587793
0.443033786605
0.442661943808
0.442309438092
0.441981689799
0.441680220719
0.441404108336
0.441151127878
0.440918449284
0.44070291832
0.440501951344
0.44031401957
0.440138812464
0.43997625118
0.43982503264
0.439682769358
0.439547251916
0.439417204698
0.439292092246
0.43917173675
0.439055998361
0.438944655714
0.43883734207
0.438733584595
0.438632863996
0.438534680586
0.43843842898
0.438343364741
0.438248507775
0.438153165525
0.43805765919
0.437963645021
0.437873492118
0.437788614463
0.437708095954
0.437629529951
0.437550892617
0.437471597289
0.43739185113
0.437311936868
0.437231839477
0.437151469928
0.437070732457
0.436989595497
0.43690808733
0.436826175421
0.43674381764
0.436660919313
0.436577350833