/*--------------------------------*- C++ -*----------------------------------*\
| =========                 |                                                 |
| \\      /  F ield         | OpenFOAM: The Open Source CFD Toolbox           |
|  \\    /   O peration     | Version:  v1806                                 |
|   \\  /    A nd           | Web:      www.OpenFOAM.com                      |
|    \\/     M anipulation  |                                                 |
\*---------------------------------------------------------------------------*/
FoamFile
{
    version     2.0;
    format      ascii;
    class       volScalarField;
    location    "17";
    object      p;
}
// * * * * * * * * * * * * * * * * * * * * * * * * * * * * * * * * * * * * * //

dimensions      [0 2 -2 0 0 0 0];


internalField   nonuniform List<scalar> 
12225
(
-3.81217094344
-4.56397103742
-4.81004375036
-4.87951546334
-4.93899948231
-4.99569655315
-5.03523030506
-5.05552964317
-5.05957305708
-5.04870598287
-5.02195041372
-4.97725903156
-4.91221496214
-4.82385349345
-4.70793853972
-4.55791377124
-4.36172869435
-4.10068864167
-3.98576095042
-4.57467506369
-4.81505353179
-4.88853421214
-4.94643639848
-5.00130536394
-5.04004020752
-5.06006781823
-5.06400445655
-5.0531391009
-5.02654457738
-4.98222817531
-4.91782988183
-4.83048687834
-4.71620162085
-4.56910002461
-4.38013480577
-4.16061974583
-4.12823300788
-4.56144632299
-4.80165848811
-4.88819704336
-4.94791696747
-5.00246180292
-5.04186099207
-5.06301171701
-5.06802473455
-5.05822866511
-5.03293204899
-4.99037778403
-4.92845213753
-4.84467958439
-4.73585348378
-4.5979242165
-4.42649855662
-4.23423792452
-4.25248460096
-4.57346867966
-4.80510108428
-4.90126034077
-4.96081481824
-5.01308467481
-5.05182167218
-5.07330658034
-5.07891304829
-5.06994780778
-5.04599540472
-5.0055896775
-4.9469301848
-4.86803953374
-4.76667455815
-4.64064042401
-4.48895866197
-4.32229797559
-4.36289624468
-4.60019496705
-4.81065069559
-4.91082705587
-4.97005782595
-5.02030587741
-5.05866836429
-5.08099601739
-5.08786845924
-5.08051588235
-5.05881163993
-5.02162613433
-4.96753038793
-4.89510985587
-4.80310101837
-4.69090815507
-4.55982904866
-4.41891917901
-4.46162205396
-4.63703224777
-4.82174141813
-4.92330242603
-4.98358588193
-5.03273780976
-5.0709093945
-5.09418986799
-5.10258072234
-5.09722364481
-5.07827389898
-5.04496923162
-4.99629607576
-4.93142365173
-4.84999132491
-4.75266921161
-4.64218225908
-4.52667497247
-4.55068538029
-4.68086191422
-4.83896933206
-4.93843695348
-4.99923933883
-5.04705573474
-5.08453331055
-5.10850415023
-5.11854323391
-5.11559739565
-5.10001071293
-5.07136742626
-5.02907711912
-4.97286800096
-4.90314575923
-4.82149621625
-4.73141123103
-4.64019368214
-4.63185548251
-4.72923303744
-4.86217676166
-4.95671269304
-5.01746602684
-5.06432999075
-5.10142889152
-5.12648108922
-5.1387597645
-5.1389543101
-5.12753433308
-5.10442582685
-5.06947010639
-5.02291070073
-4.96576045716
-4.90019736126
-4.83000839967
-4.76161735014
-4.70662735121
-4.78035962033
-4.89088111063
-4.97855995936
-5.03852246949
-5.0846781533
-5.12158575036
-5.14782813568
-5.16257045152
-5.16628592736
-5.15954439643
-5.14259537492
-5.1156837776
-5.0794853102
-5.03543830675
-4.98602405249
-4.93498165258
-4.88774884263
-4.77624556942
-4.83299680092
-4.92439914004
-5.00422519214
-5.06265677256
-5.10827668335
-5.14527919114
-5.17296505745
-5.19055393897
-5.19836024226
-5.19701045163
-5.18701302934
-5.16894350002
-5.14379649643
-5.11326173886
-5.07989552769
-5.04718319123
-5.019606422
-4.84171818578
-4.88629199161
-4.96193871417
-5.03373984342
-5.09007910246
-5.13530428292
-5.17274776585
-5.20219512799
-5.22301043083
-5.23540728309
-5.24003162509
-5.23758054506
-5.22887786701
-5.21513400549
-5.19814570918
-5.18038564692
-5.16496484634
-5.1554396971
-4.89873422058
-4.93535691842
-4.9994017724
-5.06421112162
-5.11833089137
-5.16331395521
-5.20150077259
-5.23289800645
-5.25702933405
-5.27406655003
-5.28465186427
-5.28959006333
-5.28985536261
-5.28676051687
-5.28209629998
-5.27815712204
-5.27767580067
-5.28349022082
-4.95310687261
-4.98385343914
-5.03858355471
-5.09711189776
-5.14898899728
-5.1938534386
-5.23307085518
-5.26670608177
-5.29442858486
-5.31639700104
-5.33323744499
-5.34580965046
-5.35516838057
-5.36265753478
-5.36998667075
-5.37922165231
-5.39269696609
-5.41255992988
-5.01267106286
-5.03863265006
-5.08527583792
-5.1378181231
-5.1873782315
-5.23233951313
-5.27312834787
-5.3097360137
-5.34194532114
-5.36992020444
-5.39425140593
-5.41580222124
-5.4356369464
-5.45505121106
-5.47559320748
-5.49902428765
-5.52724551655
-5.56173052865
-5.0772490734
-5.09960137954
-5.1398010885
-5.18722903622
-5.2347964501
-5.28029206812
-5.32338279728
-5.36388605968
-5.40164232145
-5.4368103647
-5.46992442178
-5.50178299102
-5.53337774187
-5.56586372523
-5.60055158607
-5.63884333474
-5.68219173206
-5.73143656002
-5.14625606884
-5.16618257547
-5.20188515805
-5.2456877542
-5.29216305827
-5.33900930444
-5.38538788172
-5.43091238486
-5.47540667586
-5.51899760303
-5.56211991505
-5.6054456699
-5.6498008494
-5.69612637889
-5.74542688835
-5.79872990551
-5.85704505569
-5.92064954982
-5.21820022147
-5.23686175129
-5.2702349854
-5.31248205657
-5.35942326886
-5.40891987773
-5.45987457157
-5.51172123582
-5.56421165272
-5.61738667163
-5.6715402841
-5.72715263019
-5.78482239915
-5.84521028816
-5.90899658431
-5.97682843188
-6.04933358927
-6.1262924075
-5.28961277382
-5.30816148488
-5.34156520112
-5.38484222572
-5.43444859854
-5.4884021418
-5.54550608404
-5.60506770164
-5.6667314002
-5.73040572233
-5.79620580258
-5.86438593425
-5.93528417617
-6.00926722634
-6.08669820099
-6.16789219849
-6.25315957174
-6.34190049862
-5.35290145979
-5.37274158699
-5.40907774737
-5.45672216424
-5.51196199035
-5.57277953533
-5.63795811983
-5.70674207371
-5.77865610316
-5.85345542538
-5.93106513814
-6.0115222612
-6.09491549157
-6.18134643264
-6.27090118109
-6.36362527835
-6.45957715812
-6.55786360389
-5.38260738278
-5.40516971725
-5.44735064704
-5.50228175837
-5.56508515054
-5.63356495799
-5.70668927405
-5.7837691128
-5.86426684098
-5.94783131499
-6.03428700419
-6.12354858302
-6.21556468648
-6.31027793643
-6.40762159437
-6.50749918894
-6.60985213425
-6.71366442973
-5.38455794735
-5.41072495475
-5.46040700153
-5.52373383121
-5.59406515951
-5.66929956319
-5.7489135482
-5.8324073476
-5.9192199543
-6.00897917877
-6.10150702734
-6.19669528335
-6.29443281236
-6.39458192296
-6.49699826959
-6.60152257508
-6.70805344599
-6.81553690661
-5.36632500926
-5.39811362219
-5.45839726807
-5.53192619183
-5.60999968586
-5.69147882293
-5.77680583737
-5.86565934308
-5.95742289979
-6.05176139549
-6.14857272531
-6.24778152051
-6.34924843651
-6.45279647363
-6.55823301084
-6.6653609221
-6.77403313187
-6.88314224171
-5.33107842857
-5.37174264362
-5.44673901399
-5.53191758044
-5.61725683449
-5.70423484509
-5.79463001622
-5.88813794984
-5.98407372023
-6.08222886024
-6.18262994146
-6.28522262248
-6.38982654475
-6.49621781587
-6.60418244019
-6.71352044199
-6.82410674821
-6.93488242784
-5.28069026288
-5.33569990016
-5.43057481594
-5.52789493259
-5.6191840486
-5.71063914818
-5.80517820404
-5.90211849656
-6.00077328917
-6.10125212723
-6.20380329155
-6.30841891312
-6.4148836188
-6.52292650251
-6.63229516142
-6.74274246809
-6.85407357846
-6.96512989206
-5.21589870214
-5.29422260625
-5.41452046295
-5.52279070365
-5.61833639378
-5.71396162363
-5.81275520922
-5.91315428209
-6.01450828489
-6.11728531476
-6.2219229001
-6.3284422634
-6.43661840579
-6.54618189613
-6.65688011604
-6.76844420022
-6.88064371833
-6.99231160601
-5.13632599978
-5.25223393073
-5.40218165817
-5.51752322133
-5.61437192945
-5.71241175128
-5.81367919948
-5.91582090069
-6.01852361889
-6.12259545321
-6.2285149589
-6.3362340444
-6.44549747763
-6.55605469171
-6.66766958673
-6.78003152497
-6.89273620323
-7.00425529115
-5.04092481746
-5.21591357335
-5.39654599463
-5.51557669117
-5.61446536823
-5.71617424865
-5.82007209015
-5.92358866828
-6.02724668681
-6.13226477722
-6.2391029925
-6.34761886236
-6.45754865158
-6.56869982092
-6.6809119986
-6.79390494895
-6.90718130391
-7.0188687358
-4.92778995222
-5.1916560821
-5.3916097167
-5.50466266527
-5.60376326976
-5.70890882327
-5.81514351844
-5.91989789907
-6.02459240937
-6.13074916561
-6.23872727829
-6.34826094344
-6.45906323243
-6.57100623765
-6.68403117325
-6.79796579378
-6.91229556145
-7.02458948323
-4.79556096758
-5.19896116797
-5.41039118473
-5.51160308774
-5.60824996664
-5.71421818296
-5.82054679078
-5.92483182406
-6.02918405759
-6.13529104141
-6.24339224458
-6.3530986887
-6.4640852158
-6.57625940432
-6.68966121002
-6.80434488756
-6.92027995797
-7.03611424942
-4.62468773757
-5.18068349718
-5.40523929291
-5.50312517356
-5.60129922159
-5.70958346341
-5.81724038824
-5.92221397705
-6.02707087616
-6.13364316271
-6.24216166888
-6.35221411061
-6.46348156525
-6.57590254765
-6.68957144813
-6.80469756029
-6.92168234036
-7.04493986772
-3.07698712675
-3.08261204885
-3.08991364996
-3.09334465658
-3.09525068804
-3.1038365078
-3.12633848903
-3.16482490932
-3.22166720465
-3.29895452513
-3.39845224378
-3.52160259444
-3.66955259087
-3.84316674938
-4.04306491662
-4.26963821949
-4.5230908149
-4.80345288305
-5.11062351012
-5.4443762844
-5.80439954024
-6.1902934727
-6.60160604061
-7.03782018887
-7.49838351855
-7.98268732548
-8.4900873259
-9.01987649874
-9.57129752367
-10.1435094176
-10.7355908977
-11.3465038346
-11.9750900577
-12.6200322613
-13.2798458038
-13.9528418773
-14.6371193905
-15.3305341779
-16.0306969007
-16.7349549534
-17.4404003706
-18.1438694662
-18.8419669713
-19.5310934064
-20.2074895118
-20.8672908961
-21.5065796033
-22.1214555552
-22.7080835137
-23.2627695061
-23.7819906561
-24.2624743824
-24.7012166551
-25.0955614524
-25.4432014108
-25.7422292008
-25.9910860797
-26.1885599462
-26.3337049736
-26.4258656151
-26.4647104673
-26.4503697049
-26.3834188523
-26.2647430773
-26.0954619342
-25.8773932748
-25.6132992421
-25.3064691477
-24.9603057871
-24.5781069923
-24.1628774436
-23.7171038966
-23.2425886132
-22.7402375775
-22.2099411895
-21.6503789935
-21.0589266212
-20.4314382015
-19.7621275011
-19.0433041645
-18.2653328003
-17.4165575051
-16.4836424816
-15.4520664573
-14.3074071915
-13.0369000434
-11.6315557712
-10.0879625337
-8.41009373081
-6.61025075456
-4.70914107026
-2.73494155673
-0.721319196825
1.29499750169
3.27694201754
5.18966371213
7.0027232649
8.69170623819
10.2390724989
11.6341785901
12.8727237342
13.9558908013
14.8890523987
15.6804528323
16.3398539305
16.8785100286
17.3080433542
17.6420440756
17.8959459044
18.0828836607
18.2200293837
18.3167714658
18.367561878
18.3716774397
18.3376469063
18.2752720665
18.192393049
18.0949642398
17.9875277314
17.8736563969
17.7561625919
17.6373097052
17.5188873126
17.4023352537
17.2887365111
17.1789122746
17.0734004031
16.9725669073
16.87658117
16.7855152735
16.69930128
16.6178346975
16.5409751794
16.4686635499
16.4007745187
16.3371171257
16.2774541607
16.2215262107
16.1690287496
16.1196668314
16.0731433672
16.0291847328
15.9875376153
15.9479750506
15.9102894216
15.8742886854
15.8397913178
15.8066313715
15.774651868
15.7437072685
15.7136664526
15.6844114768
15.6558310809
15.6278232798
15.600292047
15.5731523131
15.5463312309
15.5197618041
15.4933739959
15.4671107754
15.4409331076
15.4148037355
15.3886740514
15.3625159608
15.3363125803
15.310056536
15.2837384569
15.2573654774
15.2309697473
15.2045986798
15.178308784
15.1521932145
15.1263943114
15.1011076232
15.0765671343
15.0531021195
15.0312039429
15.0115459757
14.9963341793
14.9772222936
-3.05554757344
-3.06229295778
-3.07587637251
-3.09377469319
-3.10390759687
-3.1093225374
-3.12773475184
-3.16412747545
-3.22032152476
-3.29796058141
-3.39854268991
-3.52332551246
-3.67331313209
-3.84925605898
-4.05167732494
-4.28088858307
-4.53702564807
-4.82006543551
-5.12986233302
-5.46615999395
-5.82862421564
-6.2168462587
-6.6303702854
-7.06868870207
-7.53126117588
-8.01750206069
-8.52679130244
-9.05845519668
-9.61176825004
-10.1859276333
-10.7800470041
-11.3931266798
-12.0240405063
-12.6715031658
-13.3340530386
-14.0100199212
-14.6975082764
-15.394371304
-16.0982017704
-16.8063185107
-17.5157685271
-18.2233299645
-18.9255337534
-19.6186969712
-20.2989717191
-20.9624023993
-21.6049841119
-22.2227330546
-22.8117457828
-23.3682677247
-23.8887424218
-24.3698804283
-24.808700878
-25.202582138
-25.5492728396
-25.8469156943
-26.0940208922
-26.2894208518
-26.4322090283
-26.5217076571
-26.5576515219
-26.5404336396
-26.4708375573
-26.3491392124
-26.1752099896
-25.95114696
-25.6809141954
-25.3682431076
-25.016816011
-24.6301451752
-24.2114191552
-23.7633149696
-23.2878230693
-22.7860597847
-22.2581213645
-21.702916486
-21.1180205806
-20.4994813228
-19.8416444249
-19.1369053932
-18.3755391056
-17.5456259523
-16.6332932005
-15.6232581691
-14.5000018798
-13.2494904163
-11.8613790518
-10.3311406913
-8.66195215545
-6.86580331741
-4.96367825859
-2.9843470189
-0.962272851935
1.0650274204
3.05980791376
4.98684155198
6.81553647586
8.52136286061
10.086455077
11.4994713596
12.7547848118
13.8520595969
14.79495596
15.5908783935
16.2500969276
16.7868257732
17.2159415933
17.5527196171
17.8176630445
18.0226628157
18.1710224976
18.2682501049
18.3186222797
18.3257252166
18.296585071
18.2393634718
18.1612179523
18.0679090385
17.9640108837
17.8531606151
17.7382628257
17.6216401077
17.5051507488
17.3902657835
17.2781195753
17.1695456393
17.0651224114
16.9652245472
16.8700677517
16.7797437458
16.694248877
16.6135254148
16.5374470572
16.4658061887
16.3983810575
16.3350345691
16.2756218209
16.2199097857
16.1676067792
16.118415122
16.0720428146
16.0282162437
15.9866860616
15.9472283671
15.909637497
15.8737210719
15.8392990539
15.8062037944
15.7742809916
15.7433882191
15.7133959606
15.684184282
15.6556420703
15.6276698231
15.6001731869
15.5730660413
15.5462697872
15.5197196893
15.4933556645
15.4671195848
15.4409614089
15.4148407019
15.3887191283
15.3625702266
15.3363745837
15.3101251477
15.2838169015
15.257451931
15.2310501945
15.2046634495
15.1783610193
15.1522318179
15.1264055865
15.1010647127
15.076441802
15.0528551344
15.0307658011
15.0107583678
14.994879072
14.9719344422
-3.00749994618
-3.02192397547
-3.040292799
-3.06399943443
-3.09237652118
-3.12533352716
-3.16779965414
-3.22407669576
-3.29748604025
-3.39055229362
-3.50519034545
-3.64285636797
-3.80464868324
-3.99136396168
-4.20355140007
-4.44154433735
-4.7055028449
-4.99543526809
-5.31123552216
-5.6526959631
-6.01953883631
-6.41142070901
-6.82795674521
-7.26871666293
-7.73324128151
-8.22103042105
-8.73155072568
-9.26421699711
-9.81839103379
-10.3933565072
-10.9883093539
-11.6023276097
-12.2343547309
-12.8831659491
-13.5473470472
-14.225260198
-14.9150228067
-15.6144801135
-16.3211934004
-17.0324262002
-17.745144833
-18.4560211117
-19.161455892
-19.8576194809
-20.540511181
-21.2060247257
-21.8500158141
-22.4683784582
-23.057115146
-23.6124042194
-24.1306642532
-24.6086251523
-25.0433651082
-25.4323446844
-25.7734115229
-26.0648167851
-26.305173732
-26.493369299
-26.6284468157
-26.7096686548
-26.7368681444
-26.7105433572
-26.6309893163
-26.4971224672
-26.3101539865
-26.0740645005
-25.7924726181
-25.4691621351
-25.1080132985
-24.712808644
-24.287051423
-23.8337752662
-23.3553548618
-22.8533102419
-22.328136174
-21.7791309864
-21.2042144597
-20.5997191416
-19.9601865398
-19.2780936888
-18.5435587681
-17.7441656179
-16.8651002952
-15.8896786099
-14.8004618062
-13.5811282148
-12.2189739743
-10.7074846126
-9.04851959046
-7.25377183818
-5.34484436057
-3.35185142314
-1.31081120426
0.739204964002
2.75899373947
4.71219245017
6.56734063605
8.29893857924
9.88771278623
11.3208644893
12.5911681798
13.6977438314
14.64466507
15.4414782622
16.1006464978
16.6408619001
17.082074569
17.4389737035
17.7208436745
17.9341373571
18.0879772658
18.1900208279
18.2453843642
18.2586846733
18.2363690443
18.1857146391
18.1134780944
18.0253478064
17.9259766946
17.8190977183
17.7077163869
17.5942219927
17.4805371379
17.3681652972
17.2582798097
17.1517293817
17.0491280995
16.9508668665
16.857186423
16.7681877152
16.6838956831
16.6042450312
16.5291273115
16.4583671158
16.3917820754
16.3291762594
16.2703983086
16.2152526963
16.1634622479
16.1147310437
16.0687734768
16.0253204569
15.9841262557
15.9449711425
15.9076539788
15.8719861268
15.8377892843
15.8048986797
15.773163281
15.7424423199
15.7126059196
15.6835368729
15.6551226207
15.627261512
15.5998614476
15.572841246
15.5461265817
15.5196470528
15.4933400935
15.467152763
15.4410367589
15.4149541913
15.3888676228
15.3627491952
15.3365783657
15.3103328225
15.2840007793
15.2575977245
15.2311528376
15.2046994721
15.1782973805
15.1520422643
15.1260565177
15.1005007381
15.0755766993
15.0515432692
15.0287501162
15.0075632745
14.9890441327
14.960875117
-2.9835113633
-3.00288043637
-3.03226404589
-3.06960365551
-3.11553462223
-3.17068464732
-3.23681633436
-3.31623089833
-3.41136555351
-3.52443013352
-3.65729093128
-3.81145325883
-3.98809190822
-4.18808328173
-4.41205416213
-4.66041386312
-4.93339965672
-5.23110042478
-5.55349524918
-5.90046759812
-6.27183664529
-6.66736138281
-7.08676439479
-7.52972738484
-7.99590608068
-8.4849179816
-8.99634862408
-9.52973190959
-10.0845472294
-10.6601930122
-11.2559748069
-11.8710727281
-12.5045217382
-13.1551749018
-13.8216782046
-14.5024319018
-15.1955649852
-15.8989035246
-16.6099562861
-17.3258990736
-18.0435748369
-18.7594957784
-19.4698710483
-20.1706565119
-20.8576306218
-21.5264734622
-22.1728461871
-22.7924767455
-23.3812414594
-23.9352432095
-24.4508869567
-24.9249517699
-25.3546171818
-25.737457193
-26.0714703118
-26.3550961937
-26.5871130477
-26.7665156635
-26.8922780012
-26.9637203381
-26.9808641619
-26.943862867
-26.8514666417
-26.7024937249
-26.4999464794
-26.2485809633
-25.9521040416
-25.6146112856
-25.2403455809
-24.8335363168
-24.3982068982
-23.9379724946
-23.455831629
-22.9539360022
-22.4333796705
-21.8940109871
-21.3342224392
-20.7507037239
-20.1382078561
-19.4892584398
-18.7937566892
-18.0386397564
-17.2078674051
-16.2828405843
-15.243486476
-14.0702727872
-12.7470573154
-11.2641890297
-9.62126039752
-7.82895547025
-5.90949940965
-3.89479304188
-1.8230902528
0.264112926312
2.32482781173
4.31965759789
6.21438877244
7.98099405937
9.59780475568
11.0512998812
12.3346337949
13.4492074825
14.4024461512
15.2088564323
15.8845865439
16.4499690264
16.9169510876
17.2906040581
17.5837269956
17.8069983064
17.9694758509
18.0787426415
18.1408725496
18.1615245281
18.1470845391
18.1043248879
18.0396120279
17.9584721458
17.865512426
17.7644913641
17.6584480978
17.5498199952
17.4405619615
17.3322174345
17.2259805377
17.122735165
17.0231176209
16.9275530688
16.8363092717
16.7495148828
16.6672152625
16.5893773315
16.5158990839
16.4466223112
16.3813886854
16.320031768
16.2623808951
16.2082219951
16.1572912159
16.1093115844
16.0640127661
16.0211384139
15.9804559747
15.9417560642
15.9048450944
15.8695394637
15.8356669853
15.8030656496
15.7715873649
15.741097163
15.7114647444
15.6825728255
15.6543146721
15.6265943821
15.5993249878
15.5724199596
15.5458038758
15.5194118618
15.4931854182
15.4670708117
15.4410190293
15.4149857681
15.3889356635
15.3628302199
15.3366416905
15.3103620764
15.2839963654
15.2575466305
15.2310236095
15.2044710493
15.1779521108
15.1515475393
15.1253551576
15.0994900968
15.074099081
15.0493556973
15.0254264744
15.002321964
14.9801251627
14.9466837793
-3.03800685682
-3.06136668103
-3.09713732984
-3.14446969433
-3.20350689221
-3.27467315479
-3.35903157874
-3.45795644343
-3.57296780073
-3.70555877641
-3.85710172027
-4.02878374973
-4.22158858303
-4.43628964793
-4.67347226762
-4.93354776578
-5.21678739638
-5.52333817341
-5.85325657836
-6.20651843255
-6.583047329
-6.98271703293
-7.40537252891
-7.85082421281
-8.31886143621
-8.80923883398
-9.32168097019
-9.8558614876
-10.4113984205
-10.9878257834
-11.5845791697
-12.2009600919
-12.8361129317
-13.4889835838
-14.1582899671
-14.8424774199
-15.5396875441
-16.2477202246
-16.9640155312
-17.6856348486
-18.4092609555
-19.1311996849
-19.8474126227
-20.553577453
-21.2451838847
-21.9176306914
-22.566319681
-23.1867547461
-23.7746447911
-24.3260038254
-24.8372446945
-25.3052456106
-25.7273446428
-26.1013200687
-26.4254237002
-26.6983761751
-26.9192110605
-27.0869660426
-27.2006768024
-27.2598482346
-27.2644076324
-27.213215103
-27.1027814134
-26.9342049901
-26.7129153366
-26.4427304851
-26.1275918832
-25.7719770201
-25.3806699015
-24.9585589399
-24.5103938516
-24.0405483895
-23.5527947969
-23.0500454526
-22.5340944414
-22.0054026449
-21.4628780174
-20.9035886825
-20.3225047308
-19.7122621197
-19.062719784
-18.3604495835
-17.5884660534
-16.7263056942
-15.7509602905
-14.6389334251
-13.3694211082
-11.9281346762
-10.3107752948
-8.5257328363
-6.59533906422
-4.55412585673
-2.44399883264
-0.310495869328
1.79950789563
3.84119813796
5.77669659284
7.57633707907
9.21727796522
10.6879405723
11.9850401992
13.1146144547
14.0885754054
14.9246564071
15.6345123383
16.225370561
16.7096192563
17.0993486625
17.4066511854
17.642236018
17.8154018033
17.9341777946
18.0054157271
18.035456581
18.0307144888
17.997643042
17.9422723895
17.8699429484
17.7851672077
17.6916998006
17.5925872952
17.4903141531
17.3868599834
17.2838162895
17.1823965937
17.0835323871
16.9878814835
16.8959178322
16.8079308063
16.7240922876
16.6444597963
16.5690386646
16.4977422094
16.4304464257
16.3670093589
16.3073187626
16.2511863267
16.1983649782
16.1486036476
16.1016520419
16.0572598028
16.0151896625
15.9752236812
15.9371633896
15.9008240279
15.8660284446
15.8326106259
15.8004176079
15.7693036293
15.7391358029
15.709793223
15.6811633868
15.653145164
15.6256391245
15.598553558
15.5718110027
15.5453412608
15.5190797655
15.4929654345
15.4669422554
15.4409611581
15.4149792613
15.3889536968
15.3628519098
15.3366636471
15.3103854641
15.2840007114
15.2575012827
15.2309079185
15.2042608529
15.1776054928
15.1509964068
15.1244960712
15.0981840298
15.0721304047
15.0463942825
15.0209700047
14.9955115119
14.9693641195
14.9308347096
-3.1788009751
-3.2016529057
-3.23879710376
-3.29076181158
-3.35743174565
-3.43894171491
-3.53583842867
-3.64888885655
-3.77897770575
-3.92701066382
-4.09386021553
-4.28031560267
-4.48706318605
-4.71466816823
-4.96358305998
-5.23414744931
-5.52661027481
-5.84113526079
-6.17782632561
-6.5367314129
-6.91786555874
-7.32120898852
-7.74672522719
-8.19435288945
-8.66401645005
-9.15561128256
-9.66900642269
-10.2040219156
-10.7604222158
-11.3378853633
-11.9359859674
-12.5541556122
-13.1916558154
-13.8475312683
-14.5205749267
-15.2092760552
-15.9117821987
-16.625852492
-17.3488335428
-18.0776358286
-18.8087336618
-19.5381673062
-20.2615808338
-20.9742938131
-21.671420925
-22.3479969119
-22.9990981872
-23.6199645925
-24.2061431259
-24.7536198277
-25.2589146034
-25.7191270769
-26.1318476923
-26.4951922269
-26.8078236269
-27.0688434222
-27.2775440673
-27.4329092937
-27.5340524622
-27.5805292036
-27.5713081212
-27.5024354975
-27.3712549833
-27.1822754687
-26.9408589129
-26.6501546885
-26.3145489538
-25.9390975172
-25.5292888126
-25.0907634451
-24.6290171521
-24.1491351603
-23.6555761416
-23.151923506
-22.6405813474
-22.1225263037
-21.597125887
-21.0618506501
-20.5120616742
-19.9409188667
-19.3388969614
-18.6930921379
-17.9864235852
-17.1970717107
-16.2988150143
-15.2630431821
-14.0624085736
-12.6757953553
-11.0929327382
-9.31838109905
-7.37487640572
-5.30207444077
-3.1485872136
-0.96578776283
1.19383794396
3.27965884191
5.25092826004
7.0792326444
8.74371568895
10.2367910869
11.560255981
12.72468616
13.7389352937
14.6082888149
15.342916339
15.9555517401
16.4593240232
16.8667369715
17.1897708207
17.4393348133
17.6250930202
17.7554995976
17.8379720234
17.8792813338
17.8859252911
17.8641521796
17.8197547772
17.7578793285
17.6829425029
17.598648297
17.5080487776
17.4136377047
17.317430897
17.2210388871
17.1257149759
17.0324161614
16.9418450932
16.854504882
16.7707276987
16.6907170199
16.6145652079
16.5422925214
16.4738532365
16.4091574189
16.3481110866
16.2906214021
16.2364782692
16.1854150885
16.1372021831
16.0916152453
16.0484289549
16.0074283419
15.9684140605
15.9312013884
15.8956159069
15.8614933033
15.8286758606
15.7970153399
15.7663770592
15.7366358248
15.7076761482
15.6793891281
15.6516689905
15.6244203104
15.5975627289
15.5710241326
15.5447338387
15.5186260839
15.4926397126
15.4667222359
15.4408278674
15.4149093671
15.3889279036
15.3628655474
15.3367123216
15.3104432567
15.2840318847
15.2574807667
15.2308077613
15.2040369641
15.1771934057
15.1503093125
15.1234216603
15.0965493885
15.0696933043
15.0428184697
15.0157262212
14.9877555635
14.9577564786
14.914524046
-3.37794059593
-3.39893553321
-3.43560411944
-3.48917417749
-3.55954571737
-3.6468567588
-3.75139580182
-3.87356056129
-4.01381994272
-4.17266473306
-4.35058131442
-4.54801991971
-4.765385946
-5.00302402783
-5.26122485837
-5.54021956166
-5.8401956775
-6.16129564201
-6.50363612521
-6.86730558795
-7.25238236661
-7.65892904973
-8.0870063524
-8.53666223413
-9.00794034872
-9.50086278938
-10.0154307583
-10.5516000415
-11.1092722309
-11.6882611357
-12.2882728327
-12.9088617894
-13.5493994269
-14.2090207722
-14.8865837035
-15.5806087546
-16.2892331752
-17.0101538289
-17.7405952509
-18.4772792889
-19.2164257032
-19.9537567194
-20.684542051
-21.4036816456
-22.1058542192
-22.7856847579
-23.4379111715
-24.0575379549
-24.640010215
-25.1813578837
-25.6782663946
-26.1280791472
-26.5287492559
-26.878896195
-27.1777724897
-27.4250044608
-27.6199556104
-27.7617441238
-27.8496955595
-27.8829487358
-27.8584271965
-27.7704499046
-27.620135194
-27.4133638683
-27.1530789797
-26.8428280124
-26.487557507
-26.0929833444
-25.6652679844
-25.2107048079
-24.735406276
-24.2450174788
-23.7445130798
-23.2379709995
-22.7282661251
-22.216873079
-21.7038117858
-21.1874120567
-20.6641757481
-20.1286476326
-19.5729636522
-18.985788261
-18.3506416318
-17.6442858061
-16.8361822593
-15.8907119377
-14.7717155609
-13.4496552977
-11.9077528819
-10.1470808278
-8.19127868667
-6.08833934098
-3.89612422185
-1.67189358542
0.528255482735
2.64975180993
4.65117712868
6.50840499756
8.20429315785
9.73617321329
11.1046744374
12.3085628386
13.3536749283
14.2498684104
15.0090112156
15.6439888323
16.1680014735
16.5938629155
16.9337348873
17.1987421374
17.3988557761
17.5428696355
17.638593104
17.6930700341
17.7128655339
17.7040869089
17.6723423744
17.6225970373
17.5591634433
17.4856718111
17.4051644782
17.3201260983
17.2326010201
17.1442094123
17.0562465838
16.9696909187
16.8852956803
16.8035902068
16.7249578627
16.6496268612
16.5777421253
16.5093376267
16.4444101284
16.3829191485
16.3248261503
16.2700303279
16.2183026916
16.1693785014
16.1230574165
16.0791438382
16.0374425768
15.997763275
15.9599265648
15.9237646499
15.8891179596
15.8558313333
15.8237575338
15.7927624396
15.7627193657
15.7335092538
15.7050216866
15.6771482129
15.6497900558
15.6228647069
15.5962972698
15.5700152094
15.5439481287
15.5180326572
15.4922102988
15.4664349504
15.4406584218
15.4148341294
15.388931781
15.362938485
15.3368287457
15.3105635647
15.2841283348
15.2575259122
15.2307620905
15.2038453706
15.1767820042
15.1495884173
15.1222579413
15.0947551734
15.06702401
15.0389217316
15.0100738502
14.9795503803
14.945887236
14.8984633846
-3.60271029439
-3.62196536569
-3.65795962442
-3.71191048227
-3.78385942746
-3.87409583243
-3.98285331663
-4.11036935171
-4.25688516801
-4.42263406267
-4.60784095393
-4.81270930945
-5.03742543902
-5.28214943836
-5.54702575403
-5.83217724226
-6.13771978462
-6.46375734762
-6.81039753351
-7.17774560553
-7.5659186774
-7.97503645721
-8.40523231221
-8.85663992876
-9.32939883423
-9.82363559545
-10.3394622942
-10.8769500611
-11.4361179559
-12.0168968803
-12.6191064404
-13.2424070759
-13.8862635199
-14.5498854649
-15.2321795433
-15.9316813292
-16.6465005805
-17.3742540138
-18.1120224805
-18.856313035
-19.6030576168
-20.3476239093
-21.0848691741
-21.8092365976
-22.5149322607
-23.1961482967
-23.8472809261
-24.4631214496
-25.0390394335
-25.57115023
-26.0563797863
-26.4925099419
-26.878233605
-27.2131568614
-27.497476602
-27.7313395954
-27.9141065479
-28.0449627154
-28.1233197653
-28.1474731365
-28.1116946508
-28.0110924333
-27.848512776
-27.6279681851
-27.351714723
-27.0241359542
-26.6508169883
-26.2381510761
-25.7929629824
-25.3221862976
-24.8324833651
-24.3299136194
-23.8197586221
-23.3063471897
-22.7929677581
-22.2818764656
-21.7743434794
-21.2704175376
-20.7685459135
-20.2651321387
-19.7539831895
-19.2249618306
-18.66166375
-18.038824969
-17.3211850535
-16.4659304229
-15.4281384174
-14.1705007049
-12.6714787665
-10.9306889488
-8.97257224677
-6.85301807385
-4.6389265641
-2.39131589989
-0.165506245439
1.9833026787
4.01394189035
5.90886161297
7.65029038039
9.22342812617
10.6258910575
11.8600833274
12.9329680883
13.8546350972
14.6371849881
15.293785999
15.8378637084
16.2824857268
16.6399734185
16.9216370657
17.1376440143
17.2970357295
17.407844674
17.4772855008
17.5119306005
17.5177898456
17.5002989097
17.4642764283
17.4139088347
17.3527625189
17.2838348575
17.2096108826
17.1321316657
17.0530435766
16.9736595926
16.8949998038
16.8178474158
16.7427791534
16.6702119133
16.6004197302
16.5335841233
16.4697824785
16.4090433362
16.3513762318
16.2968110036
16.2452312566
16.196361941
16.1499815679
16.1059226523
16.0640212768
16.0241123624
15.9860319925
15.9496244005
15.9147397908
15.8812312392
15.8489582371
15.8177910015
15.7876059477
15.7582829437
15.7297135576
15.7017928168
15.674419088
15.6475071977
15.6209809184
15.5947672144
15.5687948777
15.5429987564
15.5173186152
15.4917028556
15.4661046022
15.4404762146
15.4147785013
15.3889855894
15.3630751348
15.3370128304
15.310765738
15.284322259
15.2576761872
15.2308228605
15.2037521774
15.1764631131
15.1489387058
15.1211294654
15.0929612928
15.0643124575
15.0349348656
15.0042828946
14.9712399518
14.9341974993
14.8831697934
-3.8233600273
-3.84140432446
-3.87699700141
-3.9309474682
-4.00350308118
-4.09510594722
-4.2060137101
-4.33642057168
-4.48646591194
-4.65624636449
-4.84583335322
-5.05527421928
-5.28460839619
-5.53386533378
-5.803080417
-6.09229090196
-6.40155142139
-6.73092793334
-7.08051222557
-7.45041330387
-7.84076953865