/*--------------------------------*- C++ -*----------------------------------*\
| =========                 |                                                 |
| \\      /  F ield         | OpenFOAM: The Open Source CFD Toolbox           |
|  \\    /   O peration     | Version:  v1806                                 |
|   \\  /    A nd           | Web:      www.OpenFOAM.com                      |
|    \\/     M anipulation  |                                                 |
\*---------------------------------------------------------------------------*/
FoamFile
{
    version     2.0;
    format      ascii;
    class       surfaceScalarField;
    location    "17";
    object      phia;
}
// * * * * * * * * * * * * * * * * * * * * * * * * * * * * * * * * * * * * * //

dimensions      [0 3 -1 0 0 0 0];
oriented        oriented;


internalField   nonuniform List<scalar> 
24170
(
1.720984328e-07
1.50460295508e-07
2.44883415349e-07
-6.93718151772e-08
2.5045413625e-07
-4.30993705893e-09
2.55766415955e-07
-3.93526720129e-09
2.67113145389e-07
-1.05714628294e-08
2.79233755654e-07
-9.56410615686e-09
2.92234077789e-07
-1.06619818086e-08
3.06125893193e-07
-1.05651752716e-08
3.20312184725e-07
-1.10122528985e-08
3.35171319261e-07
-1.21479670707e-08
3.51796744844e-07
-1.4326138609e-08
3.72777379171e-07
-1.97057726733e-08
4.03681992352e-07
-3.00373062144e-08
4.49174271948e-07
-4.52044993162e-08
5.05292036138e-07
-5.60479024044e-08
5.50113401931e-07
-4.49812121458e-08
6.08969160778e-07
-5.90878842486e-08
-5.41146761263e-07
1.14989258035e-06
6.88722219304e-07
-1.85225578886e-07
3.49492306244e-07
2.76430155003e-07
4.02960006045e-07
-5.52440796785e-08
4.13411489407e-07
-1.24476920977e-08
4.31066089842e-07
-2.66324895647e-08
4.48823661985e-07
-2.4117921157e-08
4.68023629484e-07
-2.63522484866e-08
4.88412222013e-07
-2.64787152592e-08
5.09916617153e-07
-2.81513356022e-08
5.32729890037e-07
-3.11498967025e-08
5.57948446839e-07
-3.65890347404e-08
5.87423615958e-07
-4.74214386102e-08
6.23772717484e-07
-6.54196472655e-08
6.66368989733e-07
-8.7466672616e-08
7.07190947415e-07
-9.6857737176e-08
7.42896090462e-07
-8.08789208032e-08
8.33282458905e-07
-1.49781018442e-07
-6.59901066082e-07
9.51643091651e-07
-7.91590510271e-08
2.60389245457e-07
4.30478733981e-07
-2.33117131543e-07
3.22468470081e-07
5.24641682138e-08
3.49313126904e-07
-3.90984883565e-08
3.47313590743e-07
-2.46251112255e-08
3.56317234402e-07
-3.20882060976e-08
3.62789751302e-07
-3.19375060353e-08
3.71081225413e-07
-3.34972968342e-08
3.79833407065e-07
-3.58228130048e-08
3.89885747277e-07
-4.04129307761e-08
4.02633514916e-07
-4.87599297479e-08
4.20017408313e-07
-6.46141101213e-08
4.43617299113e-07
-8.89601972974e-08
4.71927593207e-07
-1.15912579359e-07
5.02989586248e-07
-1.28128181242e-07
5.5526208501e-07
-1.33425969466e-07
6.68813875445e-07
-2.63622183833e-07
-6.81134963525e-07
6.89775582968e-07
7.50623661665e-07
-9.06968666486e-08
3.09669423892e-07
2.10879856791e-07
4.14027197673e-07
-5.11826729733e-08
4.11343428729e-07
-3.58584183808e-08
4.23704668754e-07
-3.63781187125e-08
4.33048903336e-07
-3.97894922746e-08
4.43659232147e-07
-4.05974856962e-08
4.54741749922e-07
-4.21752087965e-08
4.66111804023e-07
-4.49660259554e-08
4.77916760913e-07
-5.04067370331e-08
4.90909740661e-07
-6.05056236854e-08
5.05538016153e-07
-7.86035347184e-08
5.21128989993e-07
-1.04336732937e-07
5.34917043043e-07
-1.2979571892e-07
5.49893747875e-07
-1.43372055881e-07
5.88692466752e-07
-1.725765646e-07
6.51401915163e-07
-3.26715751027e-07
-6.29743471205e-07
5.9958879461e-07
-2.77469144403e-08
3.54964926582e-07
4.3859599376e-07
-2.57409085084e-07
3.97690206413e-07
-1.15291415544e-08
4.01873415057e-07
-4.04171280685e-08
4.09439759077e-07
-4.42211298404e-08
4.18748037779e-07
-4.88023111673e-08
4.29143543937e-07
-5.07893698525e-08
4.41132493977e-07
-5.38657565659e-08
4.54685399016e-07
-5.83900700347e-08
4.70268445432e-07
-6.60125219122e-08
4.88528565712e-07
-7.88748344573e-08
5.09067342821e-07
-9.93456730492e-08
5.29908440815e-07
-1.25403430201e-07
5.48835406042e-07
-1.48994520853e-07
5.7184743919e-07
-1.66674548809e-07
6.12738530116e-07
-2.13769723392e-07
6.43888387733e-07
-3.58164089359e-07
-5.62371598215e-07
5.76279652183e-07
7.03743146912e-07
1.02036739883e-07
4.22907497182e-07
2.27090339891e-08
4.43183303895e-07
-3.23724715404e-08
4.55128208255e-07
-5.2413529879e-08
4.6031137728e-07
-4.91203309591e-08
4.68064661503e-07
-5.57625524966e-08
4.76024192745e-07
-5.78073220121e-08
4.85186241046e-07
-6.20112482722e-08
4.95499425041e-07
-6.78762650053e-08
5.07615958883e-07
-7.75526428149e-08
5.2198263046e-07
-9.29362413952e-08
5.37909348974e-07
-1.15185931382e-07
5.53624385536e-07
-1.41196620984e-07
5.69235223775e-07
-1.64797022789e-07
5.91840833222e-07
-1.89544436448e-07
6.24759854059e-07
-2.46980289591e-07
6.3403168872e-07
-3.6772689293e-07
-5.0226805695e-07
5.73593359418e-07
3.47440975463e-07
2.33871197402e-07
4.75698423629e-07
-1.08479856471e-07
4.72157588763e-07
-3.04453858604e-08
4.7831997508e-07
-5.92147533757e-08
4.86225930188e-07
-5.7324491206e-08
4.94887411672e-07
-6.44654612606e-08
5.04433268659e-07
-6.74525047132e-08
5.14958074391e-07
-7.26866793926e-08
5.26558778502e-07
-7.97457813241e-08
5.3953014704e-07
-9.08444715151e-08
5.53759075241e-07
-1.07482947658e-07
5.68122826079e-07
-1.2983892751e-07
5.81315473213e-07
-1.54646051339e-07
5.94933919368e-07
-1.78658328498e-07
6.14303056892e-07
-2.09145962207e-07
6.35303186445e-07
-2.68209246194e-07
6.30190255722e-07
-3.62858864717e-07
-4.52257148367e-07
5.80102439054e-07
5.39216899545e-07
2.08979965552e-07
5.04324298461e-07
-7.61010289296e-08
5.10017050268e-07
-3.72869472884e-08
5.16214555653e-07
-6.55997949171e-08
5.22992791218e-07
-6.38689746346e-08
5.30660109544e-07
-7.16606585632e-08
5.39384631718e-07
-7.57270564135e-08
5.49235370916e-07
-8.21827816513e-08
5.60338423825e-07
-9.06575676055e-08
5.72716857041e-07
-1.03168902871e-07
5.85823972353e-07
-1.20631347776e-07
5.98405845553e-07
-1.42511290033e-07
6.09752255356e-07
-1.66117749101e-07
6.21744175282e-07
-1.90800035025e-07
6.36619350884e-07
-2.24188232718e-07
6.468501057e-07
-2.78621580015e-07
6.33914779778e-07
-3.50040343432e-07
-4.1088244398e-07
5.92363822187e-07
5.42207057802e-07
2.18290261643e-07
5.46370913029e-07
-8.29451532172e-08
5.50166013189e-07
-4.26250590431e-08
5.55452520268e-07
-7.15573562982e-08
5.62036273879e-07
-7.07494357262e-08
5.69207502222e-07
-7.89748842844e-08
5.77427105626e-07
-8.41332185739e-08
5.86668497351e-07
-9.16788850973e-08
5.97031659489e-07
-1.01340463785e-07
6.08306335312e-07
-1.14770852895e-07
6.19740321831e-07
-1.32355326904e-07
6.30264052198e-07
-1.53274582592e-07
6.39698972574e-07
-1.75746418735e-07
6.49417791337e-07
-2.00684269846e-07
6.59057762672e-07
-2.33974570377e-07
6.60983748907e-07
-2.8067965013e-07
6.44382276025e-07
-3.33590527427e-07
-3.75708113131e-07
6.09210255836e-07
5.90046406257e-07
2.19831672983e-07
5.87544043338e-07
-8.27640169508e-08
5.93542089955e-07
-4.95880905389e-08
5.97758483295e-07
-7.58902388945e-08
6.03965796396e-07
-7.66426294458e-08
6.10519859509e-07
-8.51148356342e-08
6.18120269151e-07
-9.13746546305e-08
6.26607157393e-07
-9.99416899641e-08
6.35990319008e-07
-1.10631588329e-07
6.45860561851e-07
-1.24637129471e-07
6.55411653677e-07
-1.41961467623e-07
6.63850674742e-07
-1.61788652992e-07
6.712196413e-07
-1.83213339499e-07
6.78051652895e-07
-2.07613504521e-07
6.8251664125e-07
-2.38550937268e-07
6.78516823203e-07
-2.76796756117e-07
6.60496561161e-07
-3.15617498945e-07
-3.45258049811e-07
6.29930651158e-07
6.3509189442e-07
2.19623300465e-07
6.32771332838e-07
-8.25808458639e-08
6.39725626565e-07
-5.78379450944e-08
6.43141971642e-07
-7.98787754338e-08
6.48786737891e-07
-8.25246534924e-08
6.54643242648e-07
-9.10399629949e-08
6.61467463392e-07
-9.82902026999e-08
6.69006105434e-07
-1.07606419035e-07
6.7714980548e-07
-1.18943016605e-07
6.8536818596e-07
-1.33041873066e-07
6.92917524168e-07
-1.49679172502e-07
6.99232019704e-07
-1.68266396893e-07
7.04316085847e-07
-1.88429681197e-07
7.07923649872e-07
-2.11357167225e-07
7.07801849146e-07
-2.3854928017e-07
6.99777065045e-07
-2.68888614529e-07
6.81315025653e-07
-2.9729301025e-07
-3.18146102962e-07
6.54160421896e-07
5.72823211766e-07
2.18889085537e-07
5.71443618172e-07
-8.27890991064e-08
5.77325086804e-07
-6.46688646889e-08
5.79766850523e-07
-8.27120129957e-08
5.83988513218e-07
-8.69112690678e-08
5.88324803714e-07
-9.54319836371e-08
5.93371145905e-07
-1.03432135444e-07
5.98859821941e-07
-1.1323875321e-07
6.04613871899e-07
-1.24897557436e-07
6.10165315245e-07
-1.38802501951e-07
6.14971453175e-07
-1.54693001993e-07
6.18661132208e-07
-1.72133264737e-07
6.21070801398e-07
-1.9105622048e-07
6.2167504698e-07
-2.12089119979e-07
6.18712638025e-07
-2.35744267292e-07
6.09941681883e-07
-2.60226281251e-07
5.94475090601e-07
-2.81879040623e-07
-2.97323619419e-07
5.73564713942e-07
7.00373874561e-07
2.16635667729e-07
6.98970873039e-07
-8.26421843069e-08
7.04841004432e-07
-7.13153666251e-08
7.07342630788e-07
-8.57601579292e-08
7.11457967221e-07
-9.13092287741e-08
7.15684209175e-07
-9.99047884379e-08
7.20538938669e-07
-1.0848705533e-07
7.25687417026e-07
-1.18618835733e-07
7.30867205794e-07
-1.30308674396e-07
7.35556054446e-07
-1.43725831643e-07
7.39230229649e-07
-1.58583059472e-07
7.41485311543e-07
-1.74646480002e-07
7.42040208218e-07
-1.91775117951e-07
7.40031767001e-07
-2.10306683634e-07
7.33977869997e-07
-2.29807840623e-07
7.22342257549e-07
-2.48717530357e-07
7.04891138197e-07
-2.64514707399e-07
-2.75315822766e-07
6.82812942398e-07
8.55795672611e-07
2.12890128115e-07
8.54676751751e-07
-8.24570607474e-08
8.59674207858e-07
-7.75187956506e-08
8.62065061717e-07
-8.87543157282e-08
8.65645148186e-07
-9.56332402753e-08
8.69395207182e-07
-1.04074073952e-07
8.73540462408e-07
-1.13127509591e-07
8.77781310393e-07
-1.23230262521e-07
8.81708659634e-07
-1.34617332584e-07
8.84818258779e-07
-1.47164298176e-07
8.86608207668e-07
-1.60656112487e-07
8.86663395668e-07
-1.74941860295e-07
8.84460647724e-07
-1.8983759033e-07
8.79190653191e-07
-2.05214594197e-07
8.69651989495e-07
-2.20461566613e-07
8.55078165977e-07
-2.34272954171e-07
8.35632229541e-07
-2.45174331945e-07
-2.52168810218e-07
8.12382885748e-07
1.04610482045e-06
2.0564620028e-07
1.04439807371e-06
-8.23733606723e-08
1.04826990163e-06
-8.23712353566e-08
1.04965585067e-06
-9.13909331408e-08
1.05223265986e-06
-9.88969285606e-08
1.0546963434e-06
-1.07374955811e-07
1.05742855515e-06
-1.16395651486e-07
1.0598302611e-06
-1.26222121987e-07
1.06159591825e-06
-1.36848713484e-07
1.06220302442e-06
-1.48132270992e-07
1.06114992645e-06
-1.59943695819e-07
1.05802139296e-06
-1.72067309214e-07
1.05223793882e-06
-1.84309904616e-07
1.04310742444e-06
-1.96289233017e-07
1.02989545517e-06
-2.07459994197e-07
1.01236488881e-06
-2.16907477002e-07
9.9089540733e-07
-2.23875401863e-07
-2.27884557584e-07
9.66449562451e-07
1.28071419829e-06
1.90487516775e-07
1.27664717993e-06
-7.98470990802e-08
1.27794117583e-06
-8.54040767715e-08
1.27772445094e-06
-9.23364841889e-08
1.27817543422e-06
-1.0037192818e-07
1.27855206803e-06
-1.0847601008e-07
1.27871325356e-06
-1.1720418806e-07
1.27825130241e-06
-1.26298006112e-07
1.27676200181e-06
-1.35771546183e-07
1.27372545702e-06
-1.45493207744e-07
1.26882125099e-06
-1.55269922741e-07
1.2614959028e-06
-1.65025285723e-07
1.2513950034e-06
-1.74394346183e-07
1.23794976957e-06
-1.83098642265e-07
1.22094957315e-06
-1.90655501893e-07
1.20041394207e-06
-1.965990719e-07
1.1768549704e-06
-2.00537645986e-07
-2.02324195966e-07
1.15110989255e-06
1.56488091125e-06
1.6924015136e-07
1.55855992829e-06
-7.58113113146e-08
1.55597191969e-06
-8.44394839219e-08
1.55278687372e-06
-9.03178730024e-08
1.5499784142e-06
-9.83814474607e-08
1.54697139378e-06
-1.05987533043e-07
1.54336119491e-06
-1.14035844781e-07
1.53882278212e-06
-1.22046167013e-07
1.53283112724e-06
-1.30080995931e-07
1.52513131061e-06
-1.37967161401e-07
1.5152566894e-06
-1.45604077149e-07
1.50294949706e-06
-1.52880920715e-07
1.48787554293e-06
-1.59516532941e-07
1.46987082773e-06
-1.65291379517e-07
1.44893844298e-06
-1.69924825455e-07
1.4253089453e-06
-1.73206297071e-07
1.39953307229e-06
-1.74966707278e-07
-1.75177713453e-07
1.37210326951e-06
1.90664631213e-06
1.42452639243e-07
1.89946262462e-06
-7.11020559611e-08
1.89115791283e-06
-7.81839335771e-08
1.88357195829e-06
-8.36310156974e-08
1.87596599328e-06
-9.13207358621e-08
1.86816026525e-06
-9.83308127858e-08
1.85947663492e-06
-1.0538919389e-07
1.84957581345e-06
-1.12117645825e-07
1.83803426932e-06
-1.18529449066e-07
1.82458757637e-06
-1.24524037388e-07
1.80894733982e-06
-1.30039189418e-07
1.79100888691e-06
-1.35019827356e-07
1.77061868331e-06
-1.39284682603e-07
1.74790191827e-06
-1.42704253619e-07
1.72296446342e-06
-1.45174416924e-07
1.69620540681e-06
-1.46628637445e-07
1.66814294793e-06
-1.47080212607e-07
-1.46711551091e-07
1.63943526178e-06
2.35057572497e-06
8.34358489184e-08
2.31412052754e-06
-3.90522082041e-08
2.29580284265e-06
-6.22779596061e-08
2.28153319819e-06
-7.09695723415e-08
2.26765088318e-06
-7.82778320097e-08
2.25369307394e-06
-8.43622021966e-08
2.23862696688e-06
-9.01409105741e-08
2.22217602738e-06
-9.52732119806e-08
2.20393822509e-06
-9.99438680177e-08
2.18367493341e-06
-1.04037905082e-07
2.16136351794e-06
-1.07613620985e-07
2.13697648636e-06
-1.1060972609e-07
2.11060378923e-06
-1.1299957138e-07
2.08248806934e-06
-1.14661621606e-07
2.05280594261e-06
-1.15666136538e-07
2.02191547775e-06
-1.15894441169e-07
1.98998935456e-06
-1.1534834696e-07
-1.13408780147e-07
1.95636650632e-06
1.62478000007e-06
1.31203303164e-07
1.68186979995e-06
-1.02405557881e-07
1.67613396213e-06
-6.21372349776e-08
1.6655259552e-06
-6.38152397406e-08
1.6545169306e-06
-6.85043818394e-08
1.64251916986e-06
-7.34492708205e-08
1.6303151068e-06
-7.77625531334e-08
1.61685521014e-06
-8.17302836628e-08
1.60247769398e-06
-8.5146867299e-08
1.58677731127e-06
-8.81458040613e-08
1.57005361274e-06
-9.05759660273e-08
1.55203926058e-06
-9.25998756438e-08
1.53335960606e-06
-9.40150808909e-08
1.51359785797e-06
-9.49716310235e-08
1.49360501115e-06
-9.52966436412e-08
1.47293831387e-06
-9.52286602023e-08
1.45302087833e-06
-9.49265077017e-08
-9.64433104963e-08
1.43624664908e-06
1.68736358504e-06
-9.70190653322e-08
1.47989267199e-06
9.87280073416e-08
1.45369344512e-06
-3.82383091611e-08
1.44245099062e-06
-5.64930036024e-08
1.43187423883e-06
-6.03618232544e-08
1.42060072254e-06
-6.38509599078e-08
1.40859977095e-06
-6.64155981125e-08
1.39559960872e-06
-6.89475192541e-08
1.38152553648e-06
-7.12025518078e-08
1.36647302781e-06
-7.30136161288e-08
1.35035333912e-06
-7.45404466187e-08
1.33361017492e-06
-7.57265787444e-08
1.31607607688e-06
-7.65935711943e-08
1.29830368184e-06
-7.69678686471e-08
1.28003556317e-06
-7.70566295876e-08
1.26198922543e-06
-7.68510802015e-08
1.24323187444e-06
-7.60894589966e-08
-7.08121285052e-08
1.21803118147e-06
8.20669689921e-07
3.50446769234e-07
1.26852368103e-06
-3.51564718568e-07
1.28698421213e-06
-6.23490509326e-08
1.27754995342e-06
-4.87309057011e-08
1.26763985675e-06
-5.22982828288e-08
1.25760109445e-06
-5.43538447086e-08
1.24648554501e-06
-5.62354925238e-08
1.23486605316e-06
-5.79202083878e-08
1.22283995685e-06
-5.9403115354e-08
1.21025309142e-06
-6.08726589659e-08
1.19741720312e-06
-6.18579137816e-08
1.18404966757e-06
-6.25596128377e-08
1.17030979777e-06
-6.28386443411e-08
1.15619703427e-06
-6.2848582307e-08
1.14165208595e-06
-6.24581840885e-08
1.1261699444e-06
-6.12074753878e-08
1.10965107041e-06
-5.94378606671e-08
-6.34622350478e-08
1.10247390464e-06
1.99014618815e-06
-5.2806893517e-07
1.11961214307e-06
5.19031727621e-07
1.085037297e-06
-2.54183077852e-08
1.08651455108e-06
-5.0947252837e-08
1.07986578304e-06
-4.58799645225e-08
1.07118573307e-06
-4.67802202613e-08
1.06166743902e-06
-4.69843804423e-08
1.05150160139e-06
-4.79404917357e-08
1.04072072341e-06
-4.90404919895e-08
1.02979840987e-06
-4.99210493255e-08
1.01850836212e-06
-5.07728717517e-08
1.00726318304e-06
-5.13497760086e-08
9.9605312107e-07
-5.17296049754e-08
9.84968659596e-07
-5.1813558553e-08
9.74546964298e-07
-5.18853065974e-08
9.66086715562e-07
-5.28023891289e-08
9.61898726051e-07
-5.49831523802e-08
-5.06150240175e-08
9.49085741256e-07
-3.56491463618e-07
7.97593067269e-07
1.01772888595e-06
-8.51656138757e-07
1.01741395654e-06
-2.50315591363e-08
9.93715269491e-07
-2.55713483465e-08
9.85170048588e-07
-3.66243276631e-08
9.75305879855e-07
-3.60249679157e-08
9.64770099791e-07
-3.63818831202e-08
9.53281380999e-07
-3.64313980905e-08
9.41206409683e-07
-3.6684482896e-08
9.28313837349e-07
-3.70169647868e-08
9.14832772899e-07
-3.70588439346e-08
9.0062660441e-07
-3.70517487257e-08
8.85921705555e-07
-3.67874526966e-08
8.70599171446e-07
-3.63701284828e-08
8.54417331578e-07
-3.56713417926e-08
8.35644531789e-07
-3.38943485237e-08
8.1067438621e-07
-2.98937156225e-08
-3.36150251319e-08
7.9378826214e-07
2.64863314449e-06
-1.0022377739e-06
7.39145128786e-07
1.06340146871e-06
8.02697796817e-07
-8.40199190751e-08
8.3022248404e-07
-5.05511204159e-08
8.26696380795e-07
-3.19365666272e-08
8.21944325865e-07
-3.09338631132e-08
8.1628253074e-07
-3.0154207657e-08
8.11186469578e-07
-3.09477523309e-08
8.06525667442e-07
-3.17227453699e-08
8.02639751945e-07
-3.25958067748e-08
7.99410343447e-07
-3.33547538893e-08
7.96712016841e-07
-3.38369812335e-08
7.94318487347e-07
-3.40678125537e-08
7.92184706975e-07
-3.39443351525e-08
7.90241370579e-07
-3.34799493181e-08
7.90056325672e-07
-3.35021909557e-08
7.95659202934e-07
-3.54043316034e-08
-2.61630552283e-08
7.88485330653e-07
-1.30721237678e-06
1.04563674188e-06
9.5177226086e-07
-1.18922176227e-06
7.79449950205e-07
9.19156209633e-08
7.60207238033e-07
-2.84818321497e-08
7.45781059075e-07
-1.53027052805e-08
7.36018651476e-07
-1.99779865048e-08
7.2467588556e-07
-1.82827029664e-08
7.12402663846e-07
-1.82871065127e-08
6.99522238562e-07
-1.83783483947e-08
6.86061042651e-07
-1.86404941003e-08
6.72225116491e-07
-1.8899014325e-08
6.57999430967e-07
-1.9075277783e-08
6.43415809608e-07
-1.89848683805e-08
6.28698262361e-07
-1.8821674524e-08
6.14187063091e-07
-1.86392047981e-08
5.98663519709e-07
-1.76493576857e-08
5.77444324532e-07
-1.40097190191e-08
-2.41824190996e-08
5.75595502139e-07
2.36713314563e-06
-6.7636537493e-07
3.45141477469e-07
8.38679112963e-07
6.89206851632e-07
-2.4824924792e-07
6.57085906571e-07
9.22206098251e-09
6.70860087639e-07
-2.92535640012e-08
6.63062054351e-07
-1.13325433987e-08
6.60799554634e-07
-1.53487559625e-08
6.57130057995e-07
-1.41628006675e-08
6.53712783393e-07
-1.45333045515e-08
6.50254538211e-07
-1.46533316454e-08
6.46820613293e-07
-1.49717101649e-08
6.4354143042e-07
-1.52294792284e-08
6.4045424467e-07
-1.54732524573e-08
6.37646106627e-07
-1.56336978005e-08
6.3518025089e-07
-1.58320889181e-08
6.34813925093e-07
-1.70092456891e-08
6.43181975525e-07
-2.21216421419e-08
-1.15708932055e-08
6.30524613372e-07
-7.47129830768e-07
6.33793028358e-07
8.71733074478e-07
-7.74219904474e-07
5.10437987003e-07
1.18199441722e-07
5.68080242674e-07
-4.30039086516e-08
5.3656926383e-07
3.56803624035e-09
5.35872374399e-07
-9.84549669481e-09
5.26054212415e-07
-4.78298938658e-09
5.18713032901e-07
-6.34205444905e-09
5.10633977418e-07
-6.01933447755e-09
5.02841737501e-07
-6.44803707215e-09
4.95177350709e-07
-6.73039720287e-09
4.87609722425e-07
-7.1296014902e-09
4.80083096909e-07
-7.51728303496e-09
4.72593706954e-07
-7.79666929083e-09
4.65070067097e-07
-7.99462421678e-09
4.55752761936e-07
-7.37275275538e-09
4.35404154261e-07
-1.74394205334e-09
-1.61514008448e-08
4.40203763045e-07
1.32585773944e-06
-1.99964279595e-07
4.48896427689e-07
1.09617828005e-07
6.0742996216e-07
-3.427640085e-08
5.70182008216e-07
4.62100950669e-10
5.78669510627e-07
-3.13044808559e-09
5.71492903205e-07
-1.68071751591e-09
5.6957897032e-07
-2.02740610604e-09
5.65819233597e-07
-2.01383707344e-09
5.62447322915e-07
-2.1699090071e-09
5.58791919239e-07
-2.26438841693e-09
5.55086112095e-07
-2.37705538231e-09
5.51115436552e-07
-2.54666180263e-09
5.46868953806e-07
-2.78163978187e-09
5.42237561145e-07
-2.7614442932e-09
5.36859523031e-07
-2.24086453876e-09
5.32395078093e-07
-2.64019080339e-09
5.39297391029e-07
-8.41362867069e-09
9.19042401589e-09
5.14070830301e-07
2.20832127112e-07
3.30932290697e-07
2.97251764559e-07
2.97895361598e-07
2.94868128869e-07
2.93286076926e-07
2.91329040318e-07
2.8937793069e-07
2.87279008687e-07
2.8511265628e-07
2.82838960192e-07
2.80381333979e-07
2.77677608257e-07
2.74991886452e-07
2.72819436389e-07
2.70229534051e-07
2.61847365922e-07
2.71161509224e-07
-1.132863805e-07
1.27973354275e-07
-1.96570248317e-07
9.32095380401e-08
-2.30605634548e-07
5.26902434402e-08
-2.43697563836e-07
2.58767905896e-08
-2.40140579064e-07
1.78889263308e-08
-2.42077123354e-07
1.23931010588e-08
-2.35192255378e-07
5.85205189229e-09
-2.31135622236e-07
3.75335249766e-09
-2.26067061727e-07
3.91327786376e-09
-2.23517364891e-07
4.57384205556e-09
-2.22403142858e-07
5.27192832895e-09
-2.22097135603e-07
5.78025584014e-09
-2.24011239442e-07
6.14321242139e-09
-2.25768337729e-07
6.47167756419e-09
-2.30029609197e-07
6.7444965559e-09
-2.33744318432e-07
7.06024331095e-09
-2.39858559966e-07
7.27814474579e-09
-2.45142839727e-07
7.47646998704e-09
-2.52298926239e-07
7.47957584485e-09
-2.58386759602e-07
7.38159356206e-09
-2.6566050304e-07
7.0511580354e-09
-2.71637907382e-07
6.60290627485e-09
-2.78125374931e-07
5.94495513381e-09
-2.83214186051e-07
5.20434655055e-09
-2.88251977657e-07
4.32436480591e-09
-2.91966357758e-07
3.40795654513e-09
-2.95281567894e-07
2.43136717542e-09
-2.97383700343e-07
1.47991438695e-09
-2.98844165502e-07
5.38010239174e-10
-2.99294155533e-07
-3.47345224474e-10
-2.99001098388e-07
-1.17983560621e-09
-2.97899671186e-07
-1.94028841754e-09
-2.96034486562e-07
-2.62996567572e-09
-2.93556118865e-07
-3.25246088638e-09
-2.90354106682e-07
-3.80231426151e-09
-2.86685874839e-07
-4.30410389291e-09
-2.8238606852e-07
-4.74718530687e-09
-2.77701585008e-07
-5.1582190891e-09
-2.72482335866e-07
-5.53023227992e-09
-2.66913589401e-07
-5.88901701426e-09
-2.60900803478e-07
-6.22641181494e-09
-2.54526013398e-07
-6.56246460208e-09
-2.47793522714e-07
-6.89375771168e-09
-2.40656650781e-07
-7.22936887822e-09
-2.33248519122e-07
-7.57438555332e-09
-2.25386190161e-07
-7.92151596795e-09
-2.17316787992e-07
-8.28990378399e-09
-2.0879196907e-07
-8.65779808842e-09
-2.0009432792e-07
-9.04173553924e-09
-1.90958742569e-07
-9.42031161865e-09
-1.81680188651e-07
-9.81571275903e-09
-1.72000109873e-07
-1.01847074182e-08
-1.62131646149e-07
-1.05558535252e-08
-1.51954569162e-07
-1.09075270719e-08
-1.41554021591e-07
-1.12409493992e-08
-1.30903530542e-07
-1.15468831465e-08
-1.19988883315e-07
-1.18254894154e-08
-1.08886080814e-07
-1.20791455067e-08
-9.74789601474e-08
-1.22948134118e-08
-8.59378077723e-08
-1.24957808203e-08
-7.407603885e-08
-1.26622113337e-08
-6.21032598305e-08
-1.28113642328e-08
-4.99019329395e-08
-1.28229533299e-08
-3.78537395848e-08
-1.26963171731e-08
-2.57115204484e-08
-1.26132848402e-08
-1.3587575353e-08
-1.25773503043e-08
-1.35964180734e-09
-1.25555380802e-08
1.08971813226e-08
-1.2562083572e-08
2.32381580876e-08
-1.25799104671e-08
3.5623916482e-08
-1.26041722379e-08
4.80479947724e-08
-1.26279308629e-08
6.04947315061e-08
-1.2638859077e-08
7.29194744934e-08
-1.26427092342e-08
8.53256942784e-08
-1.26171238068e-08
9.76674710901e-08
-1.25818812752e-08
1.09947837455e-07
-1.25205975374e-08
1.22127394411e-07
-1.24523948375e-08
1.34236673371e-07
-1.23668947663e-08
1.46240868384e-07
-1.2304616491e-08
1.58237812405e-07
-1.22638288184e-08
1.70221279049e-07
-1.2306950526e-08
1.82382801444e-07
-1.24477071948e-08
1.94770576586e-07
-1.27722602441e-08
2.07751768588e-07
-1.32976380648e-08
2.21423092521e-07
-1.41314130947e-08
2.36267490457e-07
-1.52726089704e-08
2.52410049261e-07
-1.68107846443e-08
2.70119423432e-07
-1.87111878495e-08
2.89576893522e-07
-2.08154994548e-08
3.10412385735e-07
-2.33716120662e-08
3.33368946521e-07
-2.59050144211e-08
3.58403369402e-07
-2.85849621108e-08
3.85833543201e-07
-3.12678628076e-08
4.15673097985e-07
-3.41708161705e-08
4.48515615273e-07
-3.73536200907e-08
4.84652113356e-07
-4.09965406092e-08
5.24750002972e-07
-4.49531161307e-08
5.69022087787e-07
-4.9188252931e-08
6.17564030763e-07
-5.31711938546e-08
6.69720288588e-07
-5.63703901355e-08
7.23783802205e-07
-5.76768024067e-08
7.74312368501e-07
-5.3499566783e-08
8.11296614006e-07
-3.91947542295e-08
8.24610121433e-07
-1.49981917488e-08
8.17296469785e-07
6.78574827983e-09
7.96766355528e-07
2.0649455331e-08
7.87473118708e-07
1.07186136874e-08
8.44464045027e-07
-5.45369771263e-08
1.00101012184e-06
-1.52331956562e-07
1.06088966193e-06
-5.42523119025e-08
8.40904336181e-07
2.26320307064e-07
6.29325710143e-07
2.16377728667e-07
5.18225131933e-07
1.1425468944e-07
4.50853559389e-07
6.99528054467e-08
4.07070167592e-07
4.56892747584e-08
3.77226602079e-07
3.17124723727e-08
3.55600181429e-07
2.29912577566e-08
3.39462511123e-07
1.73895070983e-08
3.26787135523e-07
1.33367111109e-08
3.17163583045e-07
1.04253410651e-08
3.09900863727e-07
8.05838958533e-09
3.0503139148e-07
6.28313458631e-09
3.01671566271e-07
4.70612633397e-09
2.99768916802e-07
3.51492409752e-09
2.98564692508e-07
2.3526475428e-09
2.98346342095e-07
1.51806413552e-09
2.98556532014e-07
6.87771192562e-10
2.99539537946e-07
1.92205596082e-10
3.00751522729e-07
-3.17296500051e-10
3.02517277624e-07
-4.92133543302e-10
3.04306627323e-07
-6.62652255143e-10
3.06457570145e-07
-5.04854842557e-10
3.08580184408e-07
-4.07402067986e-10
3.10885413053e-07
1.89562753904e-10
3.13307502828e-07
4.46595425512e-10
3.16309739474e-07
1.09349950237e-09
3.19656635644e-07
1.21686820127e-09
3.23350270243e-07
1.65883617209e-09
3.25973437953e-07
1.65268259597e-09
3.28105429798e-07
1.94857182194e-09
3.29587714712e-07
1.72763715303e-09
3.3191102228e-07
1.8386172746e-09
3.34524867702e-07
1.56463813988e-09
3.38138760086e-07
1.71695484669e-09
3.41531671504e-07
1.34864404484e-09
3.45627644915e-07
1.45626106755e-09
3.49072087186e-07
9.53379307094e-10
3.52958183485e-07
1.00902486921e-09
3.55593198903e-07
3.61902822544e-10
3.58183613986e-07
4.23041332915e-10
3.58567215267e-07
-3.17383211668e-10
3.58221152957e-07
-1.28612006943e-10
3.54379494641e-07
-9.06117083346e-10
3.48968003372e-07
-4.67400044436e-10
3.3829798823e-07
-1.20664144673e-09
3.24812081593e-07
-3.2462268538e-10
3.03459358613e-07
-8.87965666556e-10
2.77332255547e-07
6.44442813682e-10
2.39628040868e-07
3.43680310465e-10
1.94371255693e-07
2.70403819314e-09
1.32647816414e-07
2.75830653968e-09
5.99385756139e-08
6.10720065973e-09
-3.50960132432e-08
6.54321408129e-09
-1.45009587336e-07
1.09970227385e-08
-2.84198864711e-07
1.19513757099e-08
-4.43321293005e-07
1.79866084274e-08
-6.40732533489e-07
2.01283556463e-08
-8.65050851821e-07
2.81844515029e-08
-1.13856641988e-06
3.16372993089e-08
-1.44734234107e-06
4.12211663715e-08
-1.8165571716e-06
4.49593326401e-08
-2.22924642336e-06
5.40231032962e-08
-2.71073945064e-06
5.43993882885e-08
-3.24710892392e-06
6.44472281453e-08
-3.8739727153e-06
7.46265579603e-08
-4.59149092066e-06
1.0838867315e-07
-5.46179087235e-06
1.68687603381e-07
-6.50026299479e-06
2.7222472423e-07
-7.78421960951e-06
4.24120725698e-07
5.59626917041e-07
-9.25789885639e-06
-3.37413669078e-08
1.75153171401e-07
-4.02380128752e-08
1.08377310687e-07
-2.09311396751e-08
4.11284480544e-08
-1.92693576363e-09
1.10770946689e-08
1.81611626086e-08
2.86726074256e-09
2.96542295739e-08
4.42700416117e-09
3.23703554542e-08
7.92522021663e-09
2.90689312927e-08
1.10519619053e-08
2.41609818563e-08
1.32807772852e-08
1.84616262108e-08
1.45189629435e-08
1.26883186914e-08
1.4878055e-08
7.82301853601e-09
1.45287999655e-08
3.16651778228e-09
1.36937000264e-08
1.70684814701e-10
1.25975426454e-08
-2.5548310799e-09
1.13765019594e-08
-3.40009366302e-09
1.01632103799e-08
-4.04351509101e-09
8.96942604403e-09
-2.96518110341e-09
7.84858655635e-09
-1.83278290974e-09
6.75521161637e-09
6.66431495609e-10
5.70904355286e-09
3.03658046607e-09
4.6540052828e-09
6.35659677661e-09
3.61253904721e-09
9.45695666797e-09
2.54069135793e-09
1.31777303562e-08
1.45750986627e-09
1.66680730872e-08
3.35999384948e-10
2.05525878887e-08
-8.03384069778e-10
2.43170143987e-08
-1.97249972019e-09
2.84185363191e-08
-3.15366639709e-09
3.26047080445e-08
-4.35019259097e-09
3.71629863901e-08
-5.55143173882e-09
4.2046070871e-08
-6.75526807741e-09
4.73912694462e-08
-7.95713339481e-09
5.32890767743e-08
-9.14845738165e-09
5.97592579835e-08
-1.03341724568e-08
6.69416194776e-08
-1.15060013195e-08
7.47887940622e-08
-1.26646919806e-08
8.34389806423e-08
-1.38059565383e-08
9.28117205854e-08
-1.49315484549e-08
1.03003851569e-07
-1.60340750992e-08
1.13942143589e-07
-1.71134694734e-08
1.25651051026e-07
-1.81671678937e-08
1.38089938389e-07
-1.91904064212e-08
1.51199299447e-07
-2.01840635975e-08
1.64984559163e-07
-2.11398493894e-08
1.79303096405e-07
-2.20627902645e-08
1.94204354705e-07
-2.29418412879e-08
2.09488124096e-07
-2.37823010347e-08
2.25235806618e-07
-2.45723291616e-08
2.41205857763e-07
-2.53237633966e-08
2.57484111735e-07
-2.6012390672e-08
2.73873808175e-07
-2.66440794433e-08
2.90419505158e-07
-2.72125505438e-08
3.06978996426e-07
-2.77109517928e-08
3.23565159979e-07
-2.81317587662e-08
3.40087966908e-07
-2.84766250227e-08
3.56514604921e-07
-2.87408465303e-08
3.72830640816e-07
-2.89188700609e-08
3.88954010241e-07
-2.90186116514e-08
4.04918394551e-07
-2.9034310229e-08
4.20598668427e-07
-2.89791593416e-08
4.36078792574e-07
-2.88435802425e-08
4.51259501242e-07
-2.86866271052e-08
4.66474378724e-07
-2.86231039503e-08
4.81607114834e-07
-2.83829435928e-08
4.96502913933e-07
-2.79498650695e-08
5.10970846557e-07
-2.74632743013e-08
5.24949042934e-07
-2.68632703373e-08
5.3825552973e-07
-2.6169974156e-08
5.50809066329e-07
-2.53831596111e-08
5.62489595632e-07
-2.45180933427e-08
5.7322147263e-07
-2.35747573369e-08
5.82928496546e-07
-2.25618122106e-08
5.91562814662e-07
-2.14852601702e-08
5.99079725617e-07
-2.03618440858e-08
6.05465994422e-07
-1.91994449723e-08
6.10716404903e-07
-1.80125272329e-08
6.14837079904e-07
-1.68237470631e-08
6.17848983319e-07
-1.5644440867e-08
6.19769042809e-07
-1.44972821064e-08
6.20623845128e-07
-1.33971928671e-08
6.20390954943e-07
-1.23773747903e-08