/*--------------------------------*- C++ -*----------------------------------*\
| =========                 |                                                 |
| \\      /  F ield         | OpenFOAM: The Open Source CFD Toolbox           |
|  \\    /   O peration     | Version:  v1806                                 |
|   \\  /    A nd           | Web:      www.OpenFOAM.com                      |
|    \\/     M anipulation  |                                                 |
\*---------------------------------------------------------------------------*/
FoamFile
{
    version     2.0;
    format      ascii;
    class       volVectorField;
    location    "17";
    object      U;
}
// * * * * * * * * * * * * * * * * * * * * * * * * * * * * * * * * * * * * * //

dimensions      [0 1 -1 0 0 0 0];


internalField   nonuniform List<vector> 
12225
(
(9.73892029598 0.039934175266 0)
(9.50291272939 0.0407311658346 0)
(9.24722099221 0.0401074520616 0)
(8.99649712691 0.0404054155007 0)
(8.75885262593 0.0403614892341 0)
(8.53302652238 0.0399381628958 0)
(8.31730066915 0.0393748955402 0)
(8.11097198631 0.0387940029852 0)
(7.91358659128 0.038234400305 0)
(7.72450442771 0.037718127024 0)
(7.54290866652 0.0372739239513 0)
(7.36790376164 0.0369384196155 0)
(7.1985350852 0.036756519708 0)
(7.03373076979 0.0367890993839 0)
(6.87216276149 0.0371368460839 0)
(6.71190087272 0.0380191529881 0)
(6.55004822181 0.0401525245295 0)
(6.37068258472 0.0400553404613 0)
(10.0165389395 0.0713080094441 0)
(10.0365677247 0.0696519202916 0)
(10.0239865634 0.066901822021 0)
(9.99611836626 0.0676712343583 0)
(9.96222870735 0.0684380163174 0)
(9.92337792518 0.0687598233118 0)
(9.87963900142 0.0690231697433 0)
(9.83168644073 0.069401049781 0)
(9.78025886998 0.0699063204864 0)
(9.72581023577 0.0705442597404 0)
(9.66852468906 0.0713600055278 0)
(9.60840387355 0.0724344484954 0)
(9.54528907066 0.0738814992844 0)
(9.47881043008 0.0758677342069 0)
(9.40826929323 0.0786748200043 0)
(9.3323780486 0.0828703308183 0)
(9.24986842137 0.0899113409059 0)
(9.14976760598 0.104814368052 0)
(10.0212299701 0.0580617430967 0)
(10.0533563563 0.0580007061141 0)
(10.0673919471 0.0562722251937 0)
(10.0715798891 0.0588895121688 0)
(10.073115523 0.0616697407306 0)
(10.072550952 0.0638446254486 0)
(10.0692579125 0.0658769508555 0)
(10.0632163695 0.0680046052797 0)
(10.0546312491 0.0702522338819 0)
(10.0435761472 0.0726396865815 0)
(10.0299689209 0.0752511773441 0)
(10.0136400908 0.078228557215 0)
(9.99435573717 0.0817669348285 0)
(9.97178671575 0.0861445748035 0)
(9.94545741393 0.0918103743553 0)
(9.91469554623 0.0995746935279 0)
(9.87937828452 0.111041446387 0)
(9.83511863349 0.127621577692 0)
(10.0159843358 0.047615939933 0)
(10.0432208573 0.0550377338952 0)
(10.0591016396 0.0566393529984 0)
(10.0664715208 0.060573384022 0)
(10.0716049921 0.0642350831666 0)
(10.0756034355 0.0670208629652 0)
(10.0779577802 0.0695006077424 0)
(10.0785408017 0.0720274505564 0)
(10.0774702051 0.0746951747909 0)
(10.0747794404 0.0775667241019 0)
(10.0703675241 0.0807653427987 0)
(10.0640618255 0.084474504579 0)
(10.055656674 0.0889357234755 0)
(10.0449134606 0.0944806418771 0)
(10.0315640551 0.101611828013 0)
(10.0153645432 0.111134860158 0)
(9.99664825882 0.124344367864 0)
(9.97394677992 0.142007558572 0)
(10.011637348 0.0395317303208 0)
(10.0337036584 0.0509736354732 0)
(10.048823652 0.053847405804 0)
(10.0565212955 0.0575194933193 0)
(10.0617894175 0.0611516079311 0)
(10.0660469267 0.0641497795454 0)
(10.068943355 0.0669272254448 0)
(10.0703076208 0.069824368076 0)
(10.0702285341 0.0729580936952 0)
(10.0687609644 0.0764053979738 0)
(10.0658453349 0.0802989154464 0)
(10.0613566916 0.0848346282123 0)
(10.0551524236 0.0902712114756 0)
(10.0470936136 0.0969567856663 0)
(10.0370754099 0.105388469255 0)
(10.0251074165 0.116284695467 0)
(10.0116637069 0.130631670741 0)
(9.99644681436 0.149038798887 0)
(10.0084657325 0.0330825026175 0)
(10.0261535431 0.0466578745079 0)
(10.0400534326 0.0512091421669 0)
(10.047838771 0.0554663462568 0)
(10.0530730712 0.0597630353845 0)
(10.0572475414 0.0635161320717 0)
(10.0601756629 0.0669715211621 0)
(10.0616725532 0.0704738413585 0)
(10.0617976928 0.074201411128 0)
(10.0606181867 0.0782744170577 0)
(10.0581092557 0.0828484421247 0)
(10.0541883811 0.0881350688663 0)
(10.048767295 0.09440551597 0)
(10.0417867188 0.102009782979 0)
(10.0332574311 0.111412684519 0)
(10.0233363133 0.123221096896 0)
(10.0125445731 0.138161610994 0)
(10.0010550557 0.156702390992 0)
(10.0061389857 0.0279557118143 0)
(10.0202261988 0.0424426560039 0)
(10.0326927495 0.0485083190565 0)
(10.0403742852 0.0533105581827 0)
(10.0455380855 0.057968950921 0)
(10.0495855046 0.0621165118186 0)
(10.0524880718 0.065938363354 0)
(10.0540750472 0.0697957244038 0)
(10.0543752911 0.073922346511 0)
(10.0534552954 0.078471843946 0)
(10.0513160468 0.083609274245 0)
(10.0479126606 0.0895462037139 0)
(10.043205334 0.096548696569 0)
(10.0372003208 0.104947637289 0)
(10.0299918896 0.115153290033 0)
(10.0218220726 0.127652091976 0)
(10.01321206 0.142955220344 0)
(10.0044657308 0.161357228712 0)
(10.0044590691 0.0238756292762 0)
(10.0156351646 0.0384647200839 0)
(10.026598739 0.045734469336 0)
(10.0340144399 0.051111203138 0)
(10.039103411 0.0561462159098 0)
(10.0430596977 0.060749842459 0)
(10.0459705875 0.0650735597129 0)
(10.0476928319 0.06945041219 0)
(10.0482276937 0.0741295465556 0)
(10.047634874 0.0792794363999 0)
(10.0459374488 0.0850671053622 0)
(10.0431276163 0.0916984903841 0)
(10.0392113709 0.0994267621066 0)
(10.0342495296 0.108553242337 0)
(10.0283949307 0.119424975462 0)
(10.0219336888 0.132413980796 0)
(10.0153592029 0.147860220842 0)
(10.009022891 0.165907456693 0)
(10.0032492644 0.0206134145284 0)
(10.0121081611 0.0348075659102 0)
(10.0216090739 0.0429402815335 0)
(10.0286316815 0.0488778599051 0)
(10.0336267039 0.0542781034931 0)
(10.0375179056 0.0592931587145 0)
(10.0404568452 0.0640678302591 0)
(10.0423364753 0.0688983347995 0)
(10.0431417163 0.0740399714881 0)
(10.0429260619 0.0796792720059 0)
(10.0417323612 0.0859913468921 0)
(10.0395873793 0.0931775974914 0)
(10.0365372722 0.101473296766 0)
(10.0326843937 0.111142244458 0)
(10.0282171245 0.122464515845 0)
(10.0234344551 0.135708917068 0)
(10.018779594 0.15108269841 0)
(10.0145992776 0.168617160259 0)
(10.0023814112 0.0179847288571 0)
(10.0094222283 0.0315013635166 0)
(10.0175743459 0.0401679435568 0)
(10.0241204809 0.0466000018445 0)
(10.0289971941 0.0523448224207 0)
(10.0328490071 0.0577327323952 0)
(10.0358452704 0.0629297784879 0)
(10.0379159693 0.0682018963865 0)
(10.0390402333 0.0738015486765 0)
(10.039265965 0.0799255776478 0)
(10.0386505882 0.0867503690846 0)
(10.0372487915 0.0944639038598 0)
(10.0351378709 0.103272970626 0)
(10.0324477985 0.113395451161 0)
(10.0293829256 0.125043826286 0)
(10.0262338142 0.1383979839 0)
(10.0233846354 0.153566042043 0)
(10.0211852922 0.17050597306 0)
(10.0017584382 0.0158467108458 0)
(10.007391249 0.0285543764312 0)
(10.0143523085 0.037472804764 0)
(10.0203867109 0.0442937473819 0)
(10.0251264082 0.0503435472989 0)
(10.0289645386 0.0560570161683 0)
(10.0320521543 0.0616306327571 0)
(10.0343495132 0.0673048513313 0)
(10.0358372651 0.0733187599451 0)
(10.0365588021 0.0798685323416 0)
(10.0365809962 0.0871247721173 0)
(10.0359791201 0.0952570427768 0)
(10.0348525953 0.104440381688 0)
(10.0333468997 0.114847058911 0)
(10.0316675014 0.126629940615 0)
(10.0300827487 0.139898704446 0)
(10.0289132546 0.15469272721 0)
(10.0285066005 0.170928966491 0)
(10.0013459005 0.0141936897358 0)
(10.0059926702 0.0261122433362 0)
(10.0120203761 0.0350706405107 0)
(10.0175899077 0.0421500765556 0)
(10.0221971074 0.0484383701705 0)
(10.0260475384 0.0544085870947 0)
(10.0292541913 0.0602828445362 0)
(10.031795427 0.0662830040345 0)
(10.0336568907 0.0726311489379 0)
(10.0348790783 0.079515992186 0)
(10.0355332186 0.0870987351273 0)
(10.035706331 0.0955298737423 0)
(10.035509388 0.104954623342 0)
(10.0350920233 0.115505452748 0)
(10.0346502972 0.127287133572 0)
(10.0344251375 0.140358286726 0)
(10.0346831667 0.154713200001 0)
(10.0357801106 0.170246829736 0)
(10.0010403653 0.0128147686771 0)
(10.0049185682 0.0239340285438 0)
(10.0101593568 0.0327607670329 0)
(10.0152940156 0.0399809651183 0)
(10.0197697246 0.0464489879519 0)
(10.0236485947 0.0526245527842 0)
(10.026998458 0.0587443478769 0)
(10.0298075053 0.0650158299264 0)
(10.0320676559 0.0716414457599 0)
(10.0338177895 0.0787965805478 0)
(10.0351307303 0.0866286738354 0)
(10.0360998017 0.0952676841185 0)
(10.0368413176 0.10482969982 0)
(10.0375025442 0.11541104981 0)
(10.038264776 0.127076142654 0)
(10.0393387745 0.139844164261 0)
(10.0409382448 0.153677812694 0)
(10.0434303399 0.168457555776 0)
(10.0007897254 0.0114576737262 0)
(10.0040170629 0.0216822519338 0)
(10.0085488942 0.0302187941535 0)
(10.0132628487 0.0374713146473 0)
(10.017618024 0.0440643212442 0)
(10.0215669293 0.0504070468241 0)
(10.0251269789 0.0567364579013 0)
(10.0282876839 0.0632438433158 0)
(10.0310460619 0.0701077620356 0)
(10.0334388313 0.0774831623016 0)
(10.0355365249 0.0854978170757 0)
(10.037432359 0.0942569019903 0)
(10.0392400805 0.103845464443 0)
(10.0410963027 0.114323629579 0)
(10.0431593557 0.125719233521 0)
(10.0456039345 0.138018723445 0)
(10.0485895781 0.151163218689 0)
(10.0525014233 0.165031344541 0)
(10.0005972675 0.0101192155875 0)
(10.0033155595 0.0193642079998 0)
(10.0072632049 0.0274340470915 0)
(10.0116154497 0.0345571452937 0)
(10.0158876377 0.0411618064575 0)
(10.0199641907 0.0475822017489 0)
(10.0238156861 0.0540363524277 0)
(10.027425179 0.0606938984486 0)
(10.0307914071 0.0677050307629 0)
(10.0339471994 0.0751977866868 0)
(10.0369562989 0.0832741737138 0)
(10.039904415 0.0920115029101 0)
(10.0428941433 0.101463084339 0)
(10.0460431495 0.111656251919 0)
(10.0494803298 0.122587723258 0)
(10.0533408789 0.134220534185 0)
(10.0577314389 0.146482836469 0)
(10.0630600363 0.15925844724 0)
(10.0004647861 0.00876756412751 0)
(10.0028316089 0.0169334953906 0)
(10.0063662741 0.0243413971669 0)
(10.0104751995 0.0311287531355 0)
(10.0147490402 0.0375739595808 0)
(10.0190416894 0.0439257078176 0)
(10.0232877452 0.050364261664 0)
(10.0274585544 0.0570291235301 0)
(10.0315495501 0.0640373984513 0)
(10.0355862122 0.0714849844025 0)
(10.039620431 0.0794436793178 0)
(10.0437228242 0.0879612221854 0)
(10.0479768174 0.0970613726473 0)
(10.0524741546 0.106743753123 0)
(10.0573102766 0.116982358818 0)
(10.0625804149 0.127725647548 0)
(10.0683422095 0.138898170529 0)
(10.0750309073 0.15039421965 0)
(10.0003923403 0.00733085948489 0)
(10.0025755741 0.014270025598 0)
(10.0059092168 0.0207843874591 0)
(10.0099553218 0.0269751660994 0)
(10.0143723181 0.0330153525089 0)
(10.019008534 0.0390703846785 0)
(10.023775835 0.0452700353188 0)
(10.0286322731 0.0517150374047 0)
(10.03356458 0.0584856218559 0)
(10.038586287 0.065642499742 0)
(10.043732231 0.0732259501113 0)
(10.0490519081 0.0812551254804 0)
(10.0546033368 0.089729051519 0)
(10.0604483596 0.0986266819136 0)
(10.0666478007 0.107908462583 0)
(10.0732597556 0.117517050423 0)
(10.0802991046 0.127381181306 0)
(10.0882304609 0.137410257137 0)
(10.0003790893 0.00568004726168 0)
(10.0025561382 0.01114837163 0)
(10.0059366062 0.0164732199076 0)
(10.0101586384 0.0217456251929 0)
(10.0149179885 0.0270633808132 0)
(10.0200651516 0.0325159740736 0)
(10.0254997673 0.0381763322834 0)
(10.0311675185 0.0441005911165 0)
(10.0370425043 0.0503292727073 0)
(10.0431222818 0.0568876077654 0)
(10.0494212669 0.0637853499356 0)
(10.0559646644 0.0710169320929 0)
(10.0627829918 0.0785621405696 0)
(10.0699080426 0.0863871784555 0)
(10.0773689319 0.094446245059 0)
(10.0851922594 0.102683460849 0)
(10.0933591703 0.111035664719 0)
(10.1023632962 0.119429155196 0)
(10.0004407351 0.00356773932197 0)
(10.0028293826 0.00711753296984 0)
(10.0065705005 0.0108147892692 0)
(10.0112839968 0.0147405751317 0)
(10.0166539861 0.0189186129405 0)
(10.0225276506 0.023360377891 0)
(10.0287996328 0.028078803968 0)
(10.0354058711 0.0330831512311 0)
(10.0423063559 0.038374513793 0)
(10.0494812388 0.0439447283602 0)
(10.0569245497 0.0497773574344 0)
(10.0646383494 0.0558475991371 0)
(10.0726278338 0.0621229027591 0)
(10.0808983192 0.068563358967 0)
(10.0894524072 0.0751233298814 0)
(10.0982915961 0.0817528105676 0)
(10.1073709222 0.0883996700657 0)
(10.1172086692 0.0950072465168 0)
(10.0005878148 0.00127173828219 0)
(10.0034082473 0.00274618781423 0)
(10.007806479 0.00469949658732 0)
(10.0132568116 0.00718156850593 0)
(10.0193771204 0.0101176443266 0)
(10.0260145736 0.0134364461884 0)
(10.033075825 0.0170978133339 0)
(10.0404966734 0.0210730809194 0)
(10.0482285803 0.0253320510297 0)
(10.056241465 0.0298426590276 0)
(10.0645183831 0.0345718972178 0)
(10.0730486633 0.0394855043868 0)
(10.0818230585 0.0445465097113 0)
(10.0908319316 0.0497153905712 0)
(10.1000637792 0.05495051295 0)
(10.1095078269 0.0602099487981 0)
(10.1191078355 0.0654523921379 0)
(10.1293889083 0.0706363155326 0)
(10.0007784164 -0.000963179442496 0)
(10.0041599703 -0.00142603482481 0)
(10.0093557075 -0.000980443014898 0)
(10.0155997995 0.00032157032064 0)
(10.022428441 0.0022521661582 0)
(10.0297185082 0.00465510265317 0)
(10.0374116601 0.00745108614861 0)
(10.0454516353 0.0105836971275 0)
(10.0537878064 0.0139977961819 0)
(10.0623889076 0.0176436621324 0)
(10.0712368619 0.0214783993353 0)
(10.0803170747 0.02546347035 0)
(10.0896137131 0.0295607794892 0)
(10.0991096222 0.0337323791308 0)
(10.1087867642 0.037940080346 0)
(10.1186294903 0.0421470743256 0)
(10.1285780341 0.0463178431823 0)
(10.1391739478 0.0504174194578 0)
(10.0010695796 -0.00340103385817 0)
(10.0052698175 -0.00581197385665 0)
(10.0115081797 -0.00668221038452 0)
(10.0186476952 -0.00633181840977 0)
(10.0261733233 -0.00522620115773 0)
(10.0340580554 -0.0035944319583 0)
(10.0422981786 -0.00152747237528 0)
(10.050843297 0.000899226415047 0)
(10.0596418398 0.003611482088 0)
(10.0686684743 0.00654836252468 0)
(10.0779115038 0.00966211206893 0)
(10.0873567248 0.0129127195705 0)
(10.0969851938 0.0162616253581 0)
(10.1067756015 0.0196706367177 0)
(10.116705872 0.0231033403618 0)
(10.1267564836 0.0265254696829 0)
(10.1368631376 0.0299063330408 0)
(10.1475625822 0.033217327593 0)
(10.0015313422 -0.00619062984846 0)
(10.006921339 -0.0105405240891 0)
(10.0144785117 -0.01243670977 0)
(10.0225610473 -0.0127711757452 0)
(10.0307229689 -0.0123148966238 0)
(10.0391328352 -0.0113194737222 0)
(10.0478541351 -0.00987306580138 0)
(10.0568342456 -0.00807645440818 0)
(10.066024959 -0.00602433788098 0)
(10.0754129688 -0.00377919870223 0)
(10.0849920396 -0.00137950006292 0)
(10.0947474065 0.00114181359109 0)
(10.1046560641 0.00375190780633 0)
(10.1146937313 0.00641714297925 0)
(10.1248383005 0.00910326926708 0)
(10.1350712932 0.0117792012434 0)
(10.1453319804 0.01441523771 0)
(10.1561784371 0.0169821317416 0)
(10.0022618207 -0.00952956328523 0)
(10.0093755841 -0.0156887262465 0)
(10.018534185 -0.0181658270723 0)
(10.0275213738 -0.0188913763884 0)
(10.0362084971 -0.0189015694564 0)
(10.0450524888 -0.0183527987628 0)
(10.0541536641 -0.0173058570469 0)
(10.0634409429 -0.01589520443 0)
(10.0728816593 -0.0142397735007 0)
(10.0824892682 -0.0124086188948 0)
(10.0922721064 -0.010441944728 0)
(10.1022164896 -0.00837195467941 0)
(10.1122959116 -0.00622970127208 0)
(10.1224817096 -0.00404466729649 0)
(10.1327450832 -0.00184336338459 0)
(10.1430619415 0.000346093466428 0)
(10.1533634871 0.0024942058084 0)
(10.1641857318 0.00457039808801 0)
(10.0034813135 -0.0137019055037 0)
(10.0130463292 -0.0212815537914 0)
(10.0240173229 -0.0237652820153 0)
(10.0337651712 -0.0246824244716 0)
(10.0428788544 -0.0251440293986 0)
(10.0521461409 -0.0251031862568 0)
(10.0616321275 -0.0245914194623 0)
(10.0712255009 -0.0237549536937 0)
(10.0809132897 -0.0226984743211 0)
(10.0907356508 -0.0214709684236 0)
(10.1007117012 -0.0201027476087 0)
(10.1108289751 -0.0186239025199 0)
(10.1210607641 -0.0170640286849 0)
(10.1313788111 -0.0154487774612 0)
(10.1417547706 -0.0138004366261 0)
(10.1521617975 -0.0121422922546 0)
(10.1625290463 -0.0105053943829 0)
(10.1734180647 -0.00893586494037 0)
(10.005363865 -0.0190714223455 0)
(10.0183035862 -0.0271977305793 0)
(10.0311115007 -0.028992461672 0)
(10.0412979963 -0.0297264400037 0)
(10.0506249705 -0.0301347303656 0)
(10.0601598922 -0.0299988209396 0)
(10.0698766456 -0.0294501432233 0)
(10.0796425461 -0.0286861272639 0)
(10.0894780754 -0.0277903804077 0)
(10.0994422336 -0.0267810388326 0)
(10.1095530851 -0.0256720349777 0)
(10.1197934427 -0.0244869589656 0)
(10.1301359708 -0.0232499285834 0)
(10.1405539149 -0.0219779454743 0)
(10.1510175905 -0.0206812147644 0)
(10.1614896724 -0.0193694338348 0)
(10.1718732378 -0.0180656149177 0)
(10.1826583072 -0.0168277903024 0)
(10.0085116984 -0.0261239236962 0)
(10.0259327854 -0.0332735033794 0)
(10.0404351265 -0.0344852285802 0)
(10.0509048165 -0.0359625991439 0)
(10.060510164 -0.0371576439168 0)
(10.0703416678 -0.037594697654 0)
(10.0802319132 -0.0375390516901 0)
(10.0900784516 -0.0372492962986 0)
(10.0999626053 -0.0368037853659 0)
(10.1099633852 -0.0362110245628 0)
(10.1200944613 -0.0354866851008 0)
(10.1303343543 -0.034661201684 0)
(10.1406585962 -0.0337644297243 0)
(10.1510472342 -0.0328148655303 0)
(10.1614761517 -0.0318174396083 0)
(10.1719057319 -0.0307674307298 0)
(10.1822184327 -0.029667189271 0)
(10.1928561155 -0.0285744604851 0)
(10.0128335184 -0.0353495403808 0)
(10.035483816 -0.037563172794 0)
(10.0504226601 -0.0357377757821 0)
(10.0602507209 -0.0362735092334 0)
(10.0695116836 -0.0370831968212 0)
(10.0789351477 -0.0373908395544 0)
(10.0881507179 -0.0374278503411 0)
(10.0971084907 -0.0373874557921 0)
(10.1059598591 -0.0372859932936 0)
(10.1148084312 -0.0370927520516 0)
(10.1236729269 -0.0367992598173 0)
(10.1325402438 -0.0364193116281 0)
(10.1414025933 -0.0359707612485 0)
(10.1502622537 -0.0354625270827 0)
(10.1591194861 -0.0348873747673 0)
(10.1679540813 -0.0342133459178 0)
(10.1766381416 -0.0333757489245 0)
(10.1853544341 -0.0322709312978 0)
(10.0163021565 -0.0493303684978 0)
(10.03983773 -0.0508501635404 0)
(10.0460136179 -0.0486576820513 0)
(10.0444232033 -0.0486627994679 0)
(10.0412911252 -0.0487723805214 0)
(10.0372214794 -0.0484629892183 0)
(10.0319551766 -0.0479816783478 0)
(10.0257266651 -0.0474880368519 0)
(10.0189350051 -0.0469952163859 0)
(10.0118614824 -0.0464799648389 0)
(10.0046603949 -0.0459331724173 0)
(9.99743346088 -0.0453603692415 0)
(9.9902739272 -0.044769656606 0)
(9.98327491024 -0.0441627131842 0)
(9.97652494221 -0.0435276737755 0)
(9.97010785938 -0.0428209924618 0)
(9.96406044098 -0.0419270588341 0)
(9.95832875015 -0.0401621072817 0)
(9.85277031006 -0.0292015651553 0)
(9.72366412069 -0.0315497460981 0)
(9.57946463507 -0.0315954440612 0)
(9.43659188619 -0.0321575255444 0)
(9.30157042669 -0.0324612976331 0)
(9.17396989914 -0.0324043201021 0)
(9.0527641776 -0.0321542079311 0)
(8.93764752512 -0.031817062226 0)
(8.82854514146 -0.0314273307266 0)
(8.72528063613 -0.0309960589844 0)
(8.6275720361 -0.0305333708828 0)
(8.53511842587 -0.030050839401 0)
(8.44764898133 -0.0295582821215 0)
(8.36492811108 -0.0290612395046 0)
(8.28674885574 -0.0285584103615 0)
(8.2129360953 -0.0280312475738 0)
(8.14358415488 -0.0274128656508 0)
(8.0770289014 -0.0260528806426 0)
(0.0297956005975 -0.113802953363 1.97626822741e-19)
(0.0639761967603 -0.113286941297 0)
(0.094168985314 -0.114981860486 0)
(0.0861353437722 -0.0779960745537 0)
(0.0481838617885 0.0168713094852 0)
(-0.0820000461139 0.131761416624 -1.39191252267e-19)
(-0.195561723106 0.14802130114 0)
(-0.319572763819 0.154542411021 0)
(-0.451393859984 0.1601238267 4.62619840996e-20)
(-0.589996868122 0.164805582223 0)
(-0.734515226371 0.168551074957 -3.23412477224e-20)
(-0.884168229645 0.171435114053 0)
(-1.03824994147 0.173558635735 -2.57079762687e-20)
(-1.19613250514 0.175021728175 -2.36935223399e-20)
(-1.35725570829 0.175915269156 0)
(-1.52112499075 0.176320314138 2.11282212122e-20)
(-1.68730254869 0.176307850326 2.03379764283e-20)
(-1.8554042338 0.175940345051 1.97750865937e-20)
(-2.02509235783 0.175271956747 0)
(-2.19607224585 0.17434999813 0)
(-2.36808594448 0.173214878944 0)
(-2.54090862949 0.171901297217 0)
(-2.71434289104 0.17043801664 0)
(-2.88821523398 0.168848914945 0)
(-3.06237071119 0.167152617687 -1.92599659494e-20)
(-3.23666947826 0.16536347497 -1.94518892196e-20)
(-3.41098146774 0.16349116318 0)
(-3.58518302494 0.161541572161 1.9936882572e-20)
(-3.75915183362 0.159516421142 2.0219272077e-20)
(-3.93276366725 0.157414114151 2.05224774413e-20)
(-4.10588743119 0.155229437448 0)
(-4.27838198977 0.152954454089 0)
(-4.45009158462 0.15057830208 -2.15240653699e-20)
(-4.62084313725 0.148088148402 0)
(-4.79044231753 0.145469188925 0)
(-4.95867143857 0.142705743706 -2.260835177e-20)
(-5.12528672793 0.139781418251 0)
(-5.29001777338 0.136680337647 0)
(-5.45256662954 0.133387472408 0)
(-5.6126091946 0.129889880219 0)
(-5.76979643007 0.126177060688 0)
(-5.9237578642 0.122242132639 4.95988330529e-20)
(-6.07410521895 0.118082187769 0)
(-6.22043859756 0.113699211879 0)
(-6.36235271897 0.10910007178 5.16088588145e-20)
(-6.49944499835 0.104296693728 5.22274914464e-20)
(-6.63132239259 0.0993056064814 0)
(-6.75760898559 0.0941475716519 0)
(-6.87795162161 0.0888468857364 5.38808614021e-20)
(-6.99202542895 0.083430446904 0)
(-7.099536915 0.0779269365935 -5.4782963114e-20)
(-7.20022739786 0.0723655390453 0)
(-7.29387499115 0.0667749910696 5.54994217213e-20)
(-7.38029701222 0.0611818486666 0)
(-7.45935108281 0.055609883137 5.60130494604e-20)
(-7.53093430606 0.0500795231575 5.61898179036e-20)
(-7.59498080232 0.0446086018771 0)
(-7.65145509436 0.0392119948804 0)
(-7.70034617376 0.0339027347995 0)
(-7.7416649189 0.028693060014 5.63392269249e-20)
(-7.77544857632 0.0235977658316 0)
(-7.80177983355 0.0186291966102 0)
(-7.82078638048 0.0137868450866 0)
(-7.83263054141 0.00905928257471 0)
(-7.83749693647 0.00446990961789 0)
(-7.83565816859 0.0001133837041 0)
(-7.82750952212 -0.00391957026424 0)
(-7.81349807971 -0.00760214903444 -5.37264834187e-20)
(-7.79410143033 -0.0109345762968 0)
(-7.76978785381 -0.0139353309659 -5.25073346729e-20)
(-7.74099262258 -0.0166374729242 -5.18349744382e-20)
(-7.70809522635 -0.0190862215805 0)
(-7.67139903894 -0.0213385010957 5.03701188591e-20)
(-7.63111289172 -0.0234617170286 0)
(-7.58733610601 -0.0255340425789 -4.87391103642e-20)
(-7.54004439417 -0.027643270121 0)
(-7.4890758661 -0.0298877961629 4.69114335845e-20)
(-7.43411280983 -0.0323751984293 -4.59044549688e-20)
(-7.37465696863 -0.0352230202703 0)
(-7.30999504467 -0.0385570810975 0)
(-7.23915919439 -0.0425114081968 0)
(-7.16088812403 -0.0472208570466 0)
(-7.07359929246 -0.0528135601723 -3.92607710356e-20)
(-6.97538600103 -0.059396239139 3.74078494246e-20)
(-6.86406431889 -0.0670399288737 -7.05680286168e-20)
(-6.73728626842 -0.0757549971219 -6.56762986878e-20)
(-6.5927107916 -0.0854732366682 -6.00357517752e-20)
(-6.42821022956 -0.0960327835883 0)
(-6.24208677286 -0.107183825985 0)
(-6.03328628114 -0.11859809004 0)
(-5.80155306309 -0.12989577547 -2.80715536803e-20)
(-5.54751449305 -0.140688275584 0)
(-5.27267043289 -0.150608987567 0)
(-4.97931227249 -0.159337421395 7.93154733061e-21)
(-4.67038106439 -0.166610738731 0)
(-4.34927474469 -0.172233474203 -3.88885313529e-20)
(-4.01965048122 -0.176066682795 0)
(-3.68519716204 -0.178012629058 7.69287901684e-20)
(-3.34948089884 -0.177977155556 0)
(-3.01574246181 -0.175878418644 0)
(-2.68679288543 -0.171643922276 0)
(-2.36502987537 -0.165315594433 1.88169028107e-19)
(-2.05230297744 -0.157108320659 0)
(-1.75013159064 -0.147908195131 2.7854570767e-19)
(-1.45939095268 -0.139427506029 3.41278458974e-19)
(-1.18102487151 -0.133785311652 0)
(-0.917252946026 -0.132938280202 0)
(-0.667573344466 -0.137556108885 0)
(-0.427559661425 -0.149631648145 9.76001936726e-19)
(-0.196671348611 -0.16855551919 0)
(0.0423145640807 -0.175864404803 0)
(0.267297254258 -0.152205730481 1.68778620728e-18)
(0.443539193729 -0.126975003774 1.10161016846e-18)
(0.611696987821 -0.106099039229 0)
(0.768906761174 -0.0895823516123 -6.98739471649e-19)
(0.913252229885 -0.0763133021102 -6.04523855716e-19)
(1.04462953393 -0.0653814628489 5.38519389958e-19)
(1.16358379536 -0.0561527225004 0)
(1.27084302742 -0.0482133222 0)
(1.3671498592 -0.0412809616412 0)
(1.45321913692 -0.0351669548773 -3.99718235372e-19)
(1.52971529578 -0.0297330683114 0)
(1.59725538839 -0.0248821618992 -3.64971621246e-19)
(1.65641111925 -0.0205345019579 0)
(1.70772593819 -0.0166322785434 0)
(1.75171530994 -0.0131218501182 0)
(1.78887610443 -0.00996340956667 3.25267909811e-19)
(1.81967783273 -0.00711866635152 3.19344887392e-19)
(1.84457099522 -0.00456455673117 0)
(1.86398384406 -0.00228443684301 0)
(1.87833705624 -0.000285644474627 0)
(1.88804877142 0.00140403111782 0)
(1.89360033431 0.00275461930662 0)
(1.89604178386 0.00380346858029 0)
(1.89561631858 0.00465378900598 6.04295813428e-19)
(1.89252370351 0.00537272223491 0)
(1.88696745351 0.00598213100116 0)
(1.87916085655 0.00649404483498 0)
(1.8693167304 0.00691816841741 -6.06600717106e-19)
(1.85763561438 0.00726511995066 -6.09154924022e-19)
(1.84430497103 0.00754348722421 6.12385907227e-19)
(1.82949590208 0.00776162185574 6.16250104817e-19)
(1.81336341248 0.00792636621601 0)
(1.79604701936 0.00804317771629 0)
(1.77767368087 0.00811664278644 0)
(1.75836063987 0.0081514473822 6.37357445537e-19)
(1.73821593562 0.00815169711602 0)
(1.71733921354 0.00812240064287 0)
(1.69582326051 0.00806757630481 -6.58485565114e-19)
(1.67375269244 0.00798982694244 0)
(1.6512033628 0.00789094439521 -6.74860144788e-19)
(1.62824452314 0.00777370784572 0)
(1.60494006158 0.00764096358628 -6.92977736007e-19)
(1.58134881682 0.0074943333564 0)
(1.55752411864 0.00733444038301 0)
(1.53351162993 0.00716235520573 0)
(1.50935057481 0.00698256322197 0)
(1.48507867977 0.00679875884062 0)
(1.46073025062 0.00660867538972 0)
(1.43632882328 0.00641009207319 0)
(1.41189006253 0.00620760369304 0)
(1.38743202036 0.00600871782427 -7.95658065083e-19)
(1.36296949007 0.00581472327803 0)
(1.33850562292 0.00562567489546 0)
(1.31403516161 0.0054432394515 -8.3816557604e-19)
(1.28954933505 0.0052689641618 0)
(1.26503374149 0.00510086457472 0)
(1.24045771294 0.00494027826704 -8.85827660103e-19)
(1.21577369758 0.00479846244031 0)
(1.19092334475 0.00468457167705 0)
(1.1658291975 0.00459718600443 -9.40224175374e-19)
(1.14037689354 0.00453740211831 9.60347428481e-19)
(1.11440560776 0.00451701298448 -9.81762505822e-19)
(1.08771121402 0.00456110180174 0)
(1.06002794435 0.00469776744751 0)
(1.03096974269 0.0049673410779 -2.11421675379e-18)
(0.999982782864 0.0054409111217 0)
(0.965643216901 0.00631632971628 2.24686128352e-18)
(0.931112542976 0.00773791492058 2.33288134556e-18)
(0.844613532634 0.0142584700486 0)
(-0.00311542056259 -0.126994111217 -6.08521933889e-19)
(-0.0434266544014 -0.0235065247503 0)
(-0.146193699404 0.125922492623 2.15211881309e-19)
(-0.239760037833 0.20298782686 -1.36232846794e-19)
(-0.332171165455 0.264579238091 -9.90327185831e-20)
(-0.429410813624 0.31622596113 3.92920500698e-20)
(-0.536925596632 0.349430600964 6.69420945373e-20)
(-0.655802237115 0.37454919192 0)
(-0.78431473509 0.394727012573 -2.53220891245e-20)
(-0.920481655819 0.41111191555 4.61228814591e-20)
(-1.06286758926 0.424398774347 6.30436825415e-20)
(-1.21040265806 0.435082535893 -3.93130865046e-20)
(-1.36223392367 0.443543997188 5.53218643501e-20)
(-1.51765752523 0.450093370534 1.73959035954e-20)
(-1.676078477 0.454991794599 0)
(-1.83698943073 0.458464619478 -1.63854401874e-20)
(-1.9999540256 0.460707884939 -1.61164431609e-20)
(-2.16459698122 0.461893586928 -1.59664220365e-20)
(-2.33059437745 0.462171853297 3.24519571528e-20)
(-2.49766721859 0.461673794941 0)
(-2.66557433291 0.460512333131 3.26709282477e-20)
(-2.83410715096 0.458784224256 0)
(-3.00308377064 0.456570337222 -3.33415877323e-20)
(-3.17234462378 0.453937432007 0)
(-3.34174717233 0.450938221173 5.12347284789e-20)
(-3.51116196969 0.44761292895 -1.7715680329e-20)
(-3.68046770954 0.443989254443 -3.55537431814e-20)
(-3.84954754619 0.440083770708 -5.41034313034e-20)
(-4.01828444666 0.435901787419 -1.82358455307e-20)
(-4.1865576721 0.431438688109 -1.86126344562e-20)
(-4.35423818999 0.426679878531 0)
(-4.52118524993 0.421602184548 -3.92366281391e-20)
(-4.68724212389 0.416173993824 1.98066512924e-20)
(-4.85223299229 0.410356932135 0)
(-5.01595913355 0.404106490406 0)
(-5.17819642805 0.39737415164 2.10569791328e-20)
(-5.338692679 0.390108606924 0)
(-5.49716660289 0.382258507879 0)
(-5.65330711611 0.373774261028 0)
(-5.80677446807 0.364611112099 0)
(-5.95720172371 0.354731222056 0)
(-6.10419811015 0.344106818822 4.79220779635e-20)
(-6.24735318434 0.332722309302 9.66324112902e-20)
(-6.38624342989 0.320576890781 0)
(-6.52043971855 0.307685536758 5.0260293209e-20)
(-6.64951593257 0.294079616992 -5.01794726693e-20)
(-6.77305686295 0.279806145344 0)
(-6.89066600011 0.264926612969 0)
(-7.00197214721 0.249514885787 -1.57382207045e-19)
(-7.10663459846 0.233654406462 -1.06380311818e-19)
(-7.20434798397 0.217435473372 5.33542056212e-20)
(-7.29484549509 0.200951431276 1.08508678423e-19)
(-7.37790142803 0.184295103283 5.50929732789e-20)
(-7.45333356042 0.167555012035 0)
(-7.52099938362 0.150813864622 -1.66128736591e-19)
(-7.58080661832 0.134147775768 -5.54600437165e-20)
(-7.63269919325 0.11762660049 0)
(-7.67665386227 0.101314497717 1.12538648305e-19)
(-7.71267339698 0.0852735677655 -1.12836069145e-19)
(-7.74075711703 0.0695703438495 -5.62088024488e-20)
(-7.76100158287 0.0542805074239 0)
(-7.77353233359 0.039471241643 0)
(-7.77853314122 0.0251895569573 0)
(-7.77615966099 0.0115004631401 1.12494789227e-19)
(-7.76693350404 -0.00140973510556 0)
(-7.75154101462 -0.0133383066576 -1.11002179424e-19)
(-7.73034541399 -0.0242263312636 0)
(-7.70382332813 -0.0340718341115 -5.46956365784e-20)
(-7.67241359723 -0.0429075852028 0)
(-7.63652647329 -0.0507978325008 -5.35047644669e-20)
(-7.5965333656 -0.0578361839715 -5.2851674118e-20)
(-7.55275413603 -0.0641432214598 0)
(-7.50544434302 -0.0698663975902 -5.11928687585e-20)
(-7.45478296644 -0.0751790445175 0)