/*--------------------------------*- C++ -*----------------------------------*\
| =========                 |                                                 |
| \\      /  F ield         | OpenFOAM: The Open Source CFD Toolbox           |
|  \\    /   O peration     | Version:  v1806                                 |
|   \\  /    A nd           | Web:      www.OpenFOAM.com                      |
|    \\/     M anipulation  |                                                 |
\*---------------------------------------------------------------------------*/
FoamFile
{
    version     2.0;
    format      ascii;
    class       volScalarField;
    location    "7";
    object      alpha;
}
// * * * * * * * * * * * * * * * * * * * * * * * * * * * * * * * * * * * * * //

dimensions      [0 0 -1 0 0 0 0];


internalField   nonuniform List<scalar> 
12225
(
0.391610441173
0.345484100238
0.358101820701
0.360126104032
0.371227933158
0.375836865341
0.381867266843
0.38612814284
0.388506150357
0.387825457306
0.382609934593
0.374192321965
0.367394618079
0.356144379794
0.334714214458
0.309011105264
0.277746158437
0.249019564522
0.258280778887
0.292936761751
0.328006504371
0.322460093535
0.332040576901
0.334936425076
0.339382646162
0.342541313004
0.344709020954
0.345183028989
0.342637720352
0.337301511168
0.331767167369
0.323515026073
0.308911610687
0.291382678238
0.272873457031
0.270209377774
0.352882642905
0.31668116634
0.329863189032
0.329383344464
0.338652737263
0.342216495103
0.346872372388
0.350115068331
0.352386957508
0.353198361036
0.35189350438
0.348395677806
0.343345452884
0.335567954909
0.32349206595
0.309670214672
0.297802692148
0.30258821496
0.334743622448
0.303140002538
0.328018850175
0.32261028145
0.331272529506
0.333278749562
0.336726096238
0.338967152283
0.340558440022
0.341077110913
0.340191323063
0.337762230647
0.333782932213
0.327663103143
0.31903312568
0.310111558599
0.305015694911
0.313236499807
0.342606705235
0.302980070481
0.326221751409
0.319777384875
0.327543577472
0.328544182454
0.331049103044
0.332338550654
0.333000649301
0.332712968429
0.331338199195
0.328816126548
0.325043819213
0.319840060002
0.31354186004
0.3082095542
0.307406636148
0.316232378212
0.34305644197
0.300101764243
0.323926464276
0.316119212829
0.323287617323
0.3234977881
0.325356351801
0.326029786856
0.326132526169
0.325411971696
0.323823083431
0.321368730395
0.318006397703
0.313819781271
0.309486628215
0.306850565246
0.308537166487
0.316921302447
0.343358376139
0.29840056407
0.321867792737
0.313052292629
0.319627160785
0.319165715861
0.320495607529
0.320695954702
0.320414355109
0.319447501651
0.317805470603
0.315537503352
0.312706339918
0.309552585637
0.306862974197
0.306160548661
0.309196311083
0.316915892135
0.343156208913
0.297226677536
0.32012425085
0.310527802511
0.316558918864
0.315542165516
0.316448414408
0.316295755657
0.315782718584
0.31472595085
0.313161185025
0.311176333211
0.308926545531
0.306734881332
0.305374944322
0.306013065754
0.309746100281
0.316775630148
0.342835630998
0.296581670147
0.318755481524
0.308576019859
0.314106910875
0.312618760674
0.313177116146
0.312773656438
0.312148118121
0.311111804876
0.309712153597
0.308078055236
0.306425701095
0.305106793928
0.304794944447
0.306359628969
0.310414133081
0.316851800362
0.34263486369
0.296400056483
0.317877262231
0.307274550115
0.312379775789
0.310506179187
0.310806579297
0.310248610952
0.309584964391
0.308620548594
0.30743531614
0.306195957871
0.305144831793
0.304605926986
0.305121305283
0.307305863569
0.31146460581
0.317332893785
0.343256032977
0.296453234393
0.317773778884
0.306789393052
0.311650461503
0.309552329626
0.309753884541
0.309146333452
0.308506765054
0.307667798804
0.306742144307
0.305891858236
0.305345238929
0.305372629655
0.306395891725
0.308831659368
0.312791667068
0.317999134539
0.347446661022
0.29668471529
0.319349194402
0.307784908517
0.31270086396
0.310499654979
0.310670249326
0.310046326667
0.309479435391
0.30877374159
0.307982318797
0.307280436497
0.306898268089
0.307090629887
0.308180532938
0.310459114125
0.313971532143
0.318450198442
0.350785336637
0.297441216412
0.320862349138
0.308897194896
0.313631294213
0.311258090749
0.311319314532
0.310607056247
0.309935773877
0.309131073757
0.308300298666
0.307618947339
0.307345143968
0.307658499124
0.308829118708
0.311030839146
0.314229777105
0.318192272466
0.354761825161
0.298340376709
0.322537586886
0.310054248234
0.314563601781
0.311839500004
0.311588448007
0.310647212208
0.309850216271
0.309019852425
0.308267564879
0.307779628113
0.307777665423
0.308383177397
0.309733365766
0.311935927397
0.314858254057
0.318378473779
0.359898104129
0.299319317044
0.324628241337
0.311449611794
0.315721304626
0.31258087291
0.311972901936
0.310760724874
0.30981717335
0.308999132494
0.308382117997
0.308159545516
0.308493736985
0.309390559309
0.310913912659
0.313083558993
0.315757670307
0.318820002005
0.365236756522
0.300348765046
0.326996211572
0.313137569913
0.317273472084
0.313773767028
0.312895295078
0.311478872655
0.310460169584
0.309664519763
0.309207647111
0.309199995059
0.309788888751
0.310862344255
0.312453352828
0.314512678185
0.316919853326
0.31959830302
0.370022680394
0.301260516093
0.329372148137
0.314965060717
0.319113963336
0.315396589101
0.314395551548
0.312904387802
0.311890186821
0.311184384572
0.310846187211
0.31099735138
0.311712718562
0.31285691523
0.314398385407
0.316310748119
0.318440550766
0.320807385824
0.374457841347
0.30194895366
0.331598490759
0.316754656256
0.321057053318
0.317266350486
0.316287598243
0.314819762031
0.313874045909
0.31326294755
0.313027708264
0.313273420028
0.314043514208
0.315174027193
0.316624204508
0.318372876425
0.320270513012
0.322365140662
0.376801122019
0.302036426201
0.332740030777
0.317735318444
0.322306131067
0.318648535689
0.317877243623
0.316595882429
0.315845244318
0.315418894792
0.315343690248
0.315704471093
0.316532700675
0.317651373276
0.319027356053
0.320651028039
0.322382460837
0.324276517629
0.371503195442
0.301332354041
0.331174522236
0.316975365932
0.322018810437
0.319002054056
0.318848279267
0.318194898799
0.31801087565
0.31808834064
0.318425617793
0.319091462673
0.320121787679
0.321353777839
0.322759179783
0.324337731268
0.32596383383
0.327682039223
0.367454258155
0.300305501582
0.329369552735
0.315756249486
0.321162763948
0.318658260603
0.318993020839
0.318795339251
0.319045615965
0.319480846748
0.320107298891
0.320970965941
0.322141180812
0.32343190477
0.32485267636
0.326384525218
0.327942559663
0.329545972561
0.364245925767
0.299230317316
0.327654238973
0.314540882886
0.320238896449
0.318181601945
0.318914858332
0.319112848054
0.319703481164
0.320426634562
0.321289258093
0.322314262828
0.323583785382
0.324934526569
0.326364255307
0.327877040732
0.32938272487
0.330932511496
0.360746121722
0.298035215728
0.3259230669
0.313281287232
0.319267548435
0.317645022991
0.318761561787
0.319322547788
0.320228715807
0.321229816997
0.322289779844
0.323475893842
0.324852995197
0.326278155501
0.32772663922
0.32924937939
0.330731396479
0.332234337788
0.357193802977
0.296830167343
0.324136260885
0.312044787896
0.318325334282
0.317119733948
0.318598628155
0.319508729966
0.320705624737
0.321939801008
0.32320014864
0.324526602907
0.326004234233
0.32748746987
0.328994400401
0.330539074655
0.332044811918
0.333519555938
0.353176821592
0.295510328721
0.322355964426
0.310874550664
0.317398067061
0.316623601698
0.318443130493
0.319653811767
0.321115761138
0.322579798529
0.324026407744
0.325481955742
0.327062612666
0.328625725273
0.330180117377
0.331782943401
0.333352622715
0.33490159064
0.350842816934
0.295276223881
0.319825266187
0.309357293741
0.315986026608
0.315583026521
0.31764422507
0.319107776703
0.320784056344
0.32244480706
0.324047526275
0.32561329123
0.327253212466
0.328867135946
0.330462329327
0.332081486941
0.333666722472
0.335045563394
0.333148963171
0.29042173395
0.318026674971
0.307857042923
0.314832375654
0.314881274073
0.317280730713
0.319064259631
0.321045879554
0.323020213611
0.324961777716
0.326750126349
0.328561520414
0.330363895077
0.3321172069
0.333919651585
0.33575659871
0.337857412912
0.368165301002
0.302032544649
0.308629476756
0.303669240159
0.309631847042
0.310040514311
0.312296118672
0.313919006568
0.315660085233
0.317380535005
0.318943085156
0.320379530992
0.321878494284
0.323352743848
0.324791444001
0.326333895298
0.327941753832
0.329026432664
0.215692143542
0.271351165519
0.306230048568
0.296732409036
0.303764156612
0.304504648157
0.307442435761
0.310008678487
0.312951717653
0.316129468762
0.319437595704
0.322519484908
0.325628723825
0.328851316399
0.332101521747
0.33539162309
0.338748003316
0.342055327756
0.336994207123
0.313836281643
0.314159088252
0.313162761486
0.320190682725
0.320934832383
0.323230976428
0.324959461588
0.326732472002
0.32827157415
0.329477669864
0.330597352432
0.331783299095
0.332650730017
0.333199983384
0.33364104023
0.333844977181
0.334551687136
0.47603205109
0.476390013891
0.476573656884
0.476543897285
0.476338964757
0.4760027023
0.475602064269
0.475176436469
0.474753446576
0.474351799022
0.473983599841
0.473655801709
0.473371721361
0.473132086875
0.472935812537
0.472780456609
0.472662902216
0.47257918731
0.472525536128
0.472498344745
0.472493673282
0.472508777522
0.47253982744
0.472585726898
0.472644109611
0.472715196572
0.47279709696
0.472890023144
0.472993154694
0.473107333187
0.47323223337
0.473368457086
0.473515586241
0.47367452557
0.473845065411
0.47402716764
0.474219779104
0.474423673867
0.474637704118
0.47486185074
0.475094808023
0.475335875364
0.475583472462
0.475836044678
0.476091631428
0.476347868153
0.476602374015
0.476852333982
0.477094792498
0.477327163795
0.477546984703
0.477753328366
0.477943548817
0.478114056191
0.478260126767
0.47837718661
0.478460466796
0.47850516155
0.478506523077
0.478460038736
0.47836273794
0.478215190793
0.478018890883
0.477774096496
0.477480212403
0.477137913626
0.476747758171
0.476310937576
0.475830058177
0.475307743291
0.474748239511
0.474155718431
0.473535404727
0.472892107465
0.472231168997
0.471557251997
0.470875102147
0.470189812314
0.469505732484
0.468825849145
0.468152567785
0.467489245643
0.466838018518
0.466201372993
0.465578398062
0.464971425199
0.464380131323
0.463798590008
0.463230094764
0.462671863886
0.462123759238
0.461585199819
0.461053890964
0.460556401048
0.460108653954
0.459673490192
0.459217947997
0.458755236594
0.458287338545
0.457818905856
0.457241081894
0.456571404894
0.456634021153
0.456793902333
0.456794344858
0.456543159771
0.456063581691
0.455863168695
0.455578017967
0.455322102311
0.455103902476
0.454916882368
0.4547520209
0.454602834075
0.45446497096
0.454335567501
0.454211842936
0.454090839476
0.453971914878
0.453856302205
0.45374752259
0.453646979941
0.453553514711
0.453466189177
0.453382267747
0.453300616512
0.453220632736
0.453142078364
0.453064768683
0.452988577785
0.452913289687
0.452838784804
0.45276497667
0.45269203971
0.452620098709
0.452549415451
0.452480144588
0.452412050416
0.452345705453
0.452281364722
0.45222092656
0.452163068733
0.452108651213
0.45205918442
0.45201638374
0.451982067747
0.451957348042
0.451943081267
0.45194006102
0.45194903699
0.451971202826
0.452008141127
0.452061571218
0.452133160292
0.452224831943
0.452338524129
0.452476419673
0.45264084096
0.452834852403
0.453061907011
0.453327267552
0.453636436699
0.453997489683
0.454421602315
0.454924170749
0.455522131945
0.456236391996
0.457083542772
0.45807705325
0.459240410854
0.460587533472
0.462115927459
0.46380875574
0.465625854472
0.467507188461
0.469504354648
0.471559487395
0.473585012914
0.475464911472
0.476864662067
0.476122137675
0.476378232429
0.476294276876
0.476003685707
0.475641136585
0.47526694354
0.474904069069
0.474564149897
0.474251630023
0.473968229606
0.473713924006
0.473489104535
0.473292771678
0.47312444656
0.472982626952
0.472866058721
0.472772708492
0.472700592832
0.472646994347
0.472610221989
0.472587501946
0.472577279922
0.472576993404
0.472586337361
0.47260374592
0.472630016705
0.472664174129
0.472707052885
0.472758750465
0.472820581931
0.472892626343
0.47297589178
0.473070866246
0.473178693117
0.473298983197
0.473432418737
0.473578618381
0.473737812067
0.47390943687
0.474093563524
0.474289207274
0.474495604965
0.474711343164
0.474934771232
0.475163796075
0.475395864738
0.475627889068
0.47585660264
0.476077802363
0.476286856405
0.476476745165
0.476643039258
0.476783432598
0.476895620152
0.476976524636
0.477023176694
0.477032738688
0.477000581402
0.476922000326
0.476796096942
0.476622405779
0.476399160026
0.476125787282
0.475805039972
0.475440159996
0.475033734026
0.474588119228
0.474105137984
0.47358652299
0.473033632388
0.472448311501
0.471832338796
0.471188475545
0.470519604908
0.469829167571
0.469121103853
0.468399893082
0.467670227437
0.466937067738
0.466203974937
0.465473737504
0.464749913232
0.464036466574
0.463334999538
0.462643625408
0.461967255203
0.461312071512
0.460667487506
0.460012205911
0.459362919368
0.458747633175
0.458131115245
0.4574709977
0.456795131732
0.456186111134
0.455646359767
0.455064580703
0.454615942015
0.454163061413
0.453675075196
0.453214823649
0.452604693482
0.452182478188
0.451734713102
0.451333044428
0.450922977785
0.450720069262
0.45062334787
0.450536354613
0.450420489372
0.450271117954
0.450109796278
0.449940815581
0.449767011295
0.449589251149
0.449407863632
0.44922195472
0.449030198809
0.44883242583
0.448631780049
0.448432443704
0.448236580538
0.448044635901
0.447855316709
0.447667096175
0.44747937139
0.447291811182
0.447104371823
0.446917021364
0.446729802762
0.446542691203
0.44635569948
0.446168839141
0.445982163191
0.445795535954
0.445608746094
0.445421202093
0.445232104568
0.445040801909
0.444847762918
0.444653359438
0.444456431681
0.444256647651
0.444054316063
0.44385032384
0.443645100294
0.44343808519
0.443228069605
0.44301360043
0.442793288117
0.442565724509
0.442329441427
0.442083100662
0.441825867474
0.441557688865
0.44127923922
0.440992202396
0.440699045496
0.44040340317
0.440108928728
0.439820954359
0.439545553386
0.439288542787
0.439054581591
0.438848019029
0.438672484625
0.438524726399
0.438412956262
0.43833624816
0.438293022943
0.438285039062
0.438319524865
0.438406100232
0.438545186967
0.438803788594
0.439085109772
0.43940365864
0.439743780888
0.440064387627
0.440400565443
0.475786736027
0.475853244692
0.475801976703
0.475653071235
0.475483461274
0.475330566523
0.475191522209
0.475060758572
0.474933117591
0.474807087618
0.474682648807
0.474561385389
0.474445187818
0.474336249447
0.474236207131
0.47414646875
0.474067609329
0.473999997102
0.473943141523
0.473896517493
0.473858998145
0.47383038041
0.473808845648
0.473794524323
0.473786710036
0.473785917254
0.473791678708
0.473805050714
0.473826223292
0.473856394806
0.473895959299
0.473946244476
0.474007490804
0.474080688442
0.474166081052
0.474264173658
0.474374518789
0.474497698443
0.474633185448
0.474780791143
0.474939733619
0.475109182019
0.475287824788
0.475474084699
0.47566600298
0.475861318277
0.476057278773
0.47625092847
0.476438902585
0.476617592145
0.4767816601
0.476925574011
0.477043262349
0.477130989736
0.477186002153
0.477206190434
0.477189876283
0.47713755675
0.477050377066
0.476927002947
0.476764748342
0.476560791861
0.476310461941
0.476008405892
0.475650502143
0.47523502025
0.474761869124
0.474232470498
0.473649994774
0.47301861809
0.472343840508
0.471631838337
0.470889384189
0.470123340231
0.469340442567
0.468547154738
0.467749415264
0.466952738982
0.46616200309
0.465381581386
0.464613092183
0.463858782605
0.463122284891
0.462405587471
0.461704309611
0.461016375291
0.460355206076
0.459723476229
0.459097039475
0.458465224219
0.457860479899
0.457309377043
0.456735541625
0.456157941657
0.455603498913
0.455074576832
0.45460282936
0.454282734622
0.453882142345
0.453292856517
0.452608879082
0.452139448693
0.451960546797
0.451785553423
0.45171200285
0.45157964855
0.451330113259
0.450951453096
0.450572478163
0.45023917824
0.449934264911
0.449654291462
0.449391663509
0.449142153552
0.44890249457
0.448670217997
0.448442759988
0.448218039674
0.447995514526
0.447777555205
0.447566620208
0.447363340553
0.447166482482
0.446973962656
0.446784830216
0.44659859397
0.44641494397
0.446233568844
0.446054155151
0.445876374237
0.445699879651
0.445524362282
0.445349611047
0.445175432506
0.445001589851
0.44482771344
0.444653313812
0.444478159989
0.44430234551
0.444127237356
0.443953064671
0.443779015987
0.443603983005
0.443428409658
0.443253924733
0.443081888839
0.442913151374
0.442748026475
0.442586823608
0.442429810368
0.442277381816
0.442129763112
0.441987354161
0.441850322024
0.441718526316
0.441591466867
0.441468397685
0.441348072618
0.44122901001
0.441109228211
0.44098668257
0.440859290453
0.440724887048
0.440581083173
0.440425887398
0.440257092321
0.440071258784
0.439867329658
0.439648243408
0.439417097075
0.439179519337
0.438946455987
0.438730701842
0.438557021855
0.438450509968
0.438425521231
0.438492958575
0.438648074638
0.438844912953
0.438946986787
0.475331769277
0.47538289662
0.475576594421
0.475657399921
0.475671348918
0.475669861161
0.475651257878
0.47561376386
0.475556030481
0.475478981866
0.475385220317
0.475278936855
0.475163935796
0.475044258955
0.47492306644
0.474803231647
0.474686686737
0.474574996847
0.474468706984
0.474368858455
0.474275000972
0.474187375224
0.474105620922
0.474030227201
0.473960598364
0.47389793971
0.473842349503
0.473794961058
0.473756373042
0.473728071244
0.473710775954
0.473705725623
0.473713651971
0.473735813956
0.473772087984
0.473823365724
0.473889512392
0.473970653239
0.474066186182
0.474175838997
0.4742984489
0.474432825129
0.474577150375
0.474729280673
0.474886628688
0.475046219139
0.475204560007
0.47535812484
0.475502818899
0.475634270771
0.475748269496
0.475841757071
0.475909635578
0.475947605982
0.475951731448
0.475918765253
0.475845771803
0.475731525601
0.475577778825
0.475387588626
0.475162296018
0.474902078559
0.474605375949
0.474269133055
0.473889561179
0.473462643113
0.472985293752
0.472455660361
0.471873457788
0.47124023759
0.470559337853
0.46983600589
0.46907711404
0.468290112594
0.467483007079
0.46666465266
0.465842918082
0.465023761629
0.464214445627
0.463421582132
0.462647041849
0.46188955094
0.461156259107
0.460455369106
0.459777574257
0.459113973344
0.458477452546
0.457900027853
0.457335053915
0.456770746418
0.456238473299
0.455751782039
0.455298228317
0.454860745556
0.454473294424
0.454082899251
0.453630016969
0.453095863278
0.452448343749
0.451856100373
0.451466284481
0.451340116862
0.451276374601
0.451153087641
0.451019050996
0.450768237029
0.450368721209
0.44986200726
0.449364351191
0.44893114143
0.448555319651
0.448225763301
0.447929538533
0.447657850782
0.44740435108
0.447164299855
0.446933887125
0.446710214199
0.446492698439
0.446282783026
0.446081886841
0.445889338322
0.445702550403
0.445519724378
0.445340223327
0.44516393406
0.444990727145
0.444820380358
0.444652568849
0.44448689966
0.444322939247
0.444160299362
0.443998668744
0.443837752906
0.443677194919
0.443516503199
0.443355351372
0.443193887903
0.443033123007
0.442874575789
0.442718662312
0.442563719915
0.442407764921
0.442250664594
0.44209342636
0.441936991184
0.441781710348
0.441627445108
0.441473932076
0.44132085876
0.441167982853
0.441015035942
0.440861961316
0.440708763162
0.440555505381
0.440402336722
0.440249597277
0.440097713182
0.43994737132
0.43979931692
0.439654063339
0.439512155345
0.439374098739
0.439239768033
0.439108603855
0.438979126056
0.438847982021
0.438713088552
0.438572834178
0.438424478132
0.438267220067
0.438103770901
0.437938105113
0.437777461166
0.437639039092
0.437525803071
0.437443639845
0.437383501904
0.437291664343
0.437055092626
0.474805771103
0.475211017525
0.475747239368
0.475965573841
0.476033336807
0.476064057817
0.476067825523
0.476046903289
0.475999708259
0.475927936579
0.475833878971
0.475721319758
0.475593944664
0.475455900416
0.475310422906
0.475160843562
0.475009296855
0.474858171516
0.474708595993
0.474561715539
0.474417939562
0.474278406085
0.47414263622
0.474011690652
0.473885848364
0.473766024497
0.473652660781
0.473547297929
0.47345071855
0.473364455338
0.473289424545
0.473227281033
0.473178608175
0.473144558319
0.473125641877
0.473122605947
0.473135156665
0.473163892724
0.473208269652
0.473268012324
0.473342137758
0.473429653035
0.473528905075
0.473638051482
0.473754730446
0.473876422076
0.474000014771
0.474122289485
0.474239771632
0.474348416655
0.474442737307
0.474519055263
0.47457270114
0.474599146322
0.4745948614
0.474556726024
0.474481250922
0.474366223152
0.474211499459
0.474015996109
0.47377888103
0.473499900235
0.473178096267
0.472812013694
0.472399652157
0.471938879358
0.471427710508
0.470864852756
0.470250717135
0.469586854497
0.468876499226
0.468124547409
0.467338594975
0.466525319534
0.465692413363
0.464849516958
0.464006359725
0.463167281678
0.46233680486
0.461528150654
0.460747770641
0.459985544539
0.459247361784
0.458550592341
0.457882758239
0.457228425573
0.456606670394
0.456034936722
0.45551836696
0.455020776215
0.454523952093
0.454085067437
0.453665156681
0.453278102978
0.452864257747
0.452317358836
0.451717487764
0.451125199615
0.450633615973
0.45035423406
0.450262693251
0.450260376461
0.450193020988
0.450032782338
0.449805392817
0.449476135862
0.449055439913
0.448586301686
0.448132847603
0.447727159859
0.447370351635
0.447056044749
0.446774596692
0.446518206843
0.446280760974
0.446057501047
0.445844669561
0.445639808492
0.445442628153
0.44525425409
0.445075303209
0.444904075449
0.444737745997
0.444574770746
0.444414826569
0.444258003087
0.444104328349
0.443953663401
0.443805718231
0.443660072546
0.443516246533
0.443373789035
0.443232290269
0.443091372903
0.442950515385
0.4428091567
0.442667117549
0.442525019557
0.442384706612
0.442247835165
0.442114838755
0.441983325559
0.441851017856
0.441717521527
0.441583634047
0.441450254579
0.441317722646
0.441186071052
0.441055164147
0.440924903757
0.44079517316
0.440665880938
0.440536974116
0.440408428143
0.440280190164
0.440152238204
0.440024575446
0.439897207014
0.439770218933
0.439643648224
0.439517234768
0.439390716955
0.439263697035
0.43913533212
0.43900468542
0.43887042329
0.438729999267
0.438582206229
0.438426635945
0.438262046347
0.438089599738
0.437912955718
0.437735604851
0.43756336941
0.437406218447
0.437264514244
0.437133708002
0.436994259203
0.436786530432
0.436410705236
0.474300614305
0.475508016595
0.476304007025
0.476427005887
0.476392105485
0.476363407475
0.476333662579
0.476294111177
0.476236205389
0.476157121978
0.476056275615
0.475936497818
0.475800116268
0.475650887214
0.475491405357
0.475324945642
0.4751535205
0.474979507486
0.474804023997
0.474629048236
0.474454842848
0.47428249166
0.474112552744
0.473946042869
0.473783058129
0.473625235676
0.473473257679
0.473328619359
0.473192369981
0.473066250886
0.472951368563
0.472849210008
0.47276075035
0.472687383995
0.472629248288
0.47258732304
0.47256161252
0.472552323673
0.472558860367
0.472580966131
0.472617406599
0.472667095426
0.472728181436
0.472798756731
0.472876383149
0.472958602922
0.47304239106
0.473124952495
0.473202963783
0.473272563494
0.473328507954
0.473367204173
0.473383562065
0.473372899417
0.473330958873
0.473253888405
0.473138067153
0.472984132746
0.472793391997
0.472566443647
0.472302835159
0.472002248533
0.471662681211
0.471280392422
0.470851330964
0.47037187098
0.469838747647
0.469250166332
0.468606913338
0.467912362513
0.467169461297
0.466384629002
0.465567373529
0.464726862041
0.463867869273
0.463000964509
0.462140580157
0.461292914812
0.460454899036
0.459636329575
0.458861851994
0.45809640179
0.457356266964
0.456654591844
0.456001577161
0.455399689516
0.454825248155
0.454282878181
0.453773491444
0.453280669889
0.452840293519
0.452413303635
0.451912101289
0.451382965925
0.450831636969
0.450291140498
0.449840740089
0.449486477171
0.449254848861
0.449153306403
0.449118893876
0.449069961783
0.448943117847
0.448740921479
0.448475546206
0.448142282972
0.447759026905
0.447355206155
0.446964088067
0.44660370068
0.446278326169
0.445986174165
0.445722062725
0.445480703735
0.445257379093
0.445048065581
0.44484945685
0.444659735411
0.444478733759
0.44430736729
0.444145532295
0.443990862355
0.443840764973
0.443693876473
0.443549962808
0.443409140514
0.44327150025
0.443136941565
0.443005191063
0.442875814293
0.442748314297
0.442622190919
0.442496989243
0.442372220526
0.442247256191
0.44212149552
0.44199493489
0.441868814077
0.441745256082
0.441626267228
0.441511692991
0.441398909925
0.44128561443
0.441171182307
0.441056243841
0.440941491087
0.440827239845
0.440713513919
0.440600243697
0.440487385029
0.440374888793
0.440262712
0.440150803482
0.44003910517
0.439927531739
0.439816015618
0.439704509114
0.439592955942
0.439481361766
0.43936965341
0.439257518668
0.439144642658
0.439030525074
0.438914206194
0.438794610618
0.438670332908
0.438539013879
0.438399377576
0.438250827721
0.438092032242
0.437924089288
0.43775010132
0.437572423752
0.437395069522
0.437225381442
0.437061532332
0.436895853487
0.436705410816
0.436433426192
0.436000176812
0.473949356889
0.476323479516
0.477085924318
0.476851470493
0.476639959987
0.476528793351
0.476452115896
0.47638011269
0.476294741866
0.476191413491
0.476067834502
0.475926126381
0.47576780193
0.475596304905
0.475413597408
0.475222846244
0.475025602506
0.474824495101
0.474620539712
0.474415264112
0.474209421536
0.474004573923
0.47380069027
0.473599240696
0.473400892314
0.473206813462
0.473017805331
0.472835620053
0.472661256388
0.472496431638
0.472342239894
0.47220042928
0.472071739143
0.47195737003
0.471857940121
0.471774180284
0.471705881076
0.47165352924
0.471616475736
0.471594321821
0.471585881778
0.471590103509
0.471605221994
0.471629556765
0.471660952302
0.471697542397
0.471736864169
0.471776804652
0.471815122967
0.471848989972
0.471872489241
0.471882693571
0.471873827843
0.471839102175
0.471772400713
0.471668033931
0.471522758021
0.471339401599
0.471119180815
0.470863456492
0.470572973946
0.470250056787
0.469893239668
0.46949804848
0.469058308522
0.468569408879
0.468025675788
0.467422857175
0.466761607291
0.466046567032
0.465281656511
0.464470783895
0.463627869884
0.462768115269
0.461895601489
0.46101730133
0.460149050969
0.459297435385
0.458453653042
0.457635264694
0.456851381768
0.456115766596
0.455431590803
0.454772206336
0.454146660806
0.453564402717
0.453028326814
0.452534852034
0.452046561222
0.451541105889
0.451041670445
0.450519267453
0.44997473765
0.449466731879
0.449008819649
0.448636938845
0.448370485204
0.448183942928
0.44806426232
0.447987738957
0.447911052777
0.447797605361
0.447629135107
0.447411422528
0.447149143656
0.446844670716
0.44651135346
0.4461673923
0.445831365817
0.445514863802
0.445222898667
0.444956124968
0.444712427518
0.44448866985
0.444281530373
0.444087726971
0.443904654773
0.443730927807
0.443566607651
0.443412253342
0.443267114267
0.443128851661
0.442995083429
0.44286462252
0.442737179697
0.442612833534
0.442491636509
0.442373506201
0.44225816924
0.442145210082
0.442034126785
0.441924404812
0.441815554357
0.441706982574
0.4415979777
0.441487925991
0.441377081941
0.441267086101
0.441160343079
0.441058806933
0.440961815912
0.440866807754
0.44077148588
0.440675227803
0.440578480698
0.44048172478
0.440385178793
0.440288802613
0.440192580684
0.440096489534
0.440000565473
0.439904781853
0.439809119155
0.439713482674
0.439617775199
0.439521871382
0.439425677563
0.439329058251
0.439231922554
0.439134077524
0.439035111805
0.438934610341
0.438831955345
0.438726108253
0.438615893796
0.438499928438
0.438376022711
0.438242998757
0.438100221072
0.437946466343
0.437782637497
0.437611385747
0.437434075769
0.437253134963
0.437073543109
0.436891658911
0.436697691414
0.436467494312
0.436150267462
0.435685445864
0.473841805152
0.477534462373
0.477839486192
0.47709554712
0.476747939265
0.476573459608
0.476447400567
0.476329725135
0.476200993659
0.476056874014
0.475894559941
0.475716844154
0.475524201093
0.475320008694
0.475105399651
0.474883394677
0.474655115589
0.474422950612
0.474187560289
0.473951035996
0.473713642473
0.473476816648
0.473241239411
0.473008042428
0.472777463373
0.472551215488
0.472329937752
0.472115099494
0.471907661878
0.471709275724
0.471520894236
0.471343875685
0.471179069341
0.471027664546
0.470889779794
0.470766245645
0.47065700308
0.470562133169
0.470481015214
0.470413322103
0.470357817862
0.470313558334
0.470279002809
0.470252833296
0.470233532887
0.470219981608
0.470211065266
0.470205998126
0.470203866522
0.470203476088
0.470200204801
0.470188524126
0.470161045379
0.470106566398
0.470013856103
0.469873334876
0.469684479851
0.469453132309
0.469182669757
0.468877581671
0.468544640706
0.468190844029
0.467815572573
0.467411354913
0.466968934065
0.466480239332
0.465937488648
0.465332061322
0.464661288782
0.463934144043
0.46315933528
0.462337545569
0.461480574547
0.460616185004
0.459731171712
0.458840711641
0.457968458947
0.457122873804
0.456316247394
0.455553792208
0.454814511043
0.454110346736
0.453452053931
0.452839377849
0.452275164675
0.45175161346
0.451248642873
0.450740724867
0.450213503402
0.449683229793
0.449169565854
0.448667490914
0.448208284199
0.44782316594
0.447510978507
0.447277176368
0.447108745656
0.446979348314
0.446872589384
0.446769986521
0.446651383124
0.446503998703
0.446323369157
0.446111826774
0.445870607202
0.445602396383
0.445315796971
0.445022201084
0.444733064516
0.444456636962
0.444197620063
0.443957769376
0.443736672306
0.443532719721
0.443343619114
0.443166833445
0.443000383206
0.442843315154
0.442695807924
0.442558156489
0.442429319674
0.442307111067
0.442189496785
0.442075371558
0.441964360435
0.4418564383
0.441751599964
0.441649745992
0.441550610424
0.441453803764
0.441358842083
0.441265236557
0.441172451687
0.441079836072
0.440986556956
0.440892076154
0.440796926714
0.440702967113
0.440612744394
0.440527787554
0.440447216932
0.440368605956
0.440289909163
0.440210554357
0.440130786929
0.440050940563
0.439971078345
0.43989112874
0.439811047689
0.439730849521
0.43965059968
0.43957031105
0.439489973661
0.439409488543
0.439328735281
0.439247552061