/*--------------------------------*- C++ -*----------------------------------*\
| =========                 |                                                 |
| \\      /  F ield         | OpenFOAM: The Open Source CFD Toolbox           |
|  \\    /   O peration     | Version:  v1806                                 |
|   \\  /    A nd           | Web:      www.OpenFOAM.com                      |
|    \\/     M anipulation  |                                                 |
\*---------------------------------------------------------------------------*/
FoamFile
{
    version     2.0;
    format      ascii;
    class       volScalarField;
    location    "7";
    object      pa;
}
// * * * * * * * * * * * * * * * * * * * * * * * * * * * * * * * * * * * * * //

dimensions      [0 2 -2 0 0 0 0];


internalField   nonuniform List<scalar> 
12225
(
3.06109189315
1.07860960132
1.08123110644
1.20372840202
1.76584014084
2.29766943908
2.86268578559
3.33028073352
3.68015921136
3.91471945925
4.24838880211
5.00458415839
6.52341978293
9.36147025819
14.3085143531
21.9601029379
30.6134763459
29.940321057
21.9882607524
10.5412429029
9.52133441312
9.52696428188
9.80141805424
10.2327854572
10.8034831474
11.4566855418
12.1997388516
13.0936577072
14.3645486982
16.2400435867
18.916109957
22.7742968958
28.1655746676
34.7803524295
39.6236203268
33.2545966206
-5.36042025431
4.51774560866
4.90438340132
4.79616641516
4.92920750671
5.11812521108
5.3583336285
5.6057267027
5.90105430041
6.34649461465
7.18267799955
8.66283963906
11.0581980846
14.675805029
19.7440553568
25.6523797586
29.4280387582
24.9105070234
11.7650131123
8.53888097343
8.66784872193
8.45379337417
8.46024715127
8.49838220282
8.59007015163
8.6882130104
8.82485546422
9.08144950264
9.63475975532
10.6821606172
12.4608407352
15.1691237323
18.8212640301
22.6200447627
24.1534683102
20.2420273433
6.85300646009
7.56063828322
7.58589711566
7.61134833172
7.74445553522
7.91457337184
8.13387087574
8.36966156518
8.65978341076
9.07992854114
9.76776896649
10.8715978314
12.5569986851
14.9074357145
17.7452965455
20.2146811792
20.5814994337
17.4854015122
8.20844847965
8.17343653852
8.2214829029
8.22213793359
8.31521500506
8.42280983649
8.57575028302
8.75398941232
9.00326145958
9.3954370144
10.0411897305
11.0516481385
12.5254772598
14.4515692825
16.5483129363
18.0510403482
17.8532038401
15.5095270783
8.29063427124
8.4110846974
8.4978058707
8.54051712188
8.65004436803
8.75482446278
8.89691643072
9.06452013005
9.30590263263
9.68306614821
10.2821744047
11.1800196175
12.4189657069
13.9223679698
15.3833548783
16.2049529008
15.755077008
13.9766685195
8.39334147879
8.55504758832
8.69219167552
8.76371411579
8.88971754233
8.99704256792
9.1379859034
9.3051245309
9.54506244547
9.90683305971
10.4534331886
11.2297968326
12.2341966134
13.3539775033
14.3080481736
14.674717542
14.1294932785
12.7472228554
8.40586918058
8.61796365683
8.80842875696
8.9060593537
9.05046807845
9.16525280734
9.31111839122
9.48207032096
9.72053760493
10.0623742525
10.5498043364
11.2009415268
11.9840908623
12.7763556657
13.3476205303
13.4226591478
12.8555091692
11.7492254422
8.3793852661
8.62576570392
8.86707738758
8.98561428696
9.14814476575
9.27205117505
9.42477053093
9.59925563768
9.83263190621
10.1483367953
10.5710175104
11.0984515366
11.6826195954
12.2084696752
12.5027887356
12.3982039759
11.8438946239
10.9317655589
8.37431239075
8.60267354807
8.87186513442
9.00627032562
9.18442173802
9.3167234036
9.47486821025
9.64943370988
9.87237715111
10.1561288559
10.510876689
10.9209924601
11.3334557236
11.6509047655
11.7519978917
11.5419068144
11.0155863377
10.2511940005
8.36155940468
8.53473634128
8.80644164843
8.94862001254
9.13762261861
9.27546767484
9.43565925503
9.60607905412
9.81434253732
10.0644077033
10.3570053678
10.6701277624
10.9520427046
11.1259088577
11.1084505845
10.8470248681
10.3564529993
9.69738695088
8.32419198099
8.42339115457
8.69547303492
8.83596172986
9.0321670773
9.17296910792
9.33320267994
9.49697359342
9.68747677641
9.90248607784
10.1371135759
10.363403183
10.5384288282
10.6033314369
10.504043557
10.2161453105
9.7619251257
9.19520768707
8.28171285722
8.27243987989
8.55116439335
8.67934255276
8.87781194907
9.01655456059
9.17335956626
9.32624571026
9.4940364348
9.66917563719
9.83984624282
9.98234610747
10.0595108537
10.0324855234
9.87084667314
9.56821860306
9.15616048158
8.67196802558
8.21384326069
8.08836777208
8.37217749678
8.48229391913
8.67674030782
8.80787361092
8.95552582964
9.09298327638
9.23350442919
9.3636763266
9.47308398439
9.53752651382
9.53302919338
9.43470170746
9.23029278564
8.9255720008
8.55325475597
8.1448642143
8.10801257344
7.87028274111
8.15856819148
8.24438361849
8.42998136648
8.54629269602
8.67851474087
8.79234699698
8.89953538768
8.9846025441
9.0360601494
9.0375456279
8.97207363858
8.82846067606
8.6024505796
8.31047647121
7.97840900297
7.63651631699
7.98525126763
7.63223917171
7.91580255628
7.97320892164
8.14300326956
8.23824880492
8.34559324331
8.42766927012
8.49489457722
8.53273266206
8.53350389535
8.48585466973
8.38065148285
8.21243219759
7.9856468776
7.71489616042
7.42686853384
7.13965851443
7.80607767539
7.35590407644
7.63360622277
7.66242306535
7.81288164926
7.88280758192
7.9612447097
8.00796513265
8.03496080435
8.03022582651
7.99024513739
7.90809712345
7.78003041318
7.60437390146
7.38857518215
7.1458201879
6.89953232651
6.66207014878
7.5587063814
7.07079997137
7.34048507078
7.34478259939
7.47170091745
7.51335469823
7.56117791309
7.57313264199
7.5640840406
7.52416761718
7.45380663298
7.34909675999
7.20989658977
7.03593330734
6.83552702709
6.61954052281
6.40798447548
6.21001719376
7.37570971904
6.94433562483
7.16771856302
7.15974801592
7.25891486011
7.27655534194
7.29666243669
7.28242557242
7.24863949921
7.18687982227
7.099914454
6.98485732962
6.84292404514
6.67351954241
6.48551879072
6.28705409442
6.09822744879
5.92495414725
7.23711102638
6.88263220018
7.08747609438
7.07142648424
7.15143148804
7.1491279644
7.15151415882
7.11985963618
7.07082511834
6.99774976467
6.90232967562
6.78404793353
6.64219387481
6.4790003206
6.2980582665
6.11299957897
5.93512886726
5.77770154274
7.13743847952
6.86506919387
7.04586904264
7.03579934696
7.100119928
7.08599302449
7.07058926394
7.02596026659
6.96681194364
6.88527567486
6.78567408758
6.66670027231
6.52844406397
6.37000781681
6.1980062881
6.02165559387
5.85448327539
5.70558308968
7.11203125535
6.90534150256
7.06881193733
7.05804642781
7.11066489789
7.08188003719
7.05639203216
7.00126915339
6.93219808613
6.8455563124
6.74237484896
6.62394124584
6.48744725367
6.33581380754
6.17205660135
6.00412542363
5.84731159984
5.70544162791
6.91008166926
6.88467353811
7.02264598763
7.03124534701
7.06707324541
7.02826209969
6.98573564184
6.91773755601
6.83953843882
6.74363504732
6.63707143425
6.5158721216
6.38293957364
6.23509992119
6.07886596261
5.92083779339
5.769887656
5.63390612463
7.62866203913
7.36170587865
7.50640558419
7.52782870983
7.5546089979
7.51020932725
7.46960723583
7.40523641175
7.33070734241
7.24304809701
7.14326016788
7.03313263915
6.90925026741
6.77819388499
6.63942461325
6.49719011146
6.36156033592
6.24812133163
3.59069874123
5.792257422
5.90101591405
5.95852041297
5.93662209558
5.8652705226
5.79188593919
5.6956795018
5.58748355165
5.46272280471
5.32808597476
5.185957661
5.04195868404
4.89572474362
4.75236130151
4.61362812164
4.4786123801
4.30909813604
16.6388067021
10.6854021509
10.8473375372
10.8274254064
10.769945524
10.6830818027
10.6111918933
10.5269124571
10.4384824568
10.3415883101
10.2404836011
10.1399271463
10.0441926242
9.95646346455
9.87597104568
9.79341446979
9.69803667008
9.69960707617
-17.4526425041
0.940646986607
2.08285955701
2.07968970964
2.01294081904
1.98449577815
1.97485306979
1.96273281511
1.95120395185
1.93368066171
1.91507626184
1.89478617798
1.86444104461
1.82223850212
1.7615020223
1.66256431158
1.50117277253
1.09220038175
30.5244561127
15.2811709308
13.7722814381
13.644574906
13.4737704206
13.3200801625
13.173155561
13.0117020661
12.8331837495
12.6333712634
12.4150482143
12.1811139456
11.927869234
11.6547117843
11.3706853098
11.0799626344
10.7524258292
10.5941140158
-0.941162485089
-0.0566809880612
-0.621498233178
-0.795169098895
-0.724785491016
-0.691584048525
-0.623018713328
-0.574042480946
-0.535807712826
-0.523996319018
-0.539172832148
-0.583124062015
-0.649950933759
-0.731771265525
-0.799956061779
-0.78886655221
-0.595214358939
-0.309579021222
0.765499645242
0.773438940268
0.784677385165
0.80806085956
0.838989770818
0.870442426444
0.895617264459
0.911518867743
0.918121678816
0.917328930448
0.911909612125
0.904624000798
0.898088024137
0.894373989557
0.895140502443
0.901614870099
0.914538653575
0.934494903117
0.961461412351
0.995533413521
1.03608362762
1.08287977998
1.13478945762
1.19139625436
1.25120787779
1.3138442099
1.377789361
1.44296559779
1.50798483451
1.57308767333
1.63719572539
1.70091074559
1.76338792116
1.8254011101
1.88634058809
1.94705100009
2.00705868398
2.06712895613
2.12667659019
2.18630617042
2.24543018386
2.30450292165
2.36296013161
2.42108898243
2.47835667551
2.53483830475
2.58998761118
2.64365979669
2.69526995828
2.74442444928
2.79036479752
2.83241570264
2.86990861198
2.90262877994
2.93039945456
2.95305090608
2.97041436017
2.98231937413
2.98891287582
2.99044897021
2.98812000732
2.98289857747
2.97581711027
2.96559447555
2.95130480594
2.9312872904
2.90481090503
2.8705862889
2.8283494592
2.77708773355
2.71686964627
2.6469001732
2.56763679872
2.47842268304
2.38022496321
2.27275275344
2.15747162761
2.03430859778
1.90497179621
1.76949232506
1.63023143436
1.4873675482
1.34326346935
1.19804083735
1.05442878286
0.912605166709
0.774875656196
0.641817562121
0.514646818199
0.393620590473
0.276471110414
0.166541365757
0.0659226093579
-0.0223699734247
-0.0948483155303
-0.144334909996
-0.170998842552
-0.185498911786
-0.205170440481
-0.225639951767
-0.224523975272
-0.1971694252
-0.199945699571
-0.264629840787
-0.355744046772
-0.409552929307
-0.42103514083
-0.433720467708
-0.450756239842
-0.464108001653
-0.473729637162
-0.479246613685
-0.481763633537
-0.482108184581
-0.480975412744
-0.478781775426
-0.475851386733
-0.472273899336
-0.46825816943
-0.463921301211
-0.459576072591
-0.455299071507
-0.451188168031
-0.447179071597
-0.443211188409
-0.439235381737
-0.435265733765
-0.431337918
-0.427518764993
-0.42387919847
-0.420506023475
-0.417479899244
-0.414881105008
-0.41275782204
-0.411140924743
-0.410026732544
-0.409379542122
-0.409101066648
-0.409152792122
-0.40945824423
-0.410087689143
-0.410764854801
-0.411506072491
-0.412043946396
-0.412478418336
-0.412653425389
-0.412758213776
-0.412691227225
-0.412704487255
-0.412735660032
-0.413090092268
-0.413754034751
-0.415035983544
-0.416876430277
-0.419565830597
-0.423016552272
-0.427463471212
-0.432749328686
-0.439003312188
-0.445966595198
-0.453564018053
-0.461293661851
-0.46878805699
-0.475282360256
-0.480135340186
-0.482405290353
-0.481270745707
-0.47573163634
-0.464562951582
-0.446584020923
-0.421230159449
-0.388877496098
-0.351554725847
-0.314629503869
-0.288631167569
-0.285415342406
-0.318483370842
-0.399464322942
-0.530246625196
-0.697177414993
0.756449869724
0.777476237041
0.829612756907
0.898606304117
0.95780764726
0.995682109065
1.01084696499
1.00659953504
0.987488338845
0.957905488598
0.921471529911
0.880903280751
0.838243846884
0.794993793838
0.752242141701
0.710860850305
0.671373584791
0.634306040681
0.599772883708
0.56802302558
0.538791485701
0.512130684767
0.487439298539
0.464569002378
0.442637290209
0.42144960533
0.400044688478
0.378336964887
0.355421129421
0.331393489406
0.305546300071
0.278177254241
0.2487736456
0.217719499694
0.18466962469
0.150106642015
0.113748804633
0.0760033861074
0.036591078177
-0.00419938525756
-0.0466486859039
-0.09052412201
-0.136033629509
-0.182992848742
-0.231529668033
-0.281518911285
-0.333038791129
-0.386029510707
-0.440538398825
-0.496479038963
-0.553772226259
-0.612281750704
-0.672393227066
-0.734431404205
-0.798535584907
-0.86469242155
-0.932694663562
-1.00209486752
-1.07181323335
-1.14112088049
-1.20958095561
-1.27674290556
-1.34181582252
-1.40338237743
-1.4611335981
-1.51540535897
-1.56631990037
-1.61422814728
-1.65907091483
-1.70096368908
-1.73953507481
-1.77465421673
-1.80568986056
-1.83238854162
-1.85407993967
-1.87054506617
-1.88116289332
-1.88614647817
-1.88534072401
-1.87920718185
-1.86755004714
-1.85103150644
-1.8297437152
-1.8043980414
-1.7746696844
-1.74112536894
-1.70412497011
-1.66407853108
-1.61954019614
-1.57407035619
-1.53037017883
-1.48851158225
-1.44258722477
-1.39044134693
-1.33234042954
-1.26683313838
-1.1906281786
-1.1024962453
-1.01944405578
-0.939662021865
-0.851243994654
-0.765110760397
-0.703418344085
-0.660431331458
-0.592784729014
-0.470482807139
-0.396738175241
-0.390147411902
-0.384595152641
-0.372844943227
-0.357878099869
-0.341478601824
-0.324553859429
-0.307358691697
-0.289988027395
-0.272477308499
-0.254727914215
-0.236603383387
-0.21801290086
-0.199002543268
-0.17966770999
-0.160034413571
-0.140044372244
-0.1195477481
-0.0984130307979
-0.0765599476149
-0.0539731621225
-0.0306779491613
-0.00673342349365
0.017777732539
0.0427525229948
0.068074644997
0.0936314945466
0.119329784703
0.145106776912
0.170926969975
0.196806763219
0.222772002288
0.24882868526
0.274861078032
0.300821820325
0.326759180616
0.352742337255
0.378812353164
0.404912026262
0.43095566671
0.456808083374
0.482339022194
0.507349578838
0.531626095894
0.554849694382
0.576724176398
0.596857654195
0.614845588935
0.630152951422
0.642274633748
0.650610555339
0.654665637883
0.653947579358
0.648214145035
0.637191708073
0.620902083103
0.599608081048
0.573973915916
0.544892635813
0.513556637813
0.481346096076
0.449919049757
0.421159768469
0.396554932774
0.376693198993
0.360550482874
0.345154937748
0.324108779739
0.291051333783
0.240673584452
0.168204243331
0.0774839131456
-0.00402603982243
0.00942695616533
0.800860701905
0.836449747152
0.915436298365
1.00709646338
1.06558237127
1.08025064843
1.06040058659
1.01922415353
0.96729211567
0.911620621475
0.856537850401
0.804556122351
0.75720273231
0.715382029169
0.679654937919
0.650417244886
0.627815980321
0.612002466569
0.602806044698
0.600182557283
0.603640779228
0.612922802278
0.627247229355
0.646206912999
0.668759310152
0.694434897559
0.722135655076
0.751477656101
0.781427349527
0.811781999379
0.841724134468
0.871253810943
0.899752785897
0.927414396561
0.953819484641
0.979227315301
1.00335685049
1.02647681745
1.04830426023
1.06905169247
1.08849092045
1.10678360165
1.12377834043
1.13960137815
1.15417337428
1.16757324918
1.1797543435
1.19074422313
1.20051306175
1.20903925459
1.21632489066
1.22248870753
1.22769064071
1.23173609228
1.23429984671
1.23501444539
1.23349637101
1.22902247971
1.22039849735
1.2064179269
1.18583105704
1.15676484828
1.11747450477
1.06705281824
1.00681889947
0.938234734136
0.862610556906
0.780801734173
0.693529587397
0.601203327739
0.504329420051
0.40336255418
0.299052312966
0.192153094522
0.0838659821315
-0.0245956899106
-0.131780676605
-0.236424572983
-0.337213264363
-0.433078805399
-0.52293096305
-0.606102447773
-0.682070642801
-0.750723346161
-0.811810269554
-0.865555915492
-0.912569007319
-0.953248423829
-0.988396247809
-1.01907734713
-1.05103867215
-1.08485565536
-1.11654148649
-1.14342017207
-1.16505732985
-1.18678069393
-1.20013019067
-1.19970916187
-1.17678578578
-1.13423324359
-1.09666713706
-1.07963402409
-1.05073967884
-1.03901892148
-1.04019021228
-1.00008356859
-0.913977423197
-0.815620010921
-0.73765528403
-0.680327901584
-0.63834375061
-0.607481111624
-0.584861247072
-0.568373478678
-0.556517724894
-0.548224823411
-0.542583412156
-0.538909494201
-0.536616615162
-0.535423732554
-0.535083906817
-0.535451011228
-0.536260747964
-0.537249991796
-0.538153753761
-0.538781876666
-0.538989727217
-0.538700437202
-0.5378717256
-0.536513667694
-0.534659896393
-0.532378686224
-0.529726458821
-0.526741797933
-0.523403412658
-0.519641178884
-0.515324680107
-0.510334794075
-0.50459594636
-0.498205686592
-0.491145861691
-0.483386045894
-0.474681507693
-0.464936941215
-0.45399638843
-0.441854855655
-0.428393715101
-0.413600059424
-0.397343220816
-0.37960458411
-0.36025107192
-0.339240816104
-0.316458336273
-0.291864855455
-0.265319577269
-0.236774326515
-0.206109278011
-0.173293299835
-0.138238801312
-0.100985017951
-0.0616304294105
-0.0204660312174
0.0221650904884
0.0657278950142
0.10962706258
0.153032179467
0.19501786145
0.234610314053
0.270678863538
0.301710374476
0.325671550336
0.33884054263
0.335545510167
0.307495627647
0.24835611122
0.151416417699
0.0103024965385
-0.172457017113
-0.366689685866
-0.49521212245
0.927687526682
0.909516161166
0.954431387802
1.03601664894
1.07563387638
1.06327720023
1.01681724767
0.954057145295
0.886453435438
0.820097247106
0.758055992758
0.701613629426
0.651371225104
0.607517762562
0.570121490895
0.539194393906
0.514632311671
0.496397669306
0.48421941942
0.477959581824
0.477134452115
0.481516076367
0.49039316448
0.50341443209
0.51969948262
0.538854941004
0.559906073757
0.582519490399
0.605785916074
0.629506919457
0.652913684528
0.675989678878
0.698174607898
0.719579848646
0.739813447652
0.759129610203
0.777220237041
0.794346906816
0.810291211029
0.825287116112
0.839164170013
0.852138827078
0.864123225708
0.875306551594
0.885670277074
0.895357727402
0.904383723471
0.912824095919
0.92066756148
0.927919582438
0.934473984137
0.940139862768
0.944925385256
0.948806877404
0.951672394574
0.95334481975
0.953678956903
0.952417953213
0.949208937472
0.943611072589
0.935788049695
0.926677131568
0.917609712019
0.909180720767
0.901406626615
0.894094793453
0.887025122653
0.879739021427
0.871671805725
0.861970525919
0.849723518076
0.833779875005
0.81310654386
0.786678777323
0.75372765316
0.713730913514
0.666616605728
0.612539049384
0.552082844931
0.486084555374
0.41564042248
0.341892060058
0.266028007074
0.189028969027
0.11177203741
0.035003849786
-0.0410518318612
-0.116770566933
-0.192050282419
-0.270033865537
-0.352295801426
-0.440501759169
-0.535229952082
-0.631638973625
-0.718254513002
-0.779265528349
-0.810512529558
-0.811214677738
-0.751687789595
-0.650965001068
-0.597291858383
-0.601269481843
-0.621426753035
-0.655689189085
-0.677502177083
-0.648526410834
-0.557328910131
-0.437390498531
-0.32681115636
-0.237176989335
-0.166908848772
-0.111379209884
-0.0668713914047
-0.0305814038266
-0.000555489156667
0.0246624658038
0.0461897919562
0.0649105757468
0.0814957511929
0.0963861147194
0.109871033029
0.122199691347
0.13365003842
0.144507547003
0.15504104145
0.165477432454
0.175992537254
0.186711111751
0.197704769836
0.20899894665
0.220573714953
0.232385097839
0.244390056127
0.25659127088
0.269059842135
0.281949768536
0.295441092792
0.309690482996
0.324691638605
0.340305787309
0.356366754611
0.372858121346
0.389824473147
0.407270779
0.425103875575
0.443166805522
0.461254706076
0.479137291963
0.496556702942
0.513240755549
0.528921292634
0.543339932789
0.556246244774
0.56743311025
0.576770871515
0.584198212467
0.589750983213
0.593544910045
0.595792697008
0.596758579421
0.596823415912
0.596374671319
0.595828340475
0.595597816236
0.596131960108
0.597854116452
0.601224689362
0.606710580233
0.614674044671
0.625146512047
0.637406430055
0.64906037264
0.655664027995
0.650765545448
0.628000148954
0.580828033791
0.505212032434
0.4063711798
0.31012663291
0.269490408209
1.08573684768
0.907743112931
0.89075445018
0.973780956095
1.00723553097
0.984198963225
0.931010687639
0.86642707207
0.800097076867
0.736231782092
0.676819357017
0.622590286629
0.573988616566
0.531106977676
0.494034651686
0.462763726878
0.437224033171
0.417358135952
0.402925158037
0.393816518303
0.389607606256
0.390082091206
0.394629311459
0.402961719071
0.414284068665
0.428254285486
0.444021304222
0.461261824256
0.479139860081
0.497435952672
0.515446645533
0.533087932947
0.549800245196
0.565673470715
0.580302568912
0.593851221857
0.606046980328
0.617117654289
0.626828429303
0.635415031471
0.642715801006
0.648948130541
0.654016664448
0.658111754892
0.661186101539
0.663375646224
0.664633367389
0.665015090015
0.6644553218
0.662902584083
0.660260789334
0.656491600413
0.65153747115
0.64534715294
0.637842955108
0.628846876724
0.618266730875
0.606121699884
0.592924712565
0.579518528228
0.566891062209
0.555501697761
0.546067506355
0.539392009387
0.536010803235
0.536295748768
0.540593263184
0.549031389414
0.561596388696
0.5779124509
0.597358412075
0.618920835222
0.641337947264
0.662983915704
0.682223185866
0.697300813053
0.706644328257
0.708901070727
0.703153897462
0.688892695364
0.666062522872
0.635004517002
0.596366031623
0.550805713899
0.499212726313
0.442389463975
0.380653056673
0.314547877721
0.242180110194
0.162766970766
0.0746216822658
-0.0144292742866
-0.0933129165929
-0.155541098638
-0.188698300031
-0.161773195005
-0.0791951673058
0.0173824311495
0.0879505134098
0.098314223567
0.0368691147832
-0.0640988695851
-0.163949276867
-0.250691968594
-0.306844432847
-0.320123086429
-0.291402258788
-0.240089467728
-0.185936971668
-0.139391956297
-0.103181272474
-0.0761276398202
-0.0563470954696
-0.0420291932166
-0.0317631857833
-0.024394932933
-0.0190738889731
-0.0150385303652
-0.0118092500127
-0.00900807157523
-0.00649670224667
-0.00411641897387
-0.0017552057892
0.000732711670631
0.00347096083724
0.00657723818605
0.0101235920877
0.0141483252498
0.0186369677365
0.0235357226401
0.0287475220939
0.0341652540586
0.0396994263256
0.0453392144414
0.0511791461019
0.0574212356501
0.0643022276762
0.071990976979
0.0804550775943
0.0895312409828
0.0990125851359
0.108924227852
0.119300221541
0.130231706781
0.141674362257
0.153624652531
0.165990215673
0.178759375359
0.191846087018
0.205259180061
0.218945925214
0.232956815226
0.247272128101
0.261975893314
0.277088316597
0.292717519871
0.308891711898
0.325692020984
0.343092340313
0.361082144893
0.37957402679
0.3984749751
0.417591425551
0.436725068497
0.45562448164
0.47405914032
0.491855506023
0.508880146708
0.524963064826
0.539751511864
0.552344230015
0.560697976119
0.561566303614
0.550775137392
0.52467860635
0.47969305851
0.416401236992
0.342869457615
0.282359753999
0.272132890651
1.20761498416
0.771306950836
0.718706006341
0.847265724308
0.893974803563
0.874721047045
0.828032960877
0.772430720749
0.715462548197
0.660068078956
0.607914610149
0.559678561824
0.51597398224
0.477024745988
0.443093059715
0.414259120031
0.390565919538
0.37202584319
0.35850128065
0.349930726811
0.345996637969
0.346582501534
0.35118302108
0.359577440761
0.371132750527
0.385574494884
0.402155632238
0.420597827392
0.440167564951
0.460638570743
0.481348738916
0.502183469249
0.52262129373
0.542645559994
0.561864555497
0.580401256182
0.59794459406
0.614667281729
0.630354529768
0.645200025089
0.65903754161
0.672070515323
0.684191873743
0.695590429514
0.706198054541
0.716156128429
0.725398434479
0.733979452309
0.741782834165
0.748780843298
0.754810362705
0.759726138808
0.763391092126
0.765649094405
0.766296853809
0.765072398351
0.761726358562
0.755959807062
0.747656153869
0.736726337952
0.72325657412
0.707379791969
0.689189324734
0.669151655815
0.6482500993
0.627562446894
0.608280989701
0.591535411628
0.57843219282
0.569872248128
0.566588552494
0.568879743986
0.576704845227
0.589467783227
0.606101980055
0.625065945003
0.644568270842
0.662579749759
0.677215557563
0.686843463574
0.690222618297
0.686515112694
0.67532033521
0.65660766238
0.630592570114
0.597375482121
0.556454344307
0.50866244815
0.458042021747
0.406702322339
0.357256875009
0.319653663005
0.317895067061
0.360817958745
0.438404261274
0.529215686279
0.602512124405
0.628625236388
0.589443499803
0.486116304189
0.341955376952
0.19091743058
0.0568913897201
-0.051557072839
-0.126860754485
-0.167667125248
-0.178301164847
-0.169286453504
-0.150621459759
-0.129579311836
-0.110222206833
-0.0939801835428
-0.0809763971307
-0.0708244221699
-0.0629548305821
-0.0568287188889
-0.0519259265479
-0.0477669563019
-0.0439514062005
-0.040234859823
-0.0364846458818
-0.0326448081047
-0.0286734052736
-0.0245174809526
-0.0200967555902
-0.0153396376423
-0.010186890247
-0.0046242874618
0.00132724925852
0.00759095564625
0.0140641681632
0.0206249881924
0.02720134808
0.0338070355442
0.0406044469878
0.0478575512979
0.0558775081771
0.064833506027
0.074717213469
0.0853089111522
0.0964625487028
0.108137149923
0.120399771689
0.133267651669
0.14673451254
0.160733678255
0.175208131447
0.190072797443
0.205256961972
0.220674849371
0.236259317307
0.251945016933
0.267683195135
0.283444793176
0.29921456893
0.315003401955
0.330821575749
0.346698256001
0.362637533872
0.378656278131
0.394747268354
0.410906651346
0.42708564425
0.4432348162
0.459259090721
0.475065803194
0.490556868618
0.505600432316
0.519931518196
0.533012805583
0.543710039537
0.549921761858
0.54866354297
0.536409595293
0.509905868538
0.466795066589
0.408727117175
0.344321723074
0.293497040018
0.281224054501
1.23843157475
0.48831293531
0.471731669947
0.689206881546
0.751749107665
0.740459345977
0.705816050032
0.663852670292
0.620048950148
0.576519852944
0.53471898501
0.495338544128
0.459111980064
0.426336785491
0.397382079449
0.372381938421
0.351461427168
0.334668151786
0.321941873244
0.313297009497
0.308511331833
0.307501849475
0.30989239497
0.31556113723
0.323985418718
0.334979443582
0.347958396846
0.362705832172
0.378606319459
0.395475618106
0.412758094131
0.430335773098
0.44773764413
0.464968537541
0.481671893366
0.497922139527
0.51347638785
0.528489534212
0.542761370638
0.556483812416
0.569515093273
0.582053411815
0.593999447097
0.605542781257
0.616608377093
0.627344231934
0.637656119579
0.647606084672
0.657061948758
0.665954028724
0.674077272803
0.681292586174
0.687412126775
0.69230438756
0.695789039591
0.697592799818
0.697300724457
0.694445108145
0.688963026276
0.681159128341
0.671686308554
0.661163126707
0.650153784612
0.638827532409
0.627353794551
0.615865189519
0.604609241713
0.59388423486
0.584173528811
0.576046298789
0.570231229966
0.567474972776
0.56849784144
0.573696061527
0.583169156244
0.596504653476
0.612856834517
0.630838231533
0.648837557973
0.665220802141
0.678439656575
0.687246644189
0.690546285502
0.687569109204
0.678300115477
0.663257463937
0.643556494447
0.622105159722
0.604831850981
0.600384626255
0.612179279899
0.647737144492
0.712326787484
0.796498373887
0.8768508328
0.922714295637
0.915560232318
0.85059186509
0.735535777879
0.587337728099
0.428991616756
0.280597600247
0.152800269531
0.0498418975117
-0.0255944124696
-0.0744820589708
-0.100635096337
-0.109957133478
-0.108274215779
-0.100482940343
-0.0903477380424
-0.0800444240141
-0.0707140075149
-0.0627558537279
-0.0561848928591
-0.0508612598828
-0.046450948499
-0.0426187277774
-0.0389553114071
-0.0352362858098
-0.0313133312595
-0.0271768491264
-0.0228367805965
-0.0182879503078
-0.013489906641
-0.00839147132262
-0.0029565748137
0.00282096247038
0.00889840812362
0.0151909130232
0.0215752643228
0.0279313785891
0.0341888900017
0.0403995476095
0.0467607736492
0.053601903966
0.0612457882256
0.069884432293
0.0794750563766
0.0898240228749
0.100787259865
0.112324781829
0.124474484812
0.137233171751
0.150579038114
0.164442426791
0.178768684707
0.193472637991
0.208492065344
0.223734747504
0.239144171213
0.254641887164
0.270198253659
0.285769923242
0.301365894313
0.316978410759
0.332641573912
0.348360069301
0.364159718467
0.380028434069
0.395961814915
0.411906338951
0.427800100508
0.443539953621
0.459012305208
0.474083344945
0.488618543369
0.50243246259
0.515207920687
0.52637433559
0.534807728795
0.538653003721
0.535388822535
0.5222018848
0.496427755006
0.456756147383
0.405496422422
0.351042941886
0.309324096308
0.297372319651
1.15146397992
0.0930194395296
0.193704080584
0.510475267663
0.570203377212
0.566597330984
0.547253546696
0.522161597506
0.494677299688
0.466354513808
0.438520224354
0.411807952721
0.386974182071
0.36434804263
0.344337465876
0.327097619992
0.312775091239
0.301441933578
0.293089594407
0.287738982539
0.285197012945
0.285439180838
0.288164310452
0.293313180201
0.300519863866
0.309692847031
0.320371758282
0.332446071319
0.345449277652
0.359278372095
0.373493575226
0.388046377386
0.402581536463
0.417106304356
0.431350171156
0.44541903462
0.459099711113
0.472540701277
0.48559297213
0.498425128063
0.510909247103
0.523224604276
0.535269543561
0.547216431599
0.558975772264
0.570681465074
0.582230532006
0.593675974818
0.604853869808
0.615710455844
0.626008751138
0.635590685011
0.644289581738
0.652050260224
0.658675180512
0.663960082837
0.667120318915
0.667225222918
0.664188272488
0.658594494488
0.651316997568
0.642932591195
0.633878561391
0.624468659161
0.615073241878
0.605961498863
0.597396294689
0.589568231549
0.582715229282
0.577076129997
0.572978765087
0.570796172412
0.571068394581
0.574285129515
0.580788775168
0.590664596912
0.603726120269
0.619308055085
0.636344559428
0.653581106122
0.669638283664
0.683323390691
0.693720338859
0.699929057523
0.702254550941
0.702946700069
0.706753405622
0.71866224986
0.742989485525
0.780383574426
0.832305034608
0.897225704014
0.964965079383
1.02125675921
1.0477990528
1.03023256575
0.965593392271
0.861317879414
0.729921320467
0.586786327881
0.446123923489
0.318142790259
0.20769188462
0.116979379289
0.0471340041708
-0.00283214970591
-0.0353646115721
-0.0539587649785
-0.0622134401358
-0.0635161433427
-0.0608172052165
-0.0562290447548
-0.0511655172356
-0.0463812420885
-0.0422620027401
-0.0388929819246
-0.0361320319359
-0.0336548902777
-0.0311176035679
-0.0282486341426
-0.024952875501
-0.0212553879157
-0.0172307337103
-0.0129091290772
-0.00829677378172
-0.00336490372076
0.00189244809674
0.00746755113712
0.013293473827
0.0192749970315
0.0252708213184
0.031164708037
0.0368921589029
0.0425391551012
0.0483348584842
0.0546455568685
0.0617938527876
0.0699741753301
0.0791234075534
0.0890976354369
0.0997493322901
0.111065480579
0.123032603826
0.135653838623
0.148864436586
0.162617480528
0.176832069424
0.191454612329
0.206401999735
0.221611833985
0.237005536394
0.252528804878
0.268131126052
0.283786533584
0.299483124511
0.315220739305
0.331011118828
0.346856651029
0.362762191071
0.378705037083
0.394655931339
0.410538116382
0.42626387821