/*--------------------------------*- C++ -*----------------------------------*\
| =========                 |                                                 |
| \\      /  F ield         | OpenFOAM: The Open Source CFD Toolbox           |
|  \\    /   O peration     | Version:  v1806                                 |
|   \\  /    A nd           | Web:      www.OpenFOAM.com                      |
|    \\/     M anipulation  |                                                 |
\*---------------------------------------------------------------------------*/
FoamFile
{
    version     2.0;
    format      ascii;
    class       surfaceScalarField;
    location    "7";
    object      phia;
}
// * * * * * * * * * * * * * * * * * * * * * * * * * * * * * * * * * * * * * //

dimensions      [0 3 -1 0 0 0 0];
oriented        oriented;


internalField   nonuniform List<scalar> 
24170
(
1.76497875308e-07
1.40310880302e-07
2.11110125104e-07
-3.52068867531e-08
1.37884733888e-07
7.26111202715e-08
1.57485829953e-07
-2.15306028098e-08
1.70403462265e-07
-1.4102524996e-08
1.85029774683e-07
-1.6011729083e-08
2.00946902052e-07
-1.71756241724e-08
2.16008009881e-07
-1.605514257e-08
2.313786827e-07
-1.64687963203e-08
2.48414381617e-07
-1.78810681758e-08
2.66868719808e-07
-1.94576732166e-08
2.90111913055e-07
-2.41876398308e-08
3.19489600591e-07
-3.03750489875e-08
3.55999915854e-07
-3.7496392998e-08
4.03115557158e-07
-4.79935278272e-08
4.61410297799e-07
-5.89864825829e-08
5.60916338742e-07
-9.98615263136e-08
-5.40852885985e-07
1.10151603356e-06
6.85929888475e-07
-2.00272998759e-07
2.40965488744e-07
4.1200303319e-07
2.67345667583e-07
4.67101806712e-08
2.5717454714e-07
-1.30286781607e-08
2.501423886e-07
-8.73135349277e-09
2.5124052127e-07
-1.90379964858e-08
2.5872918265e-07
-2.64090968234e-08
2.75413957447e-07
-3.41297013332e-08
3.00727331356e-07
-4.29841683829e-08
3.33173147858e-07
-5.11286947264e-08
3.71111515175e-07
-5.81066864065e-08
4.1383863842e-07
-6.74807413557e-08
4.59570207793e-07
-7.67312512607e-08
5.07902358897e-07
-8.65557474524e-08
5.54935650567e-07
-9.58460807319e-08
6.025584007e-07
-1.07441984309e-07
6.97812324332e-07
-1.95790024392e-07
-6.57819319916e-07
8.13764256359e-07
-2.09265397888e-07
3.72876145359e-07
2.57064186704e-07
-5.60392890261e-08
2.45969671176e-07
5.66668756642e-08
2.26670627705e-07
4.86095646526e-09
2.30881541978e-07
-1.37271766223e-08
2.36250552405e-07
-2.52027181046e-08
2.45856111556e-07
-3.67192616303e-08
2.58204942264e-07
-4.7064023491e-08
2.72640249948e-07
-5.80791389335e-08
2.88940353455e-07
-6.80244103175e-08
3.07869694814e-07
-7.7740899629e-08
3.29970880606e-07
-9.02839156496e-08
3.55453958754e-07
-1.02927089492e-07
3.84913214783e-07
-1.16684501103e-07
4.20974261279e-07
-1.32497065146e-07
4.77391509341e-07
-1.64343519962e-07
5.78764453773e-07
-2.97536831986e-07
-6.6973542878e-07
5.90131348996e-07
5.03714683467e-07
2.62894181945e-07
3.10612032489e-07
1.37559822698e-07
3.2264815449e-07
4.42899910865e-08
3.15314742826e-07
1.07323582946e-08
3.13994241414e-07
-1.39918670079e-08
3.15892773377e-07
-2.88726949536e-08
3.20966065492e-07
-4.34688295012e-08
3.28989747696e-07
-5.65541849158e-08
3.39472669485e-07
-6.98617094744e-08
3.52365526359e-07
-8.19822884039e-08
3.67798428681e-07
-9.41386045305e-08
3.85318086042e-07
-1.08669618336e-07
4.05152873353e-07
-1.23616063275e-07
4.27353812991e-07
-1.39738406022e-07
4.55513274552e-07
-1.61506264853e-07
5.01785904309e-07
-2.11424025684e-07
5.60421728798e-07
-3.56935226942e-07
-6.24191545583e-07
5.13881438969e-07
3.1158518024e-07
3.69480081874e-07
3.60225076134e-07
8.70829129967e-08
3.5170320059e-07
5.15206354672e-08
3.47243476829e-07
1.41725166135e-08
3.45755720344e-07
-1.31054258389e-08
3.47707856418e-07
-3.13257955106e-08
3.52720717961e-07
-4.89427589218e-08
3.60650185623e-07
-6.48933234205e-08
3.71020475783e-07
-8.07106817342e-08
3.83836165548e-07
-9.52903693509e-08
3.98957813947e-07
-1.09839621554e-07
4.15753434853e-07
-1.26056400255e-07
4.34443891563e-07
-1.42903554988e-07
4.55923808181e-07
-1.617779502e-07
4.84111981602e-07
-1.90211968019e-07
5.23965296167e-07
-2.51753866219e-07
5.52148642236e-07
-3.8558147403e-07
-5.67539989185e-07
4.95016315471e-07
4.15027752599e-07
4.04058574398e-07
4.08636396485e-07
9.22368852855e-08
4.05511230438e-07
5.34494901376e-08
4.01607126849e-07
1.65721443249e-08
3.99686227605e-07
-1.26841122198e-08
4.00495192775e-07
-3.37086618127e-08
4.03807234378e-07
-5.37315313508e-08
4.09540141297e-07
-7.19923893488e-08
4.17345242392e-07
-8.97405566388e-08
4.27311077759e-07
-1.06366081963e-07
4.39324274881e-07
-1.22860854747e-07
4.52997709422e-07
-1.40675302439e-07
4.68692054722e-07
-1.59474294201e-07
4.8776911318e-07
-1.8167641661e-07
5.12899246355e-07
-2.16098184433e-07
5.41937298168e-07
-2.81475763315e-07
5.49010565211e-07
-3.93288937943e-07
-5.16531282511e-07
4.97170294624e-07
4.57154304861e-07
4.28119209174e-07
4.57865996984e-07
8.98755569046e-08
4.55442796062e-07
5.47432717509e-08
4.52960997355e-07
1.82880503308e-08
4.51377092949e-07
-1.15213697216e-08
4.51940849543e-07
-3.46084152496e-08
4.54446149433e-07
-5.65151372658e-08
4.58873895207e-07
-7.67238729272e-08
4.64973263022e-07
-9.61825724374e-08
4.72841800649e-07
-1.14645018698e-07
4.8238931766e-07
-1.32866605705e-07
4.93438306394e-07
-1.52219904711e-07
5.0646413087e-07
-1.7299862539e-07
5.22675306624e-07
-1.98365732117e-07
5.42668684963e-07
-2.36535252621e-07
5.60087146376e-07
-2.99324699103e-07
5.54280060638e-07
-3.87960701467e-07
-4.72786202063e-07
5.10252334122e-07
5.08117456372e-07
4.35413658618e-07
5.07272767413e-07
8.86576547559e-08
5.06924115364e-07
5.33689190358e-08
5.05339141826e-07
1.8361332361e-08
5.04196111221e-07
-1.17643028758e-08
5.04586447783e-07
-3.62786891723e-08
5.06429232107e-07
-5.95599665384e-08
5.09753848891e-07
-8.11299894381e-08
5.14391539622e-07
-1.0183476329e-07
5.20431931164e-07
-1.21597868605e-07
5.27816414591e-07
-1.41116520699e-07
5.36510057366e-07
-1.61711786207e-07
5.46961173555e-07
-1.8418544506e-07
5.59757110454e-07
-2.11818563895e-07
5.73572232663e-07
-2.50947284091e-07
5.80895302998e-07
-3.07162465271e-07
5.68044449486e-07
-3.7548214954e-07
-4.35817902067e-07
5.30409522569e-07
5.58128144936e-07
4.31120199176e-07
5.57566459477e-07
8.80170300264e-08
5.59359872027e-07
5.07064148969e-08
5.58581765461e-07
1.85658851162e-08
5.58034030848e-07
-1.15616564604e-08
5.58401357347e-07
-3.68900789521e-08
5.59787850344e-07
-6.11515160721e-08
5.62230602128e-07
-8.37971212179e-08
5.65650816008e-07
-1.0551817978e-07
5.70101770315e-07
-1.26361790528e-07
5.75576453943e-07
-1.46943515535e-07
5.82083107601e-07
-1.6862098708e-07
5.89887971865e-07
-1.9240262948e-07
5.98787317407e-07
-2.21126021783e-07
6.0630652573e-07
-2.58841115183e-07
6.05781249785e-07
-3.06968821849e-07
5.89058934591e-07
-3.59294961344e-07
-4.02878114059e-07
5.55966535445e-07
6.08673811682e-07
4.14633574715e-07
6.09147687791e-07
8.52419823896e-08
6.13234423161e-07
4.47402652455e-08
6.13121230989e-07
1.70661540363e-08
6.1322821658e-07
-1.30600981217e-08
6.1365674105e-07
-3.85768424393e-08
6.14714051384e-07
-6.33235824177e-08
6.16418028779e-07
-8.65269171788e-08
6.18761631587e-07
-1.08769196064e-07
6.21773357007e-07
-1.30225652356e-07
6.25473899993e-07
-1.51440497589e-07
6.2985282661e-07
-1.73721238349e-07
6.34876211669e-07
-1.98048686188e-07
6.3968213199e-07
-2.26519563808e-07
6.41470365729e-07
-2.6113311852e-07
6.35136357793e-07
-3.01111216218e-07
6.16455775832e-07
-3.40882080356e-07
-3.73290029831e-07
5.86121267945e-07
6.62073329024e-07
3.89371638944e-07
6.62194145191e-07
8.4190999093e-08
6.67897864371e-07
3.81601541297e-08
6.68538041541e-07
1.57277737057e-08
6.69327402111e-07
-1.44551846582e-08
6.69941970933e-07
-3.96980884646e-08
6.70786578357e-07
-6.46645003858e-08
6.71896302287e-07
-8.81051058971e-08
6.73286057077e-07
-1.10670709803e-07
6.74995187769e-07
-1.32438647717e-07
6.77004180624e-07
-1.53978898365e-07
6.79255431849e-07
-1.76487103116e-07
6.8138958306e-07
-2.00747868833e-07
6.82212779896e-07
-2.27853148791e-07
6.79140471538e-07
-2.58572016367e-07
6.68768668956e-07
-2.91138524656e-07
6.48845691468e-07
-3.21661747484e-07
-3.45404552545e-07
6.20608827967e-07
5.98541969777e-07
3.62518081523e-07
5.99998069447e-07
8.09448484477e-08
6.04276997651e-07
3.24392584961e-08
6.05725623308e-07
1.31373791013e-08
6.06770305422e-07
-1.64869512427e-08
6.07512236957e-07
-4.12287121819e-08
6.08164135789e-07
-6.60262990282e-08
6.08799270751e-07
-8.93344008887e-08
6.09406806315e-07
-1.117904587e-07
6.09980086236e-07
-1.33475549262e-07
6.10486059258e-07
-1.55032594908e-07
6.10846524172e-07
-1.77168672942e-07
6.10604196151e-07
-2.00615799108e-07
6.0858207284e-07
-2.26106616945e-07
6.03117840908e-07
-2.5320144679e-07
5.92202924989e-07
-2.80480841284e-07
5.75134010092e-07
-3.04550506551e-07
-3.23361341059e-07
5.52501266905e-07
7.28846724286e-07
3.3303324356e-07
7.32339836866e-07
7.65751444388e-08
7.36131739973e-07
2.77543495893e-08
7.38488991089e-07
9.87478153479e-09
7.40128646107e-07
-1.88990616082e-08
7.41226508409e-07
-4.31114653727e-08
7.41951970098e-07
-6.74252566819e-08
7.42361424921e-07
-9.04002195362e-08
7.42486450835e-07
-1.12495089618e-07
7.42219779637e-07
-1.3393620149e-07
7.41626209962e-07
-1.54745989451e-07
7.40391396443e-07
-1.76128543649e-07
7.37864104126e-07
-1.98199779475e-07
7.33020469764e-07
-2.21075382324e-07
7.24157343033e-07
-2.44335862389e-07
7.1027262421e-07
-2.6621657623e-07
6.90522018715e-07
-2.85143540865e-07
-2.98964200843e-07
6.66292792437e-07
8.85902632332e-07
2.98938596125e-07
8.90061882208e-07
7.13837140632e-08
8.93745211003e-07
2.34713672389e-08
8.96858698542e-07
6.47790712936e-09
8.98951803606e-07
-2.14731839398e-08
9.00346075313e-07
-4.47451055312e-08
9.01006670944e-07
-6.85174151894e-08
9.01093352864e-07
-9.07399024486e-08
9.00405358023e-07
-1.12292169185e-07
8.99084426219e-07
-1.32652321737e-07
8.96705880776e-07
-1.52857611474e-07
8.93275513955e-07
-1.72626860328e-07
8.87886128765e-07
-1.92737988053e-07
8.79539657187e-07
-2.1254463365e-07
8.67227357969e-07
-2.31689895396e-07
8.49948551805e-07
-2.48849475531e-07
8.28136573107e-07
-2.62884274255e-07
-2.73125582831e-07
8.01932820931e-07
1.07461834537e-06
2.63462276812e-07
1.080920566e-06
6.46392149108e-08
1.08441608778e-06
1.96114293486e-08
1.0883057076e-06
2.34579418514e-09
1.09090423277e-06
-2.38703274526e-08
1.09233527777e-06
-4.62635781823e-08
1.09280152642e-06
-6.86853592064e-08
1.09199934968e-06
-8.99716546459e-08
1.09029333714e-06
-1.10100022864e-07
1.08687588278e-06
-1.29664701491e-07
1.08241697905e-06
-1.47982013875e-07
1.07569618711e-06
-1.66219196286e-07
1.06683637078e-06
-1.83535595881e-07
1.0543928142e-06
-2.00266925761e-07
1.03834028037e-06
-2.15235922896e-07
1.01779200787e-06
-2.2831987586e-07
9.93446719527e-07
-2.3833656139e-07
-2.45532848862e-07
9.6590311234e-07
1.29877868941e-06
2.32152802582e-07
1.3089520985e-06
5.3898085228e-08
1.31315787797e-06
1.54302933008e-08
1.31798779501e-06
-2.27795641815e-09
1.32072661495e-06
-2.64473511049e-08
1.32217807449e-06
-4.72590283707e-08
1.32184085935e-06
-6.80999873494e-08
1.32014058323e-06
-8.76084112859e-08
1.3163496815e-06
-1.06307160246e-07
1.31109615921e-06
-1.23779198011e-07
1.30316776261e-06
-1.40457032514e-07
1.29333928287e-06
-1.5604202165e-07
1.2800124034e-06
-1.70750652868e-07
1.26398787629e-06
-1.83866693159e-07
1.24363176283e-06
-1.95442394432e-07
1.22050423228e-06
-2.04664219003e-07
1.19325764908e-06
-2.11752907486e-07
-2.16215585905e-07
1.16457115228e-06
1.56873545569e-06
2.08851831095e-07
1.5814478621e-06
4.17301879675e-08
1.58687655083e-06
1.01398704307e-08
1.59236961617e-06
-7.54188921393e-09
1.59510124242e-06
-2.90273155842e-08
1.59594088036e-06
-4.78755011589e-08
1.59449283273e-06
-6.64146344315e-08
1.59086180185e-06
-8.37109119949e-08
1.58491974131e-06
-1.00067145001e-07
1.5763811576e-06
-1.1526500547e-07
1.56527856773e-06
-1.29316778997e-07
1.55117139335e-06
-1.42168888223e-07
1.53413946426e-06
-1.5373194577e-07
1.51367182543e-06
-1.63712153957e-07
1.49027329157e-06
-1.71985130087e-07
1.46363279518e-06
-1.78354398877e-07
1.434973376e-06
-1.82875458818e-07
-1.85632613387e-07
1.40387213657e-06
1.89188449528e-06
2.01102888422e-07
1.90843416336e-06
2.53561605299e-08
1.91425574241e-06
4.1777472571e-09
1.92033185699e-06
-1.36416621152e-08
1.92252143823e-06
-3.12686554306e-08
1.92212091376e-06
-4.75301048408e-08
1.91875538889e-06
-6.30467289394e-08
1.9123951892e-06
-7.74736733804e-08
1.90327726966e-06
-9.0890910074e-08
1.89091963151e-06
-1.03152989817e-07
1.87586165354e-06
-1.1420327268e-07
1.85738026074e-06
-1.24030053866e-07
1.83631081067e-06
-1.32554594513e-07
1.81182980723e-06
-1.39609083184e-07
1.78528510125e-06
-1.45178287309e-07
1.75577096491e-06
-1.49224854792e-07
1.72536196636e-06
-1.51873950876e-07
-1.53279854812e-07
1.69258393964e-06
2.28284601204e-06
2.14444312651e-07
2.30477963455e-06
2.31841004006e-09
2.31105012366e-06
-2.22849516867e-09
2.31693645958e-06
-2.01533345575e-08
2.31797021604e-06
-3.24948971442e-08
2.31556843454e-06
-4.5394875343e-08
2.30964904528e-06
-5.71029674097e-08
2.29993644353e-06
-6.78957262097e-08
2.28707193711e-06
-7.79336797982e-08
2.27046209421e-06
-8.67809079092e-08
2.25115455985e-06
-9.47209126844e-08
2.22817470907e-06
-1.01470118526e-07
2.20310142174e-06
-1.07232314863e-07
2.17466083083e-06
-1.11717033849e-07
2.14501633324e-06
-1.15181472675e-07
2.11259627389e-06
-1.17472475611e-07
2.08023048672e-06
-1.18909755154e-07
-1.19497275006e-07
2.04561525031e-06
1.67720882286e-06
2.14946087032e-07
1.68684799246e-06
-9.2610907397e-09
1.69034218983e-06
-8.81264917528e-09
1.69228371578e-06
-2.38855582679e-08
1.69147486703e-06
-3.23819235906e-08
1.68746809957e-06
-4.23699797595e-08
1.68166867604e-06
-5.09783010726e-08
1.67231560668e-06
-5.94780464722e-08
1.66186808036e-06
-6.67109807601e-08
1.64801045644e-06
-7.3684146163e-08
1.63348774852e-06
-7.93249176478e-08
1.61589428621e-06
-8.45375697012e-08
1.59809816846e-06
-8.84517609318e-08
1.57751557736e-06
-9.18599521295e-08
1.55740349968e-06
-9.40019852055e-08
1.53491620792e-06
-9.57247826343e-08
1.51364762892e-06
-9.63728142082e-08
-9.6824781271e-08
1.49043804015e-06
1.46706335089e-06
2.10985334616e-07
1.47319554613e-06
-1.84316203394e-08
1.4768178367e-06
-1.23305059121e-08
1.4766345688e-06
-2.63900830095e-08
1.4746300364e-06
-3.20226015003e-08
1.47013057136e-06
-3.96726270899e-08
1.46346684851e-06
-4.56248610147e-08
1.45512170933e-06
-5.14205839067e-08
1.44434884602e-06
-5.70040506436e-08
1.43260817823e-06
-6.17059384481e-08
1.41876740672e-06
-6.60844237592e-08
1.40429344293e-06
-6.96218146932e-08
1.3880293893e-06
-7.26684216773e-08
1.3716326143e-06
-7.48517566796e-08
1.35370236223e-06
-7.65339993151e-08
1.33623589622e-06
-7.7482378138e-08
1.31751700962e-06
-7.80731488442e-08
-7.80970738695e-08
1.29976922778e-06
1.28311619503e-06
1.97809398924e-07
1.29048050833e-06
-2.68081971188e-08
1.29031684492e-06
-1.74547937658e-08
1.29081299814e-06
-2.76925856215e-08
1.28798957215e-06
-3.10436984693e-08
1.2838722935e-06
-3.5770566784e-08
1.27725358923e-06
-4.03660063084e-08
1.26900328837e-06
-4.45834216859e-08
1.25957001007e-06
-4.8246088061e-08
1.24857554129e-06
-5.18158828396e-08
1.23671350296e-06
-5.46675874571e-08
1.22387006939e-06
-5.7125922044e-08
1.21021256328e-06
-5.91308901346e-08
1.19596546438e-06
-6.05984545045e-08
1.18114802139e-06
-6.17552994006e-08
1.16612952164e-06
-6.23018398426e-08
1.15094602943e-06
-6.27145888107e-08
-6.27469795663e-08
1.13563234042e-06
1.12750905329e-06
1.82281923638e-07
1.13001626515e-06
-2.97201261159e-08
1.13052596198e-06
-1.47021630298e-08
1.12975763621e-06
-2.86141129522e-08
1.12744364311e-06
-2.87839987874e-08
1.1227007521e-06
-3.30266103354e-08
1.11676559232e-06
-3.49652352419e-08
1.10934158368e-06
-3.77291137478e-08
1.10053525483e-06
-4.04577248593e-08
1.0910693952e-06
-4.2558558891e-08
1.08056970338e-06
-4.47551533076e-08
1.0693522148e-06
-4.63869690202e-08
1.05764156769e-06
-4.77454141165e-08
1.04517335836e-06
-4.86825813969e-08
1.03283320841e-06
-4.91605819117e-08
1.01968396147e-06
-4.96161764721e-08
1.00708791937e-06
-4.95774779334e-08
-4.92815250505e-08
9.93330666273e-07
9.74549894403e-07
1.69660356757e-07
9.9167215549e-07
-4.77718573848e-08
9.89513841908e-07
-1.68558195089e-08
9.90851030961e-07
-2.84527234805e-08
9.87982096577e-07
-2.56199926591e-08
9.84120440129e-07
-2.75414981789e-08
9.78232609711e-07
-2.93882565497e-08
9.71386368862e-07
-3.13491833426e-08
9.63898491459e-07
-3.29465386132e-08
9.55271005921e-07
-3.48898866329e-08
9.46419578471e-07
-3.5960347997e-08
9.36729475843e-07
-3.7131076886e-08
9.26739896464e-07
-3.77510821974e-08
9.16220961387e-07
-3.84346866021e-08
9.05398376675e-07
-3.87632059719e-08
8.94596714098e-07
-3.87919987104e-08
8.83714095232e-07
-3.9056123156e-08
-4.1344329974e-08
8.75831698936e-07
9.08637376015e-07
1.05974737585e-07
8.64191503428e-07
-1.0856138963e-09
8.65270140497e-07
-1.36320095819e-08
8.66499874967e-07
-2.89582130472e-08
8.63518958494e-07
-2.17916656859e-08
8.5910582216e-07
-2.3731315805e-08
8.5386771872e-07
-2.3477516453e-08
8.47801144906e-07
-2.48757237764e-08
8.40900103453e-07
-2.61565145561e-08
8.33734889913e-07
-2.69107657337e-08
8.25796155851e-07
-2.80406109118e-08
8.17649774057e-07
-2.86327021443e-08
8.08724319343e-07
-2.92618098544e-08
7.99597707297e-07
-2.93072181211e-08
7.90120541388e-07
-2.92630995561e-08
7.8022529966e-07
-2.91779592965e-08
7.69981743348e-07
-2.86958574423e-08
-2.07054249948e-08
7.49296844082e-07
5.27504269012e-07
3.11424932348e-07
7.75400805228e-07
-2.47278440793e-07
7.64254407622e-07
-2.48193235787e-09
7.68466867447e-07
-3.10035680765e-08
7.65496657705e-07
-1.65735124306e-08
7.62439339395e-07
-1.88933289883e-08
7.58330739963e-07
-1.87791260293e-08
7.53667735302e-07
-1.98126974427e-08
7.48532004393e-07
-2.04003324783e-08
7.42875854432e-07
-2.1299354168e-08
7.36944573281e-07
-2.15008226116e-08
7.30305760049e-07
-2.17845770475e-08
7.23361004423e-07
-2.17288865495e-08
7.16084500066e-07
-2.18023211028e-08
7.08703818524e-07
-2.17241033968e-08
7.01216562305e-07
-2.12297208892e-08
6.92950244088e-07
-2.07465996145e-08
-4.08483015272e-08
7.13208761533e-07
1.27678077858e-06
-3.23969274773e-07
6.35320953617e-07
3.97752543367e-07
6.58753595516e-07
-2.27556812609e-08
6.64233206907e-07
-3.06585098277e-08
6.56811655503e-07
-1.00758316996e-08
6.5078017761e-07
-1.19727960159e-08
6.44413320468e-07
-1.13547664056e-08
6.37819287197e-07
-1.24337058211e-08
6.30939317294e-07
-1.29430648116e-08
6.23718163975e-07
-1.31985559315e-08
6.1615488681e-07
-1.34651061867e-08
6.08692727382e-07
-1.37176834177e-08
6.01190336593e-07
-1.39276197217e-08
5.93421898664e-07
-1.35880171462e-08
5.85398879141e-07
-1.3223875647e-08
5.78099676108e-07
-1.36861504903e-08
5.74924017626e-07
-1.70147414406e-08
5.90064101479e-09
5.27932505119e-07
-6.7865170242e-07
9.14086309983e-07
6.1976916128e-07
-8.96813558213e-07
6.2004671388e-07
-1.86522487625e-08
5.96815534788e-07
-1.69831258693e-09
5.98676167626e-07
-1.03824916489e-08
5.97670072906e-07
-9.65515221013e-09
5.9749342191e-07
-9.85246507832e-09
5.96497867045e-07
-1.04897280757e-08
5.95306392725e-07
-1.08886478848e-08
5.94055741058e-07
-1.13406401659e-08
5.9289118229e-07
-1.14420777175e-08
5.9112170826e-07
-1.11382663301e-08
5.88566555785e-07
-1.06324376156e-08
5.85676350812e-07
-1.00752382862e-08
5.82393656588e-07
-9.3708085657e-09
5.76144178525e-07
-6.79013417655e-09
5.54371037413e-07
4.77068491585e-09
-1.92196777824e-09
5.62642239085e-07
1.40486832884e-06
-2.74286777512e-09
4.41995194047e-07
7.05085091517e-08
5.37044297975e-07
-1.08421869862e-07
5.33898610464e-07
8.23702320725e-09
5.25205942954e-07
5.19107889021e-10
5.1947955415e-07
-2.33855674728e-09
5.13446045085e-07
-2.33192267823e-09
5.08592703902e-07
-4.5274128596e-09
5.04083316188e-07
-5.46354265917e-09
4.99947103062e-07
-6.27013749185e-09
4.96112454537e-07
-6.46067435287e-09
4.92540295909e-07
-6.46117430916e-09
4.89065787082e-07
-6.2526531649e-09
4.85114906983e-07
-5.37564179985e-09
4.80142127965e-07
-3.69301461364e-09
4.77169766834e-07
-3.29900469269e-09
4.91239264483e-07
-8.74593638076e-09
9.47683743527e-09
4.80152438085e-07
4.17859879495e-07
4.88775288826e-07
3.81002350901e-07
3.89458915402e-07
3.90142276767e-07
3.87975992558e-07
3.85780762698e-07
3.81376564702e-07
3.76040577404e-07
3.69945540872e-07
3.63671063955e-07
3.57374436629e-07
3.51265716936e-07
3.46031000341e-07
3.42470271733e-07
3.39290595095e-07
3.30640637881e-07
3.40317408099e-07
-1.32950081204e-07
2.09332936558e-07
-1.56550799806e-07
1.05787862524e-07
-1.22083359818e-07
6.36467655402e-09
-7.34346093561e-08
-1.69873024153e-08
-4.6587613201e-08
-1.15601398844e-08
-2.91343148778e-08
-1.54610680121e-09
-2.78868214949e-08
6.90374101436e-09
-3.00561369357e-08
1.22654105764e-08
-3.86360805047e-08
1.43202789305e-08
-4.54191742215e-08
1.40057509235e-08
-5.32734795194e-08
1.20353589062e-08
-5.708786488e-08
9.2893876882e-09
-6.01514030357e-08
6.14578003106e-09
-5.90481286653e-08
3.09552320546e-09
-5.70076023534e-08
1.99291479994e-10
-5.14512099681e-08
-2.30843388303e-09
-4.53082867595e-08
-4.52230283318e-09
-3.64161697044e-08
-6.32459571437e-09
-2.72971929388e-08
-7.85972146003e-09
-1.60538628286e-08
-9.05211918078e-09
-4.89657676074e-09
-1.00620305355e-08
7.88309026386e-09
-1.08057258784e-08
2.04639167621e-08
-1.14282348692e-08
3.42347103214e-08
-1.18669856204e-08
4.76355503763e-08
-1.22279835568e-08
6.19078186262e-08
-1.24398182163e-08
7.56489741986e-08
-1.26129280074e-08
8.99992840747e-08
-1.26627406242e-08
1.03706774691e-07
-1.26814297318e-08
1.17801481969e-07
-1.25993913387e-08
1.31117534521e-07
-1.25051413792e-08
1.44691846336e-07
-1.23174946514e-08
1.57456349415e-07
-1.21274290192e-08
1.70340725543e-07
-1.18674366215e-08
1.82371311462e-07
-1.1623761774e-08
1.94471788613e-07
-1.13150839031e-08
2.05781550294e-07
-1.10343740717e-08
2.17096047718e-07
-1.07096395934e-08
2.27687677738e-07
-1.04208833249e-08
2.38245661657e-07
-1.01014303874e-08
2.48160492601e-07
-9.82608227693e-09
2.58011514308e-07
-9.53154280695e-09
2.67312336518e-07
-9.28352756801e-09
2.76531247714e-07
-9.0250343638e-09
2.85300125752e-07
-8.81118512334e-09
2.93978769417e-07
-8.59294934797e-09
3.02307353692e-07
-8.41408608416e-09
3.10547935444e-07
-8.23438319764e-09
3.18521077551e-07
-8.08851488049e-09
3.26417359812e-07
-7.94643573927e-09
3.34129293477e-07
-7.84175879667e-09
3.41796823573e-07
-7.75330981374e-09
3.49347225378e-07
-7.69851599902e-09
3.56892910657e-07
-7.65688196451e-09
3.64361814896e-07
-7.64402451578e-09
3.71871450711e-07
-7.63881768467e-09
3.79336943387e-07
-7.65474275252e-09
3.86855762053e-07
-7.66165114191e-09
3.942781497e-07
-7.629988745e-09
4.01526614248e-07
-7.40511755125e-09
4.08152728647e-07
-6.83305485366e-09
4.14038839842e-07
-6.05931670181e-09
4.19914153783e-07
-6.07954496523e-09
4.26110168319e-07
-6.38378135927e-09
4.32751190608e-07
-6.83131446389e-09
4.39898294804e-07
-7.33721909074e-09
4.47594355082e-07
-7.8608752797e-09
4.55798518729e-07
-8.38061987759e-09
4.64555283782e-07
-8.88256250726e-09
4.73786705529e-07
-9.3737344491e-09
4.83551348898e-07
-9.84896915495e-09
4.93749695364e-07
-1.03199820953e-08
5.04490243331e-07
-1.07755226959e-08
5.15615708701e-07
-1.12434263984e-08
5.27272406196e-07
-1.16827232204e-08
5.3924558425e-07
-1.21231118886e-08
5.51737609004e-07
-1.25127011218e-08
5.64464689644e-07
-1.28829219954e-08
5.77696704006e-07
-1.31522466554e-08
5.90972831499e-07
-1.34037101227e-08
6.04653920549e-07
-1.35210822746e-08
6.1818299042e-07
-1.3588137888e-08
6.32011309043e-07
-1.34442183549e-08
6.45285631363e-07
-1.32381316608e-08
6.58580496265e-07
-1.27016414807e-08
6.70866625287e-07
-1.19585431467e-08
6.82549528368e-07
-1.06332521205e-08
6.93056228712e-07
-8.72936034629e-09
7.0192659269e-07
-6.44745073531e-09
7.10816827395e-07
-2.20063076374e-09
7.16534287857e-07
1.87152767331e-09
7.19584506963e-07
6.91764141937e-09
7.17559193057e-07
1.246787724e-08
7.0986378874e-07
2.03865843499e-08
6.93780359745e-07
2.91369390511e-08
6.70885623018e-07
3.86784171499e-08
6.41193070275e-07
4.5406243605e-08
6.21499817053e-07
3.86486641067e-08
6.19942464025e-07
2.02188115811e-08
6.29148488739e-07
1.42445645132e-08
6.57036082071e-07
-2.36486636e-09
7.07969043148e-07
-1.92094436045e-08
7.23029995708e-07
1.54843310346e-08
7.30035222904e-07
2.51054609737e-08
7.68390315253e-07
-2.04967237154e-09
7.39412891754e-07
6.00455192152e-08
6.99796476865e-07
5.93433683014e-08
6.54920053426e-07
5.87662092128e-08
6.11859798474e-07
5.31288888985e-08
5.75961702268e-07
4.36445188088e-08
5.5078457827e-07
3.0700396979e-08
5.33525942833e-07
2.15751583229e-08
5.20737045939e-07
1.55937712461e-08
5.11016841253e-07
1.18639256887e-08
5.02872649805e-07
9.21160084637e-09
4.96076696911e-07
7.51835350391e-09
4.89897809688e-07
6.15097330311e-09
4.84604370125e-07
5.30311439683e-09
4.79657351478e-07
4.58822106609e-09
4.75336838712e-07
4.20246031621e-09
4.711777716e-07
3.80854785681e-09
4.67399445355e-07
3.54276732604e-09
4.63684948732e-07
3.22122278974e-09
4.60058808108e-07
2.94542754957e-09
4.56392689911e-07
2.66272073453e-09
4.52769667282e-07
2.45648657286e-09
4.49144039026e-07
2.28670411594e-09
4.45553253218e-07
2.18850582855e-09
4.41960550327e-07
2.13203965079e-09
4.38359101169e-07
2.12756929793e-09
4.34720425396e-07
2.16004347717e-09
4.31011262417e-07
2.23014899878e-09
4.27203217029e-07
2.33206595298e-09
4.23248347395e-07
2.46956533146e-09
4.19104342518e-07
2.63904774244e-09
4.14721625881e-07
2.85351731311e-09
4.10049992704e-07
3.11549258983e-09
4.05103779129e-07
3.44899862214e-09
3.99831825076e-07
3.87335576422e-09
3.94200466544e-07
4.40740481458e-09
3.87996889661e-07
5.04645687982e-09
3.81156865107e-07
5.80531748351e-09
3.73470770935e-07
6.65171652958e-09
3.64895173362e-07
7.60566754041e-09
3.55252958377e-07
8.65553658129e-09
3.44490672591e-07
9.80366004852e-09
3.32467987661e-07
1.10321509846e-08
3.19170682932e-07
1.23029668004e-08
3.0455401478e-07
1.35861597091e-08
2.88687878922e-07
1.48043568096e-08
2.71664970209e-07
1.59272873177e-08
2.53659478826e-07
1.68489422218e-08
2.34914055223e-07
1.75591558452e-08
2.15698056512e-07
1.79367171891e-08
1.96376880878e-07
1.80196178484e-08
1.77249639244e-07
1.77043670284e-08
1.58722982877e-07
1.70970378228e-08
1.41038229711e-07
1.61165858003e-08
1.24575167686e-07
1.4914196521e-08
1.0947547651e-07
1.34084296385e-08
9.60289730032e-08
1.18067725827e-08
8.4189538835e-08
1.00615076325e-08
7.41015686811e-08
8.38918078519e-09
6.56003382106e-08
6.66615537804e-09
5.8828159682e-08
5.02710091962e-09
5.36406241602e-08
3.29637649394e-09
5.0274683644e-08
1.55312423481e-09
4.84910693323e-08
-1.99645099601e-10
4.84259244486e-08
-1.86729540821e-09
5.01204925279e-08
-3.83038603763e-09
5.39832768786e-08
-5.96835850133e-09
5.98182822111e-08
-8.16111890658e-09
6.72764822776e-08
-9.73787572958e-09
7.64101084017e-08
-1.1638804757e-08
8.58333271934e-08
-1.18409989554e-08
9.40145204701e-08
-1.08038771759e-08
9.95149692903e-08
-7.97786594479e-09
9.87452192482e-08
-1.96661930244e-09
8.62299396401e-08
9.6818683996e-09
2.65696897025e-08
5.63964394153e-08
5.87301939528e-08
1.82786452657e-07
1.23234264605e-07
6.33560729979e-08
1.06695083558e-07
3.53593811624e-08
7.64639231261e-08
2.53943228716e-08
5.0502668566e-08
2.20621348092e-08
3.5432036858e-08
2.17842677187e-08
2.67329168879e-08
2.12328364372e-08
2.61992715845e-08
1.90263405396e-08
2.9602308882e-08
1.5203880905e-08
3.82048657054e-08
1.04013541807e-08
4.85307870206e-08
5.18160001326e-09
6.17220193253e-08
8.15284231757e-11
7.52162239962e-08
-4.63442790298e-09
9.02219692736e-08
-8.76662961142e-09
1.04783099239e-07
-1.22908789968e-08
1.20129385576e-07
-1.51801071351e-08
1.3468574026e-07
-1.75097886696e-08
1.49655974036e-07
-1.93053070022e-08
1.63734003479e-07
-2.06732335616e-08
1.77992213228e-07
-2.16500065302e-08
1.91378109276e-07
-2.23157164677e-08
2.04823306927e-07
-2.27133942238e-08
2.17416229963e-07
-2.29168936072e-08
2.30003865581e-07
-2.29360051223e-08
2.41777324922e-07
-2.28414701661e-08
2.5342072726e-07
-2.26431618397e-08
2.64298859585e-07
-2.2374148e-08
2.75056771903e-07
-2.20405424203e-08
2.85078773248e-07
-2.16784753111e-08
2.94975782829e-07
-2.12797025739e-08
3.04215595927e-07
-2.08714189812e-08
3.13390747164e-07
-2.04419002709e-08
3.2198663536e-07
-2.00226992387e-08
3.30545589677e-07
-1.95948673292e-08
3.38632855275e-07
-1.91804751371e-08
3.46726390816e-07
-1.87655827392e-08
3.54443545597e-07
-1.83692145311e-08
3.62197236017e-07
-1.79731952673e-08
3.69650312824e-07
-1.75992661659e-08
3.7712970493e-07
-1.72303928587e-08
3.84362444742e-07
-1.688267045e-08
3.91597949394e-07
-1.65416004362e-08
3.98621712121e-07
-1.62193417446e-08
4.05614462287e-07
-1.59026382617e-08
4.1241693831e-07
-1.56007369609e-08
4.19149964674e-07
-1.53018838962e-08
4.25704603851e-07
-1.50133821908e-08
4.32152437292e-07
-1.47261205697e-08
4.38423599727e-07
-1.44449188278e-08
4.44548751801e-07
-1.41614612134e-08
4.50471543934e-07
-1.38798431856e-08
4.56201056638e-07
-1.36002857201e-08
4.61694624325e-07
-1.33331698701e-08
4.66971401715e-07
-1.30790921039e-08
4.71998293007e-07
-1.28371623327e-08
4.76791845664e-07
-1.25916337248e-08
4.8128208606e-07
-1.23279480208e-08
4.85445936624e-07
-1.19994652996e-08
4.89163222906e-07
-1.15420029679e-08
4.92452892993e-07
-1.08779169597e-08
4.95469953569e-07
-1.00489453972e-08
4.98068534947e-07
-8.85023902681e-09
4.99085838821e-07
-7.29655906186e-09
4.98884252346e-07
-6.37876671456e-09
4.97747310622e-07
-5.88594137818e-09
4.95927994787e-07
-5.70949704255e-09
4.93676634821e-07
-5.78388693635e-09
4.9117922507e-07
-6.05472333607e-09
4.88627891849e-07
-6.47471632404e-09
4.86118965777e-07
-7.0054562364e-09
4.83778314906e-07
-7.61238829892e-09
4.81626886902e-07
-8.27896435395e-09
4.79747879119e-07
-8.98284495438e-09
4.78123823998e-07
-9.71247802178e-09
4.76819029319e-07
-1.04565525881e-08
4.75780004957e-07
-1.12076660547e-08
4.75117917962e-07
-1.19278736395e-08
4.74765224908e-07
-1.26150529472e-08
4.74816494891e-07
-1.32245614563e-08
4.75122052082e-07
-1.37566542302e-08
4.7580315842e-07
-1.4141750488e-08
4.76651625093e-07
-1.43741432393e-08
4.77759155753e-07
-1.43423180131e-08
4.78749062513e-07
-1.40376052349e-08
4.79676550814e-07
-1.32868971221e-08