/*--------------------------------*- C++ -*----------------------------------*\
| =========                 |                                                 |
| \\      /  F ield         | OpenFOAM: The Open Source CFD Toolbox           |
|  \\    /   O peration     | Version:  v1806                                 |
|   \\  /    A nd           | Web:      www.OpenFOAM.com                      |
|    \\/     M anipulation  |                                                 |
\*---------------------------------------------------------------------------*/
FoamFile
{
    version     2.0;
    format      ascii;
    class       volScalarField;
    location    "7";
    object      sensitivity;
}
// * * * * * * * * * * * * * * * * * * * * * * * * * * * * * * * * * * * * * //

dimensions      [0 2 -3 0 0 0 0];


internalField   nonuniform List<scalar> 
12225
(
6.02012596296
-9.07486902862
-3.7457619554
-4.86655409673
-4.90774522687
-5.16113921094
-5.39399583413
-5.54159773645
-5.56932877189
-5.57629137622
-5.69574344786
-5.91344906591
-6.33825842608
-7.18589951736
-8.77368190848
-11.5675436796
-15.4315094256
-16.9429299702
-23.9550903335
-8.11623761853
-8.10221347855
-7.70228857212
-7.27848661808
-7.16344429534
-7.09985757067
-7.22782376299
-7.5430108812
-8.1100159442
-8.95373387269
-9.98697701756
-11.2708254213
-12.9421853132
-15.1391643391
-17.886216523
-20.4728029834
-19.4589612911
2.80830171696
-5.55370573762
-7.03876379545
-6.28734118692
-6.34052370794
-6.32986628873
-6.43794665115
-6.60071487558
-6.80638683837
-7.09109838765
-7.5018324496
-8.06967004958
-8.9020125569
-10.1406675934
-11.9347375208
-14.2607215829
-16.2978634656
-15.5221657881
-9.50521535536
-9.03785241383
-7.96756796854
-8.05660289316
-7.89843184425
-7.89513149816
-7.90033908363
-7.95390238268
-8.03581918796
-8.18735974804
-8.44782022969
-8.86037833408
-9.51235609095
-10.4930233201
-11.8551395588
-13.4445596492
-14.4745539139
-13.4318406013
-7.93416463273
-8.4633018944
-8.46158248324
-8.30492732713
-8.20744850561
-8.17212727186
-8.15973946123
-8.19875019758
-8.27613016077
-8.43027322817
-8.69087824549
-9.09456768665
-9.70033798615
-10.557426035
-11.6478737352
-12.7411943245
-13.1902050748
-12.1914617384
-9.30558270413
-9.06780189759
-8.95627565794
-8.85896987249
-8.74016886866
-8.6885200201
-8.64396359373
-8.64983277908
-8.69285979523
-8.81007147908
-9.02557064116
-9.37110896547
-9.88413285933
-10.5821718304
-11.4003496852
-12.0945815313
-12.2011091168
-11.3465291827
-9.93495413447
-9.31776614598
-9.34944573747
-9.26070840586
-9.1555997284
-9.10544482985
-9.05212410057
-9.04597901819
-9.07218504845
-9.16510393355
-9.34317703353
-9.63131376881
-10.0484373338
-10.587031145
-11.1591124993
-11.5503066753
-11.4639580958
-10.7547833716
-10.4161961334
-9.53414909453
-9.65837658781
-9.5866849548
-9.49693652978
-9.45440304618
-9.40048432657
-9.39052465411
-9.40711860744
-9.48145450202
-9.62618181954
-9.85872383651
-10.1823830677
-10.5730966227
-10.9393311763
-11.1141260693
-10.9251984581
-10.334376605
-10.7287507702
-9.69453162378
-9.89671789488
-9.84337868864
-9.77126815902
-9.74048324037
-9.69160367392
-9.6831533882
-9.69468937277
-9.75419783194
-9.86883183696
-10.0485495558
-10.2852809287
-10.5465747663
-10.7499421361
-10.7767364887
-10.5360135908
-10.0344974185
-10.9294819781
-9.82151723453
-10.0792460672
-10.0471221303
-9.99130776175
-9.97420866019
-9.93285520122
-9.9280833754
-9.93616843426
-9.98229453648
-10.0685318019
-10.1987021347
-10.3574490993
-10.510586639
-10.5911297471
-10.5209325057
-10.257583559
-9.82172745848
-11.0529227735
-9.9276239223
-10.2033681689
-10.1957575097
-10.1547174992
-10.1524963538
-10.1195879318
-10.1193566746
-10.125071728
-10.1593519334
-10.219517325
-10.3044588345
-10.3955299258
-10.4620196384
-10.4538580001
-10.3228607194
-10.0530607668
-9.66883231893
-10.9564643946
-10.0038686032
-10.2164414842
-10.2491206538
-10.2134960902
-10.226449929
-10.2004762759
-10.205535472
-10.2105037007
-10.2355259305
-10.2742489622
-10.3236460345
-10.364720123
-10.3719361901
-10.309033895
-10.1467609527
-9.8823553916
-9.53807514333
-10.777264402
-10.0442946109
-10.1751954277
-10.2436911302
-10.2106210985
-10.2376815605
-10.2182695999
-10.2271055903
-10.2298557287
-10.2457362984
-10.2660901326
-10.2855164575
-10.28628818
-10.2493782972
-10.1499073066
-9.97192405165
-9.71911970719
-9.41302484633
-10.5615566325
-10.0570505036
-10.0943924516
-10.2030708389
-10.1656212348
-10.2049891554
-10.1897913104
-10.2018649886
-10.2018216207
-10.2076833773
-10.2081059199
-10.1986365672
-10.1642672213
-10.0914871839
-9.96586425789
-9.78055780524
-9.544567561
-9.27590373075
-10.3066757289
-10.0788848846
-10.0044810985
-10.1582001518
-10.1119599366
-10.1625592043
-10.1487720505
-10.1615502752
-10.1560473218
-10.1491941674
-10.1297155749
-10.0937814379
-10.0293023222
-9.92929917858
-9.78644413811
-9.60059676709
-9.3823326495
-9.14825437746
-10.0419757003
-10.0820875933
-9.90068210909
-10.0971862907
-10.0392704448
-10.0980476184
-10.0823831492
-10.0929858538
-10.0796543886
-10.0605258914
-10.0232911831
-9.96635948344
-9.88133310997
-9.76526633068
-9.61582462457
-9.43691955316
-9.23871408195
-9.03573217246
-9.81794746942
-10.0604898482
-9.78875095029
-10.0168915316
-9.94580804764
-10.008856721
-9.98770741566
-9.99259783645
-9.96938034001
-9.93740655077
-9.88555806695
-9.81428929889
-9.71777297326
-9.59567138017
-9.44908857028
-9.28290740077
-9.10675266753
-8.93198770028
-9.5691840378
-10.0252817531
-9.66640724222
-9.92050155021
-9.83533281289
-9.89867980257
-9.86928046511
-9.86569122077
-9.83112138595
-9.78724851041
-9.7240790762
-9.64385850476
-9.54267327981
-9.42191935056
-9.28413527376
-9.1342251203
-8.98039528772
-8.83199575306
-9.37939973262
-9.9584379048
-9.56531200642
-9.82403113541
-9.73035836814
-9.78973372919
-9.75261799114
-9.74123271804
-9.69783521291
-9.64594919176
-9.5764825023
-9.49298346231
-9.39278519579
-9.27798709453
-9.1515049338
-9.01774429601
-8.88340371154
-8.75659282856
-9.56632263898
-9.87610940009
-9.59335011062
-9.79424437977
-9.70815672228
-9.75195589417
-9.70700439362
-9.68518283373
-9.63324911973
-9.57384256405
-9.49911037188
-9.41325656099
-9.31385098828
-9.20299390579
-9.08363544839
-8.95964457229
-8.83717328897
-8.72362478409
-9.71608325234
-9.8358957273
-9.64848975498
-9.80770840946
-9.7280533792
-9.76004749777
-9.71019441906
-9.68249887612
-9.62588855465
-9.56326242036
-9.48678092348
-9.40104694309
-9.30336674992
-9.19621148097
-9.08161629352
-8.96399910575
-8.84824782771
-8.7420289075
-9.83483373931
-9.82450783619
-9.71033917886
-9.83756852896
-9.76766521874
-9.79093454301
-9.73807927463
-9.70510607151
-9.64594547795
-9.58116314546
-9.50392936754
-9.4191759677
-9.32393476724
-9.21982838299
-9.10931275323
-8.99628497178
-8.8854605548
-8.78374256347
-10.0378675401
-9.82025527929
-9.79561009819
-9.88824428616
-9.82673668697
-9.84125175713
-9.78590200168
-9.75013363857
-9.6879672537
-9.62177472268
-9.54432681531
-9.46003630801
-9.36616187365
-9.26443395951
-9.15720431503
-9.04745139611
-8.94018949419
-8.84059791129
-10.1923504808
-9.79675480813
-9.89580428304
-9.95120408502
-9.90492714493
-9.91068206567
-9.85379725944
-9.81332940526
-9.75017149419
-9.68295533273
-9.60602005825
-9.52368927314
-9.4325224632
-9.33431288427
-9.23099718714
-9.12631681159
-9.02382500727
-8.93413321163
-10.5462497103
-9.87357054315
-9.96098826365
-9.99600572017
-9.95484825746
-9.94829759683
-9.88901065865
-9.84631833487
-9.78137189004
-9.71387893331
-9.63566447933
-9.55258104642
-9.46154431301
-9.36401057737
-9.26170777772
-9.15534618946
-9.04664142565
-8.92752447135
-9.27788260339
-9.4430814798
-10.2799361275
-10.1741828534
-10.1852009242
-10.169424346
-10.121251097
-10.0841850019
-10.0275220994
-9.96709474783
-9.90045137604
-9.82737290724
-9.74588932468
-9.66113021205
-9.57524514295
-9.49029496963
-9.41241026366
-9.37661878575
-15.0715175083
-10.9585190073
-9.824949199
-10.0434617683
-9.91603999501
-9.86271568166
-9.76932978311
-9.69287603358
-9.60222984474
-9.51001581953
-9.40424327531
-9.30328879303
-9.20621905551
-9.10794517012
-9.0071047504
-8.90184912319
-8.77927133856
-8.6295824081
5.38660386593
-7.42515408314
-11.3182599652
-10.4774608221
-10.729793416
-10.6762051907
-10.7030333132
-10.7154727455
-10.7146230363
-10.7079172536
-10.6934709377
-10.6654417391
-10.6255599583
-10.5739544003
-10.5115215817
-10.4311039864
-10.3178265663
-10.0808591025
-35.599412056
-9.0491798766
-10.8885528693
-10.3397624211
-10.1840089627
-10.1161177354
-9.99238926735
-9.92013624208
-9.84896120556
-9.78389164083
-9.71872930814
-9.65123231636
-9.58598532951
-9.51919494537
-9.43448345217
-9.33108858865
-9.21679034922
-9.21185152788
-2.83755293126
-11.6960977514
-8.65026073457
-8.76334085509
-8.65798825746
-8.48169696313
-8.34092140003
-8.16230762906
-7.96042165337
-7.74595167304
-7.52177499361
-7.30072521597
-7.07131470236
-6.84728027466
-6.65561523547
-6.52255656599
-6.47355606215
-6.47533322332
0.00269744666758
0.0069129152543
-0.0103512948035
-0.0129495249183
-0.0132802480491
-0.0180850281056
-0.0266935821366
-0.0372834066923
-0.0482026756993
-0.0582050583793
-0.0663155608716
-0.0717817796607
-0.0740801722144
-0.0728390520046
-0.06788017802
-0.0591214440595
-0.0466270951391
-0.030494912578
-0.0108858858503
0.012075186266
0.0382237292005
0.0674713845178
0.099763274377
0.135079891525
0.173429933794
0.214851491864
0.259347563647
0.306900206049
0.357489515106
0.41103411095
0.467408574239
0.526448194861
0.588008992567
0.651873640589
0.717836076645
0.785661051112
0.855146997858
0.926054347455
0.998223374272
1.07142890722
1.14550845343
1.22021452559
1.29536760772
1.37069003591
1.44597688923
1.52094041997
1.59536863189
1.66898642062
1.7415921143
1.81295320334
1.88295776491
1.9515068361
2.01847203346
2.08355741887
2.14645308722
2.20684641418
2.26442107802
2.31873654378
2.36943848692
2.41588002903
2.45634083414
2.48917252003
2.51544713914
2.53640714171
2.55249792027
2.56374057301
2.56987080766
2.57038028155
2.56471047469
2.55230933977
2.53278059485
2.50582352439
2.47141027134
2.42965798056
2.38084597502
2.32531727333
2.26356361062
2.19611772605
2.12365504851
2.04670325719
1.96577084401
1.88137253686
1.79408974755
1.7042755117
1.61225902507
1.51852299385
1.42338743402
1.327575252
1.23086039272
1.13493833293
1.04130894826
0.949613203973
0.858534058855
0.767095026316
0.675591540837
0.583869351176
0.492503649546
0.408527170006
0.336642082087
0.274244529396
0.20805516223
0.130998696408
0.0748033261863
0.055549980655
0.0532195438065
0.0376961744211
-0.0227409691371
-0.0798713519489
-0.128724492732
-0.162234843404
-0.189482432314
-0.210761253063
-0.228439728415
-0.243622769706
-0.256832794165
-0.268417303663
-0.278627384336
-0.287696602488
-0.295807985163
-0.303104606642
-0.309679887907
-0.315625587644
-0.321056276617
-0.326080142905
-0.330831859653
-0.33543253595
-0.339975468729
-0.34452711207
-0.349126168666
-0.35379374972
-0.358529831405
-0.363324052786
-0.368150132665
-0.372980837572
-0.37777678285
-0.382496510452
-0.387091751397
-0.391527225842
-0.395747030622
-0.399663130582
-0.403113197929
-0.405949337148
-0.407972690929
-0.408959732303
-0.408656831142
-0.406787689369
-0.403071428973
-0.397250536622
-0.389114956248
-0.378523368787
-0.365418295165
-0.349845620137
-0.331981280559
-0.31213435963
-0.290734316575
-0.26829940142
-0.245404468876
-0.222635848719
-0.200555034682
-0.179657439858
-0.16042220021
-0.143195619703
-0.128118807212
-0.115203567135
-0.104482479846
-0.0960235261636
-0.0901069898086
-0.0871841284379
-0.087226840145
-0.0906028100311
-0.0984934164863
-0.111842671074
-0.13045568065
-0.151318919752
-0.171981660738
-0.185263246457
-0.187037855973
-0.171867377645
-0.134270212675
-0.0704171433831
0.013358412962
0.0338938579698
0.0260640693269
0.00594261225994
-0.0138099544795
-0.0277901096598
-0.0341075438247
-0.0322279380863
-0.0224967232735
-0.00575258857518
0.0170139352185
0.0448381273546
0.076870471624
0.112389195472
0.150780397943
0.19153922614
0.234225579722
0.278478966843
0.323982814038
0.370477907553
0.417761153061
0.465670794156
0.514092906479
0.562984475873
0.612353264468
0.662211192554
0.712637196037
0.76372716495
0.815603000961
0.86836320675
0.922138248527
0.977030210661
1.03316299096
1.09061806618
1.14950053679
1.2098595092
1.27177790361
1.33528345742
1.40043128874
1.46720566228
1.53561121171
1.60555487826
1.6769511833
1.74961674799
1.82336805317
1.89793447755
1.97304210453
2.04835488614
2.1235473681
2.19824486654
2.27197886153
2.34427049355
2.41480973073
2.4833191223
2.54952781458
2.61313198597
2.67375984015
2.73076321849
2.78331213254
2.83082975186
2.87324643669
2.90961234539
2.93698099587
2.95366880398
2.96014058541
2.95703599162
2.94504120213
2.9247309573
2.89652078759
2.86059039553
2.81696211497
2.7655488811
2.70627317589
2.63913676067
2.56435377661
2.48227411938
2.39353668301
2.29899035646
2.19966140319
2.09651226767
1.99052108214
1.88260769862
1.77369892946
1.66450231372
1.55538190577
1.44688340704
1.33985367617
1.2341648343
1.13006093241
1.02919793892
0.933233758253
0.841632592595
0.751658346736
0.664194370763
0.585110463544
0.514189397594
0.444039002845
0.36953107452
0.2908970974
0.21384975906
0.152287030685
0.152699388701
0.123814851819
0.0562418020736
-0.0239215148369
-0.125041159874
-0.192779901485
-0.243741964226
-0.270646597071
-0.296630005124
-0.320541000065
-0.341027193381
-0.359675394036
-0.376864919395
-0.393034365783
-0.408459489767
-0.423372585516
-0.437986485934
-0.452465018658
-0.466902122658
-0.481350083952
-0.495867099594
-0.510537640206
-0.525457364975
-0.540730061249
-0.556432213315
-0.572617804145
-0.589312769285
-0.606530853799
-0.624268821413
-0.642519690663
-0.661266216384
-0.680497121114
-0.700205746714
-0.7204028631
-0.741112061427
-0.762388192465
-0.784319549921
-0.807023371433
-0.830606876385
-0.855205992053
-0.881026376615
-0.908324324951
-0.937385257994
-0.968498826797
-1.00194028557
-1.03795774557
-1.076731911
-1.11832977931
-1.16265884536
-1.20943078104
-1.25813954734
-1.30804459943
-1.35814318779
-1.40719346672
-1.45379770171
-1.49649890766
-1.53387373663
-1.56465240554
-1.58776286906
-1.60244809521
-1.60851490541
-1.60642680387
-1.59713053227
-1.58192672
-1.56241413437
-1.54014418855
-1.51796085863
-1.49861294045
-1.48341539548
-1.47255502
-1.46507377458
-1.45998053206
-1.4517131241
-1.44157740714
-1.42284339929
-1.38944507366
-1.34084855984
-1.28353807722
-1.24196839019
-0.020543415646
-0.0224950115139
-0.0338654617448
-0.0515349735497
-0.0588615499472
-0.0511543348284
-0.0305839414591
-0.000557248461431
0.0359704444048
0.076747087207
0.120220318907
0.165352275683
0.211459181351
0.258129816518
0.30510934392
0.352274473126
0.399564316316
0.446976945983
0.49453407066
0.542308575531
0.590361942814
0.638787755365
0.687710170079
0.737248892805
0.787540341109
0.838735693176
0.890980074578
0.944401701086
0.999137907635
1.05528446178
1.11293363849
1.17213450337
1.23293449324
1.29531870391
1.35926535001
1.42469978671
1.49153896669
1.55963307429
1.62884608167
1.69896405004
1.76977449727
1.84098872091
1.91232543101
1.9834370237
2.05399287497
2.12362109162
2.1919783185
2.25871825367
2.32354620618
2.38615218953
2.44622478943
2.50337847176
2.55725072552
2.60760669454
2.6543011305
2.69723045325
2.73641793004
2.77188072245
2.80355871889
2.83154883307
2.85665765954
2.87966589085
2.90039539588
2.91649366937
2.92470583473
2.92265360215
2.90870366751
2.88190155285
2.84193757357
2.78907840909
2.72405937333
2.64794130839
2.56205429393
2.46785073317
2.36677779008
2.26025851899
2.14967935404
2.03633436176
1.92142793943
1.80599794303
1.69099196279
1.57715563843
1.46525595139
1.35580786666
1.24927716557
1.1460435927
1.04648677444
0.951067746006
0.860144684674
0.77558759567
0.699793432727
0.633138522767
0.576020786633
0.530224040044
0.482537043156
0.419470646477
0.364202934496
0.325646332196
0.327401833228
0.307288493127
0.242264152977
0.155733162842
0.082635986326
0.0223856823186
-0.0353428464979
-0.0993542591261
-0.166182883363
-0.239688626308
-0.302870455929
-0.359010644861
-0.407041408608
-0.448051037612
-0.484404571048
-0.517055213806
-0.546826103681
-0.574262019701
-0.599783492352
-0.623722183337
-0.646334876073
-0.667795375044
-0.688222989258
-0.707736592731
-0.726454897749
-0.744524115202
-0.762082173902
-0.779259689889
-0.796160648508
-0.812866502747
-0.829433880813
-0.845901320474
-0.862288205404
-0.878600644899
-0.894836898642
-0.910998300277
-0.927094136512
-0.943146270176
-0.959187472484
-0.975252695122
-0.991351841037
-1.00742298423
-1.02337236208
-1.03910108743
-1.05452424965
-1.06953555084
-1.08398971389
-1.09771642919
-1.11053816494
-1.12229346058
-1.13285435968
-1.14215491186
-1.15021841112
-1.15719173229
-1.16335584888
-1.16914448172
-1.17513940484
-1.18205244794
-1.19068777702
-1.20188495006
-1.21644290441
-1.2349933847
-1.25791664261
-1.28534710926
-1.31710880142
-1.35261724695
-1.39087801845
-1.43060328064
-1.47018749669
-1.50827706946
-1.54354230858
-1.57410400664
-1.5980858974
-1.61373057017
-1.61932265989
-1.61191010406
-1.58923884159
-1.55009791121
-1.49199168574
-1.41717065862
-1.335924292
-1.26989948642
-0.147353111554
-0.124134631897
-0.0863623619053
-0.0730914697989
-0.0568668097775
-0.0289036171587
0.00884341154791
0.0526420770239
0.0995397035824
0.147606255562
0.19564875548
0.242980951017
0.289229516784
0.33422809224
0.377920279796
0.420347385571
0.461581944698
0.501760813432
0.541025334515
0.579545347941
0.617516643396
0.655152255362
0.692652524231
0.730258400436
0.76821370783
0.806739877209
0.84607873603
0.886451739403
0.928069126177
0.971104923731
1.01572405123
1.06204045009
1.11014531118
1.16007866941
1.21186005821
1.26543591783
1.32074490183
1.37766062335
1.43604055247
1.49567527525
1.55635679948
1.61780963897
1.6797682041
1.74191931289
1.80396834688
1.86559217895
1.92650436716
1.98642908081
2.04514067961
2.10241031398
2.15805683354
2.21186928787
2.26356580117
2.31285364888
2.3594789495
2.40316902986
2.44365610428
2.48060736641
2.51373346175
2.54227545488
2.5648954817
2.58131340388
2.59308783354
2.60057280865
2.60324993125
2.59976709962
2.58839908399
2.56733341728
2.53494600466
2.48998996156
2.43180338724
2.3604070056
2.27648608367
2.18131324158
2.07663306414
1.96444335326
1.84687079657
1.72596642323
1.60361281779
1.48150282952
1.36101452318
1.24317662225
1.12880585185
1.01880986544
0.91365919806
0.813786264775
0.719492537767
0.63256852898
0.555203151399
0.488199103182
0.435624421157
0.390044205983
0.336238903119
0.284692152296
0.244393769586
0.247714584661
0.278400926197
0.262225006914
0.175307445017
0.0326060267468
-0.0915716848069
-0.156374376337
-0.175792848965
-0.192173924661
-0.220625007908
-0.26872165385
-0.337058384317
-0.41961118329
-0.497762000369
-0.565174192149
-0.620995169367
-0.667191983308
-0.706535505991
-0.740650294721
-0.770832351053
-0.79801529657
-0.822905546784
-0.846034971432
-0.867792088928
-0.888452029472
-0.908200238168
-0.927193378866
-0.945571855032
-0.963468035599
-0.98099818177
-0.998264774141
-1.01534290821
-1.03228430606
-1.049115107
-1.06584272631
-1.08245548937
-1.09893174429
-1.11524808792
-1.13139633704
-1.14739287619
-1.16328597973
-1.17914493429
-1.19504415198
-1.21101926951
-1.22705016683
-1.2430914643
-1.25913984025
-1.27524135319
-1.2914542293
-1.30782709019
-1.32440439819
-1.34123080425
-1.35835408982
-1.37581948082
-1.39366643406
-1.41192185615
-1.43059266923
-1.44964906159
-1.46902002635
-1.4885929787
-1.5082183007
-1.5277169595
-1.54689113265
-1.56553864513
-1.58345113875
-1.6004424037
-1.61644065429
-1.63147343445
-1.64561221418
-1.65896164685
-1.67169192478
-1.68405874489
-1.69652697962
-1.70980539573
-1.72394931229
-1.73857842858
-1.75291521024
-1.7654739828
-1.77446787446
-1.77719411991
-1.77160905932
-1.75303937834
-1.7213220739
-1.68562222842
-1.65894183851
-0.321661390893
-0.158197405872
-0.0472045148224
-0.0264086903512
-0.014795181201
0.00965379130975
0.0459739135709
0.0898902136012
0.137920072626
0.187731655258
0.237873273095
0.287488129026
0.336056846163
0.38331398973
0.429110135506
0.473412678825
0.516229675017
0.557627681043
0.597696382916
0.636581240924
0.674415132106
0.711376355034
0.747674195761
0.783513421289
0.819120688425
0.85474293278
0.890623801605
0.926990571497
0.964081239865
1.00209596765
1.04122536987
1.0816120305
1.12338581026
1.16661147311
1.21132872004
1.25752533549
1.30516026165
1.35412867273
1.40432330774
1.45557762012
1.50772518844
1.56055891088
1.61389200592
1.66751490721
1.72124944596
1.77490568318
1.82833069749
1.88139259578
1.93401853061
1.98610252181
2.03747555324
2.08788815699
2.13705377197
2.18466008222
2.23043503159
2.2740653189
2.31513923536
2.35298793354
2.38674808449
2.41521161914
2.437127991
2.45137273452
2.45754687128
2.45543723745
2.44530721749
2.42722925507
2.40099995293
2.36611792985
2.32184518993
2.26736192826
2.20193853906
2.12514951894
2.03711191274
1.93851615544
1.83053579356
1.71483908095
1.59340800248
1.46829256454
1.34143373291
1.21470861572
1.0898884176
0.967995442764
0.850399417919
0.737877440728
0.632044711416
0.533621740353
0.443057874057
0.364150355873
0.294919768583
0.226091749728
0.162393968888
0.101384645862
0.0563165978093
0.0745467565978
0.10452019373
0.0846499513798
-0.0125172595362
-0.155407636843
-0.29930669158
-0.400434221083
-0.437698374192
-0.426391760688
-0.409688763872
-0.413156059035
-0.43996078212
-0.487967493209
-0.550326175311
-0.619462820761
-0.685118571962
-0.743110035176
-0.792302119407
-0.833662385302
-0.869031061847
-0.899753391467
-0.92694425506
-0.951457495934
-0.97392971863
-0.994840344709
-1.01453332703
-1.03324428766
-1.05114504202
-1.06835912641
-1.0850078935
-1.10118400822
-1.11697976855
-1.13247374875
-1.14772755819
-1.16277841723
-1.17764320348
-1.19231749785
-1.20678066286
-1.22100272401
-1.23495803646
-1.24864436128
-1.26209668001
-1.27539105757
-1.28862633672
-1.30188880804
-1.3152042799
-1.32853250086
-1.34180489755
-1.35500446609
-1.36815844999
-1.38130044298
-1.39445239828
-1.40762544136
-1.42082587185
-1.43405648246
-1.44731771039
-1.46060927315
-1.47393410484
-1.48729880246
-1.50071592163
-1.51420443935
-1.52779581605
-1.54153812706
-1.55550302043
-1.56977707314
-1.58445473112
-1.59960799201
-1.61528390781
-1.63153600527
-1.64839898025
-1.66581493151
-1.68361514748
-1.70154645946
-1.71933188954
-1.73680725522
-1.75390016925
-1.77016218291
-1.7848387122
-1.79699736543
-1.8055216111
-1.80901974541
-1.80691685589
-1.79788084295
-1.78038148622
-1.75714665503
-1.73693469244
-1.73214516448
-0.478177519297
-0.0495401307319
0.0958129441796
0.0601802436089
0.0337520270694
0.0378698122967
0.0626619728085
0.0992188624101
0.142024654282
0.18797288077
0.235215630121
0.282725760393
0.329861448505
0.376269873941
0.421711782191
0.466076900299
0.509282007576
0.55132875192
0.592225099752
0.632021025269
0.670800759578
0.70868038339
0.745784421524
0.782288374584
0.818383978682
0.854258517937
0.890136968395
0.926234754385
0.962775306048
0.999954134085
1.03796643669
1.07695938942
1.11705413373
1.1583187755
1.20078993317
1.24442792482
1.28916959142
1.33489358741
1.38145463242
1.42866366566
1.47634087267
1.52428479421
1.57233103114
1.62032264478
1.66814878949
1.71570370679
1.76291980091
1.80975137603
1.85619541739
1.90217889441
1.94752352925
1.99190279282
2.03488225056
2.07596858085
2.11467957284
2.15049666983
2.18289836325
2.21105774904
2.23427048884
2.25194859641
2.2635563299
2.26884199524
2.26871646881
2.26252040319
2.24959839639
2.22924908086
2.20067012277
2.16296818565
2.11525194484
2.05671637288
1.98675170974
1.90513227731
1.8121546775
1.70869961626
1.59612752051
1.47610696889
1.35062893973
1.22185473544
1.09149280522
0.961887972276
0.834516045738
0.711288484326
0.593483149775
0.481988395111
0.378352748183
0.284306616454
0.194907109101
0.110311259774
0.0300703061727
-0.0470932223985
-0.0856795727664
-0.0881530192957
-0.0810102280146
-0.0950253054079
-0.167459473795
-0.297912459725
-0.445911621514
-0.570631158221
-0.645708676224
-0.666584150761
-0.648784101176
-0.620310062861
-0.607709813847
-0.618446291167
-0.6499809103
-0.69639681669
-0.750259250852
-0.806186927355
-0.859479919115
-0.908148383275
-0.951197463291
-0.988752510578
-1.0216462894
-1.0506789183
-1.07661614993
-1.10010886599
-1.12167215001
-1.14170788891
-1.16053198563
-1.17837143082
-1.1953983099
-1.21174293647
-1.22750159014
-1.24275108911
-1.25756873401
-1.27202482269
-1.2861738094
-1.30004919253
-1.3136624924
-1.32700381129
-1.34004603647
-1.35275426402
-1.36510284486
-1.37709688193
-1.38878913395
-1.40027883691
-1.4116868339
-1.42310291844
-1.43454850345
-1.44596700153
-1.4572911225
-1.46850224358
-1.47962254923
-1.49068134749
-1.501699316
-1.51269031771
-1.52366461205
-1.53463079229
-1.54559528614
-1.5565657931
-1.56755256266
-1.57857140779
-1.58964431461
-1.60080155527
-1.6120804936
-1.62352986022
-1.63520942366
-1.64718460109
-1.65951716724
-1.67224832313
-1.6853931279
-1.69896698273
-1.71297413732
-1.72735918438
-1.74199081759
-1.75668570463
-1.77125090844
-1.78557124262
-1.7995751112
-1.81288901409
-1.82485628126
-1.83462036224
-1.84124832461
-1.84352879131
-1.84086281814
-1.83241036257
-1.8175200666
-1.79926572525
-1.78559768193
-1.78705716656
-0.563182448402
0.210700757241
0.291691608794
0.140888975644
0.0747978155139
0.0635815036333
0.0786607655976
0.106408887109
0.14054569593
0.178173960617
0.217656891486
0.258151444662
0.29903055452
0.339952403451
0.380614338399
0.420859406618
0.460527879143
0.499553577747
0.537874312716
0.57548231614
0.612368317435
0.648590472654
0.684233449576
0.719386835462
0.75416904159
0.788722471228
0.823202685785
0.857764033695
0.892583498513
0.927814069696
0.963608894315
1.00008011613
1.03732941861
1.07539485592
1.1142853324
1.15395832908
1.19433720642
1.23529410802
1.27669905232
1.31839318784
1.36023630714
1.4020960765
1.44389411163
1.48558595665
1.52718566945
1.56871824187
1.61022674012
1.65174275695
1.69332051565
1.73491113579
1.77626581744
1.8169147473
1.85620971747
1.89334138852
1.92748433215
1.95792037308
1.9840544327
2.00507982797
2.020290659
2.02894814293
2.03047287227
2.02603132263
2.01720631149
2.00435420176
1.98741244541
1.96573776822
1.9381025011
1.90280462687
1.85797880303
1.80195398659
1.73355148679
1.65218773766
1.55816685087
1.45275174126
1.33768348905
1.21503656212
1.08740084722
0.956783927628
0.825873935355
0.696772707652
0.570820675261
0.449671664338
0.336393683067
0.229168394821
0.125691874078
0.0301568663666
-0.0630949275211
-0.142957480643
-0.193293898334
-0.217282541122
-0.223492825192
-0.240184176354
-0.292582688725
-0.389087442762
-0.523121395108
-0.659771714473
-0.764549835577
-0.824699468082
-0.842013558447
-0.831253523626
-0.810481258873
-0.796320257113
-0.798632158288
-0.817909460745
-0.851028798139
-0.892980083451
-0.93868874407
-0.984907135828
-1.02933411769
-1.07082290859
-1.10860290974
-1.14246498638
-1.17268825541
-1.19968203862
-1.2239466867
-1.2459423848
-1.26608179949
-1.28471249982
-1.3021297701
-1.31857962238
-1.33423654298
-1.34923489678
-1.36364804405
-1.3775394999
-1.3909717569
-1.40400690618
-1.41669140996
-1.42905401145
-1.44109980426
-1.45281289961
-1.46415986612
-1.47510185573
-1.48561426784
-1.49571008685
-1.50545701495
-1.51497325883
-1.52438990276
-1.5337979281
-1.54320813764
-1.55256177832
-1.5617979715
-1.57089960361
-1.57988391809
-1.58877434096
-1.59758984701
-1.60634655688
-1.61505978522
-1.62374354691
-1.63241088351
-1.64107523158
-1.64975294514
-1.65846482132
-1.66723837798
-1.67610808887
-1.68511451788
-1.69430631928
-1.70373917852
-1.71347122683
-1.72355492407
-1.73402508155
-1.74489019077
-1.7561515343
-1.76779319591
-1.77975035306
-1.79189302502
-1.80405006266
-1.81603669863
-1.82771823827
-1.83898281771
-1.84948860864
-1.85866636326
-1.86579015798
-1.87013640633
-1.87075016191
-1.86720447728
-1.85913951491
-1.846614178
-1.8327821952
-1.82440879828
-1.8294198391
-0.542208031671
0.57901800538
0.480234757054
0.203840609677
0.12783833464
0.110539191115
0.115692335876
0.130990149268
0.151951334747
0.176810548267
0.204309877813
0.233832792548
0.264715989912
0.296617678338
0.329140398069
0.362087512471
0.395209950737
0.428418293615
0.461570099829
0.494588056828
0.527440582052
0.560154728669
0.592739180495
0.625235661027
0.657690465049
0.690159041842
0.722731702907
0.755498478343
0.788564662666
0.822017459847
0.855949288901
0.890413526262
0.92544475525
0.961034655557
0.997149679008
1.03369977924
1.07058163259
1.10766066765
1.14480270014
1.18187307211
1.21877690809
1.25545091705
1.29190570307
1.32820956621
1.36450583562
1.4009525593
1.43769027552
1.47478519907
1.51226969424
1.5500362459
1.58766627837
1.62441813727
1.65920670635
1.6905234657
1.7166770281
1.73678000809
1.75051282866
1.75740396814
1.75690104361
1.74873209361
1.73349420727
1.71612690938
1.69766802914
1.67909280874
1.6604097624
1.64068900007
1.61797035177
1.58934646213
1.55151072002
1.50165011016
1.43786112678
1.359218717
1.26626401765
1.16062896381
1.04512240329
0.922926515963
0.796168654245
0.667327634605
0.538842092
0.414786969357
0.29479787099
0.17782863007
0.0693652769989
-0.0338333167034
-0.136694656028
-0.218995679094
-0.279039848754
-0.317957305989
-0.343221264231
-0.368249498019
-0.40929407077
-0.481998737339
-0.583771500755
-0.702245886804
-0.819108163022
-0.910041975193
-0.964603547541
-0.98717835298
-0.987824603719
-0.979557225506
-0.972607322761
-0.973815005449
-0.986254150272
-1.00930700277
-1.04083637237
-1.07757223844
-1.11644677875
-1.1554536696
-1.19324368974
-1.22899709813
-1.26211426651
-1.29230937401
-1.31961168805
-1.3442160622
-1.36642807944
-1.38656528253
-1.40493859141
-1.4218577426
-1.43760701553
-1.45243706217
-1.46653552336
-1.48001367355
-1.49292878018
-1.50532755658
-1.51726120507
-1.52877958962
-1.53992210729
-1.55070977227
-1.56114203646
-1.57119635973
-1.58083470767
-1.59001614403
-1.59871914488
-1.60696551002
-1.61483585626
-1.62245994035
-1.62997132111
-1.63745622164
-1.64491767366
-1.65230225379
-1.65955840895
-1.66667159624
-1.67365365821
-1.68052083241
-1.68728920281
-1.69397421701
-1.7005947094
-1.70716830708
-1.71371374455
-1.72024831543
-1.72679316589
-1.73337163549
-1.74001484697
-1.74675819226
-1.75364380191
-1.76071823454