/*--------------------------------*- C++ -*----------------------------------*\
| =========                 |                                                 |
| \\      /  F ield         | OpenFOAM: The Open Source CFD Toolbox           |
|  \\    /   O peration     | Version:  v1806                                 |
|   \\  /    A nd           | Web:      www.OpenFOAM.com                      |
|    \\/     M anipulation  |                                                 |
\*---------------------------------------------------------------------------*/
FoamFile
{
    version     2.0;
    format      ascii;
    class       volVectorField;
    location    "7";
    object      U;
}
// * * * * * * * * * * * * * * * * * * * * * * * * * * * * * * * * * * * * * //

dimensions      [0 1 -1 0 0 0 0];


internalField   nonuniform List<vector> 
12225
(
(9.73694991295 0.0384711128593 0)
(9.50180881437 0.0417755074546 0)
(9.25057299494 0.0408545891988 0)
(9.00102817553 0.0401765644439 0)
(8.76261195571 0.0397664264229 0)
(8.53721045504 0.0393916503647 0)
(8.32395779655 0.0389398592079 0)
(8.12147976925 0.0383928099334 0)
(7.92858439019 0.0377785279591 0)
(7.74435948453 0.037140348488 0)
(7.56808983134 0.036521128862 0)
(7.39914699875 0.0359587948166 0)
(7.23689946107 0.0354872080614 0)
(7.0806527504 0.0351420295961 0)
(6.92958038498 0.0349733602397 0)
(6.7825557183 0.0350869405597 0)
(6.63809795604 0.0358932065593 0)
(6.48331900027 0.0315645637 0)
(10.0152817746 0.0694333969035 0)
(10.0363638591 0.072444697042 0)
(10.0272973396 0.0683220640444 0)
(10.0007081187 0.0665961572749 0)
(9.96659369755 0.0665356904193 0)
(9.92849042442 0.0670528683839 0)
(9.88723413918 0.0676115449813 0)
(9.8430007495 0.0680421584517 0)
(9.79595092361 0.0683503206677 0)
(9.7463361605 0.0686066078717 0)
(9.69444619196 0.0688942820009 0)
(9.64053116613 0.0692934258482 0)
(9.58473969964 0.0698821540709 0)
(9.52707428917 0.070751102049 0)
(9.46734024731 0.0720351301731 0)
(9.40504756372 0.0739941714832 0)
(9.33991926523 0.0773196514652 0)
(9.26437935208 0.0844060193353 0)
(10.020700514 0.0572860827372 0)
(10.0536320071 0.0604293561289 0)
(10.0702481724 0.056503065815 0)
(10.0757571839 0.0562290004622 0)
(10.0773716818 0.0583330335179 0)
(10.0775547745 0.061078363386 0)
(10.0764444987 0.0636530794609 0)
(10.0736533793 0.0658465945307 0)
(10.068872846 0.0677191102525 0)
(10.0619693817 0.0694193029513 0)
(10.0529262374 0.071103548667 0)
(10.041764178 0.0729146238462 0)
(10.0284796633 0.0749878863867 0)
(10.0130035791 0.0774760242199 0)
(9.99517569231 0.0805943666444 0)
(9.9747299226 0.0847038226032 0)
(9.95176055814 0.0904463949039 0)
(9.92237116995 0.0976542924214 0)
(10.0157146588 0.046999670379 0)
(10.0435335556 0.055821581049 0)
(10.0614294762 0.05584936995 0)
(10.0703615814 0.0577418090877 0)
(10.0760146857 0.0611114873225 0)
(10.080862022 0.0645444965983 0)
(10.0852125327 0.0674371327971 0)
(10.0887553316 0.0697546861792 0)
(10.091177197 0.071691177599 0)
(10.0922972991 0.0734855699239 0)
(10.0920371454 0.0753503126754 0)
(10.0903607233 0.0774622469229 0)
(10.0872269685 0.0799804198886 0)
(10.0825622203 0.0830791323681 0)
(10.0762555693 0.0869938466086 0)
(10.0681781367 0.0920777590137 0)
(10.0584534454 0.0988548892524 0)
(10.0453284641 0.107298413967 0)
(10.0116028696 0.0390042630986 0)
(10.0341873734 0.0510919619453 0)
(10.0509781587 0.0532068649058 0)
(10.0603305935 0.0553390779622 0)
(10.0664039855 0.0583542326441 0)
(10.0715652625 0.0613921286034 0)
(10.0762987393 0.0640273252429 0)
(10.0804155707 0.0662727936585 0)
(10.0836549838 0.0683204032846 0)
(10.0858505724 0.0703885366436 0)
(10.0869250969 0.0726663063421 0)
(10.0868459413 0.0753121583659 0)
(10.0855873664 0.0784748194716 0)
(10.0831111429 0.0823250840993 0)
(10.0793702971 0.0870932058047 0)
(10.0743356725 0.0931046575792 0)
(10.06814298 0.100803380783 0)
(10.0600772702 0.110418223817 0)
(10.0085357542 0.0325700400447 0)
(10.0267134928 0.0462521388099 0)
(10.041991726 0.0502094497774 0)
(10.051372102 0.0529814390183 0)
(10.057598382 0.0562490549154 0)
(10.0627650098 0.0595833101123 0)
(10.0674504964 0.062637252877 0)
(10.0715614805 0.065392927725 0)
(10.0748817739 0.0679979473782 0)
(10.0772586283 0.0706394905747 0)
(10.0786186667 0.0734927411964 0)
(10.0789365007 0.0767161274015 0)
(10.0782045933 0.0804670696441 0)
(10.0764190941 0.0849265232209 0)
(10.0735866383 0.0903254474812 0)
(10.0697512414 0.0969652443432 0)
(10.0650883807 0.105225183619 0)
(10.0594130738 0.115420122835 0)
(10.0062719704 0.0273983517349 0)
(10.0208335385 0.0416135714998 0)
(10.0344605436 0.0470963062179 0)
(10.0436438485 0.0505757877008 0)
(10.049946663 0.0541115389985 0)
(10.0550981129 0.0576426520309 0)
(10.059708245 0.0609248447246 0)
(10.0637642619 0.0639395938884 0)
(10.0670960198 0.066819460423 0)
(10.0695685585 0.0697458353948 0)
(10.0711154499 0.0728990978104 0)
(10.0717197708 0.076448744218 0)
(10.0713910655 0.0805636117519 0)
(10.0701550822 0.0854295759167 0)
(10.0680612098 0.0912672164574 0)
(10.0652060817 0.0983412507754 0)
(10.0617965481 0.106956087439 0)
(10.0578627608 0.117370371781 0)
(10.0046143671 0.0232340722263 0)
(10.0162532048 0.0372857796659 0)
(10.0282187245 0.0438989693845 0)
(10.0370209889 0.0480540386428 0)
(10.0433238721 0.0518714704271 0)
(10.0484584409 0.0555913491216 0)
(10.0530118141 0.0590934956258 0)
(10.0570332674 0.0623785868997 0)
(10.0603976217 0.0655707690993 0)
(10.0629904921 0.0688435043606 0)
(10.0647545848 0.0723745348101 0)
(10.0656819383 0.0763334226954 0)
(10.0657975058 0.0808871600175 0)
(10.0651516888 0.0862122316575 0)
(10.0638266612 0.0925049146813 0)
(10.0619547845 0.0999829342485 0)
(10.0597591434 0.108873859742 0)
(10.0573911007 0.11934948624 0)
(10.0034070898 0.0198644231005 0)
(10.0127146235 0.0333235506194 0)
(10.0230991767 0.0406819032401 0)
(10.0313856722 0.0454339210908 0)
(10.0376111137 0.0495415054302 0)
(10.0427220507 0.0534511045531 0)
(10.0472390455 0.0571618398411 0)
(10.0512513238 0.0607010818796 0)
(10.0546742711 0.0641858980372 0)
(10.0574155789 0.0677785432749 0)
(10.0594290233 0.071648910527 0)
(10.0607161448 0.0759608961144 0)
(10.0613155823 0.0808738838764 0)
(10.0612973042 0.0865495294506 0)
(10.0607666715 0.0931560320638 0)
(10.0598766537 0.100864549386 0)
(10.058848572 0.109834499255 0)
(10.0578943479 0.120159004061 0)
(10.0025306926 0.0171159353717 0)
(10.0100008599 0.0297393782351 0)
(10.0189442277 0.0374978139768 0)
(10.0266328591 0.0427277964202 0)
(10.0327104284 0.0471106016039 0)
(10.037785553 0.0512035738491 0)
(10.0422842234 0.0551067825957 0)
(10.0463137617 0.0588782305875 0)
(10.0498234458 0.0626312212492 0)
(10.0527432155 0.0665163117358 0)
(10.0550391355 0.070692931498 0)
(10.0567221242 0.0753154363253 0)
(10.0578419312 0.0805312988325 0)
(10.0584822376 0.0864831707932 0)
(10.0587618927 0.0933089924963 0)
(10.0588411836 0.101135641008 0)
(10.058926851 0.110064897366 0)
(10.0592701513 0.12012983644 0)
(10.0018940253 0.0148534741327 0)
(10.007931183 0.0265314949952 0)
(10.0156053654 0.0344071323953 0)
(10.0226643258 0.039971887349 0)
(10.0285395711 0.0445860084223 0)
(10.033566034 0.0488396999915 0)
(10.0380630788 0.0529082696488 0)
(10.0421371546 0.0568796319673 0)
(10.0457631522 0.0608652896846 0)
(10.0488917387 0.0650035587387 0)
(10.0515014206 0.0694404286427 0)
(10.0536115958 0.0743167442283 0)
(10.0552798912 0.0797637227683 0)
(10.056597568 0.0859021726132 0)
(10.0576881232 0.0928394365032 0)
(10.0587086758 0.100663002408 0)
(10.0598420219 0.109429017357 0)
(10.0613651582 0.119130029043 0)
(10.0014670151 0.0130858998028 0)
(10.0064902987 0.0238601672789 0)
(10.01316564 0.0316559719833 0)
(10.0196538434 0.0374087891117 0)
(10.0253110611 0.042188967116 0)
(10.0302841771 0.0465664748418 0)
(10.0347955475 0.0507615443658 0)
(10.0389370977 0.0548858168887 0)
(10.0426987444 0.0590501242458 0)
(10.0460472824 0.0633813727132 0)
(10.0489716963 0.0680114064042 0)
(10.0514974984 0.0730659016225 0)
(10.0536862895 0.0786591326412 0)
(10.0556309464 0.0848902202336 0)
(10.0574523428 0.0918403335462 0)
(10.0592978744 0.0995656382524 0)
(10.0613256723 0.108090291022 0)
(10.0638331838 0.117381846838 0)
(10.0011467995 0.011597290856 0)
(10.0053700827 0.0214677534877 0)
(10.0111945901 0.0290194026568 0)
(10.0171439613 0.0348292045424 0)
(10.0225685159 0.0397124536972 0)
(10.0274792899 0.0441803945988 0)
(10.0320112898 0.0484707757711 0)
(10.0362349119 0.0527111734665 0)
(10.0401485418 0.0570118530503 0)
(10.0437319603 0.0614888227051 0)
(10.0469830332 0.0662591746522 0)
(10.0499320821 0.0714323025036 0)
(10.0526418176 0.0771042217135 0)
(10.0552031959 0.083353195663 0)
(10.0577304041 0.0902364647546 0)
(10.0603575223 0.0977849212848 0)
(10.0632162058 0.10599800365 0)
(10.0666233222 0.114826229009 0)
(10.0008794333 0.0101220740897 0)
(10.0044109242 0.0189867458765 0)
(10.0094502725 0.0261299026905 0)
(10.0148592536 0.031872630292 0)
(10.0200314199 0.036792001937 0)
(10.024879535 0.0413128907707 0)
(10.0294571186 0.0456683355141 0)
(10.0338059809 0.0499937094772 0)
(10.0379266046 0.0543961397517 0)
(10.0418084493 0.0589792129642 0)
(10.045456495 0.063842292283 0)
(10.0489031525 0.0690756999009 0)
(10.0522089826 0.0747538726552 0)
(10.0554580212 0.0809330387347 0)
(10.0587522129 0.0876463240519 0)
(10.0622065745 0.0949020243673 0)
(10.0659227669 0.102679630695 0)
(10.0702352551 0.110919552981 0)
(10.000668045 0.00866320577099 0)
(10.0036384441 0.0164346385359 0)
(10.008000822 0.0229936106386 0)
(10.0129079548 0.0285010836763 0)
(10.0178304586 0.0333370610997 0)
(10.0226246353 0.0378272406351 0)
(10.0272773511 0.0421788318847 0)
(10.0317990287 0.0465221958865 0)
(10.0361857744 0.0509563241954 0)
(10.0404315985 0.0555687825972 0)
(10.04454507 0.0604393096253 0)
(10.0485573008 0.0656355937605 0)
(10.0525221618 0.0712100018521 0)
(10.0565118461 0.077195318639 0)
(10.0606107939 0.0836038226748 0)
(10.0649111963 0.0904244147817 0)
(10.0694823809 0.0976239385472 0)
(10.0746770721 0.105138025381 0)
(10.0005139758 0.00719947747311 0)
(10.0030680325 0.0137855233352 0)
(10.0069033296 0.0195757407279 0)
(10.0114009685 0.0246484854929 0)
(10.0161200054 0.0292369445153 0)
(10.0208963343 0.0335684541665 0)
(10.0256701244 0.0378068956665 0)
(10.0304227016 0.0420633526385 0)
(10.0351402803 0.0464207355935 0)
(10.0398160802 0.0509471728203 0)
(10.0444569927 0.0557001828831 0)
(10.0490884332 0.0607242213732 0)
(10.0537529586 0.0660489267026 0)
(10.0585065147 0.0716863684481 0)
(10.0634123377 0.077630875767 0)
(10.0685375972 0.0838583352524 0)
(10.0739201554 0.0903279201817 0)
(10.0799305876 0.0969774438578 0)
(10.0004166197 0.00567680055606 0)
(10.0027077253 0.0109552002158 0)
(10.0062030012 0.0157738247601 0)
(10.0104409091 0.0201804357013 0)
(10.0150575842 0.0243076170134 0)
(10.0198908143 0.0282952381048 0)
(10.0248540504 0.0322535228737 0)
(10.0299057865 0.0362623000923 0)
(10.0350204057 0.0403802613919 0)
(10.0401845954 0.0446528682761 0)
(10.0453986925 0.0491137047172 0)
(10.0506774785 0.0537851231148 0)
(10.0560485051 0.0586757099011 0)
(10.061548238 0.0637810646671 0)
(10.0672172825 0.0690824168284 0)
(10.0730977271 0.0745490997091 0)
(10.0791989797 0.0801386679354 0)
(10.0859066894 0.0857962857415 0)
(10.000375223 0.00399320977633 0)
(10.0025666811 0.00777113849258 0)
(10.0059453474 0.0113748058805 0)
(10.0101330266 0.0148477386153 0)
(10.0148111334 0.0182538276752 0)
(10.0198247015 0.0216577053886 0)
(10.0250751349 0.0251130855465 0)
(10.0305066715 0.0286608311866 0)
(10.0360825307 0.0323301619485 0)
(10.0417798821 0.0361405938808 0)
(10.04758843 0.0401021577439 0)
(10.0535092858 0.0442157213767 0)
(10.059553229 0.0484724325103 0)
(10.0657373145 0.0528544908514 0)
(10.0720812361 0.057335337869 0)
(10.0786057767 0.0618813477724 0)
(10.0852979216 0.0664528584263 0)
(10.0925592247 0.0710033990249 0)
(10.0004037813 0.0019473834139 0)
(10.0026971011 0.00387779848605 0)
(10.00624842 0.00593188720468 0)
(10.0106749476 0.00815100816113 0)
(10.0156541615 0.0105319524833 0)
(10.0210308412 0.0130631465714 0)
(10.0267050175 0.0157386074797 0)
(10.0326165353 0.0185580306584 0)
(10.0387208567 0.0215198377929 0)
(10.0449845403 0.0246187360959 0)
(10.0513844205 0.027842886048 0)
(10.0579068052 0.0311755159225 0)
(10.064546317 0.0345940762244 0)
(10.0713028917 0.038072495662 0)
(10.0781788209 0.0415804234963 0)
(10.0851778663 0.0450855410651 0)
(10.0922698508 0.048553131346 0)
(10.0998652505 0.0519464230897 0)
(10.0005272134 -0.000200545103485 0)
(10.0031677991 -0.000191148550043 0)
(10.0072281049 0.000280337298352 0)
(10.012195721 0.00123378261643 0)
(10.0176846559 0.00257583837304 0)
(10.0235374753 0.00420916727269 0)
(10.0296745552 0.00607179870154 0)
(10.0360494378 0.0081285165639 0)
(10.0426194637 0.010355212504 0)
(10.0493447736 0.0127266812888 0)
(10.0561930732 0.0152162666723 0)
(10.0631411888 0.0177939531336 0)
(10.0701750798 0.0204302391053 0)
(10.0772863264 0.0230941291567 0)
(10.0844694757 0.0257566214442 0)
(10.0917210918 0.0283879532294 0)
(10.0990041249 0.0309611030121 0)
(10.1067320092 0.0334476656109 0)
(10.0007045376 -0.00226460648648 0)
(10.0038518702 -0.00401590294925 0)
(10.0086122436 -0.00487424486978 0)
(10.0142510443 -0.00490707577442 0)
(10.0202941727 -0.00435538824672 0)
(10.0266054038 -0.00341384813645 0)
(10.0331495323 -0.00218625301566 0)
(10.03990753 -0.000725897858573 0)
(10.0468425394 0.000930317212696 0)
(10.0539111217 0.00274515142059 0)
(10.0610749252 0.00468074170962 0)
(10.0683071992 0.00669787398172 0)
(10.075590727 0.00876127534286 0)
(10.0829154553 0.0108377645901 0)
(10.090273973 0.0128985746825 0)
(10.0976618423 0.0149163851844 0)
(10.1050406364 0.0168675815543 0)
(10.1128311957 0.0187289638867 0)
(10.0009893542 -0.00452768908063 0)
(10.0049149777 -0.0080455633191 0)
(10.0106488664 -0.0100414341245 0)
(10.0171043072 -0.0108196169132 0)
(10.0237317455 -0.0108623289494 0)
(10.0304774597 -0.010467664352 0)
(10.0373909398 -0.00976113128601 0)
(10.0444895532 -0.00879587759873 0)
(10.051740943 -0.00761392206648 0)
(10.0590957807 -0.00626016815084 0)
(10.0665106042 -0.00478240352283 0)
(10.0739557464 -0.00322314514408 0)
(10.0814138798 -0.00162159533068 0)
(10.0888756743 -9.50165608686e-06 0)
(10.0963344894 0.00158386999156 0)
(10.1037857068 0.00313543707106 0)
(10.11119093 0.00462270910638 0)
(10.1189700117 0.00602831955813 0)
(10.0014471469 -0.00714912489442 0)
(10.0065337164 -0.0124320842174 0)
(10.0135473038 -0.0152859390627 0)
(10.0209114231 -0.016528041491 0)
(10.0280882371 -0.016977825033 0)
(10.0352094697 -0.0170079341695 0)
(10.0424445273 -0.0167239850431 0)
(10.0498444914 -0.0161626580855 0)
(10.0573726516 -0.0153664898763 0)
(10.0649698728 -0.0143907249014 0)
(10.0725891413 -0.0132923277045 0)
(10.0802019739 -0.0121216511355 0)
(10.0877950236 -0.0109194212666 0)
(10.0953616134 -0.0097179085793 0)
(10.1028974732 -0.00854279644883 0)
(10.1103991495 -0.0074163407649 0)
(10.1178302868 -0.00635887685574 0)
(10.1256242831 -0.00539063530554 0)
(10.0021873769 -0.0103334799209 0)
(10.0089757943 -0.017280010007 0)
(10.0175855789 -0.0205656686453 0)
(10.0258638969 -0.0219548182074 0)
(10.0334892813 -0.0226448564683 0)
(10.040905153 -0.0229949931218 0)
(10.0484137936 -0.0230375284414 0)
(10.0560786942 -0.0227753503638 0)
(10.0638434438 -0.022248454546 0)
(10.0716350375 -0.0215200844422 0)
(10.0794033125 -0.0206546825824 0)
(10.0871243477 -0.0197074923145 0)
(10.0947902606 -0.0187202819078 0)
(10.102399649 -0.0177256641477 0)
(10.1099498 -0.0167484319224 0)
(10.1174355694 -0.0158123901771 0)
(10.1248151324 -0.0149392179646 0)
(10.1325005995 -0.0141524550717 0)
(10.0033825613 -0.0143548871457 0)
(10.0126044997 -0.0226366978505 0)
(10.0230731094 -0.0257754439809 0)
(10.0321481325 -0.0270193422512 0)
(10.0400683458 -0.0278489529374 0)
(10.0477001973 -0.0284846243119 0)
(10.0554558979 -0.0288552853642 0)
(10.0633791136 -0.0289373059478 0)
(10.0713802566 -0.0287745213405 0)
(10.0793701631 -0.0284352649405 0)
(10.0872969948 -0.0279825093504 0)
(10.0951417897 -0.0274626090241 0)
(10.1029028333 -0.0269054014303 0)
(10.1105823203 -0.0263294043137 0)
(10.1181778595 -0.0257488420386 0)
(10.1256827305 -0.0251790302771 0)
(10.1330540983 -0.0246442259987 0)
(10.1407372736 -0.0241846660009 0)
(10.0052804058 -0.0195668757845 0)
(10.017866845 -0.0284457804916 0)
(10.030312517 -0.0307627956423 0)
(10.0399278386 -0.0316119224251 0)
(10.0479457085 -0.0323886065336 0)
(10.0556856571 -0.033001633507 0)
(10.0636036083 -0.0332710206447 0)
(10.071690739 -0.0331875919413 0)
(10.0798222357 -0.0328429902426 0)
(10.087901022 -0.0323478889985 0)
(10.0958825266 -0.0317911566191 0)
(10.1037596968 -0.0312299862516 0)
(10.1115407133 -0.0306913237312 0)
(10.1192326162 -0.0301834395708 0)
(10.1268316651 -0.0297050829437 0)
(10.1343193819 -0.0292543627983 0)
(10.1416249091 -0.0288442436596 0)
(10.149112305 -0.028523991564 0)
(10.0082431582 -0.0263938114539 0)
(10.0253003803 -0.0344738647883 0)
(10.0396050484 -0.0355392574995 0)
(10.0494688255 -0.036494226928 0)
(10.0575259607 -0.038053479783 0)
(10.0654418419 -0.0395653792932 0)
(10.0735994021 -0.0406240720795 0)
(10.0818905374 -0.0411596207222 0)
(10.0901443271 -0.0412695688825 0)
(10.0982585665 -0.0410941269391 0)
(10.1062025243 -0.0407571828896 0)
(10.1139894876 -0.0403456253797 0)
(10.1216463849 -0.0399096097979 0)
(10.1291933968 -0.0394712434291 0)
(10.1366349172 -0.0390328605982 0)
(10.1439512375 -0.0385840527543 0)
(10.1510515694 -0.0381198038477 0)
(10.1582567412 -0.0376937629791 0)
(10.012519468 -0.0354087412541 0)
(10.0349771878 -0.0397029987152 0)
(10.0501469319 -0.0371085794706 0)
(10.0591512383 -0.0360792310464 0)
(10.0663336365 -0.0366574244421 0)
(10.0735446557 -0.0377928260239 0)
(10.0810057707 -0.0388598164318 0)
(10.0884766788 -0.039634335322 0)
(10.0957261794 -0.0401036717958 0)
(10.1026401013 -0.0403353851233 0)
(10.1092023965 -0.0404099823149 0)
(10.1154518193 -0.0403904528359 0)
(10.1214430433 -0.0403175173444 0)
(10.1272242032 -0.0402088431157 0)
(10.1328270175 -0.04006007529 0)
(10.1382540016 -0.0398387069628 0)
(10.1434035428 -0.0394754527641 0)
(10.1483267791 -0.0388643836654 0)
(10.0152834451 -0.0483503205482 0)
(10.0387970993 -0.0531253869943 0)
(10.0460306753 -0.0505841015451 0)
(10.0435161614 -0.0490181913155 0)
(10.0377300676 -0.0485818721885 0)
(10.0310096404 -0.048612083453 0)
(10.0237448793 -0.0487012750118 0)
(10.0158353789 -0.0486855704115 0)
(10.0071947506 -0.04853576568 0)
(9.99785341783 -0.048279382348 0)
(9.98793247683 -0.0479562305453 0)
(9.97759486309 -0.0475996830281 0)
(9.96700370975 -0.0472315841062 0)
(9.95630342117 -0.0468596673506 0)
(9.94561874764 -0.0464743693408 0)
(9.93506146699 -0.0460334568613 0)
(9.9247005334 -0.0454181422379 0)
(9.91436120548 -0.043973316501 0)
(9.85107189311 -0.0282245647192 0)
(9.72169961338 -0.0323260943602 0)
(9.57936577672 -0.0324318390219 0)
(9.43565222066 -0.032388309126 0)
(9.29765259349 -0.0324431797053 0)
(9.16718675948 -0.0324795452003 0)
(9.04397651518 -0.0324211073336 0)
(8.92728100384 -0.0322486234728 0)
(8.81644167598 -0.0319761519936 0)
(8.71098876072 -0.0316305499014 0)
(8.6106044085 -0.0312384095986 0)
(8.51506059804 -0.0308209756577 0)
(8.42416876479 -0.0303934656308 0)
(8.33775315988 -0.0299640381742 0)
(8.25564742208 -0.0295324103034 0)
(8.17770842269 -0.0290814785027 0)
(8.10404497362 -0.0285430528489 0)
(8.03293172445 -0.0273055143273 0)
(0.0167212878349 -0.0761625303635 1.92182088596e-19)
(0.0489612089212 -0.0886805586891 0)
(0.0531102860815 -0.00815987770675 0)
(-0.0180173775669 0.0816497885881 0)
(-0.113389994494 0.111865117495 0)
(-0.219874831431 0.125496161786 -5.18641391548e-20)
(-0.334189299429 0.133666240575 0)
(-0.454571037234 0.138993716739 0)
(-0.5796965726 0.142433332106 2.82086183463e-20)
(-0.708506653935 0.144496245352 0)
(-0.840098721272 0.145510029504 -2.25682904388e-20)
(-0.973724777496 0.145706998635 0)
(-1.10874446064 0.14526425919 -1.96637410542e-20)
(-1.24462924462 0.144322658519 -1.87798625943e-20)
(-1.38093405833 0.142998965985 0)
(-1.51730278098 0.141391354815 1.77068633414e-20)
(-1.65344896566 0.13958460119 1.74140529893e-20)
(-1.78916075344 0.137651640562 1.72368459404e-20)
(-1.92428530021 0.135656333068 0)
(-2.05873209993 0.133653370688 0)
(-2.19246042269 0.131689992109 0)
(-2.32548095188 0.129805389255 0)
(-2.4578429986 0.128031826794 0)
(-2.58963421402 0.126393540164 0)
(-2.72096848975 0.124907833948 -1.77691031641e-20)
(-2.85198370612 0.123583993119 -1.79807389199e-20)
(-2.98282949932 0.122424212829 0)
(-3.11366338223 0.121422735499 1.84527911876e-20)
(-3.24463772261 0.120567308309 1.8707442508e-20)
(-3.37589513747 0.119838472047 1.89713910835e-20)
(-3.50755709058 0.119211238292 0)
(-3.63971989784 0.118654989122 0)
(-3.77244415606 0.118135884784 -1.98037592619e-20)
(-3.90575261744 0.117616776277 0)
(-4.03962416806 0.117059882107 0)
(-4.17399482447 0.116427192748 -2.06741765539e-20)
(-4.3087545535 0.11568333606 0)
(-4.44375235488 0.114795421708 0)
(-4.57879750132 0.113735674027 0)
(-4.71366698973 0.112480693868 0)
(-4.84810913483 0.111013610989 0)
(-4.98185226976 0.109322195584 4.49377998323e-20)
(-5.11460899418 0.107399745616 0)
(-5.24608158895 0.105241901345 0)
(-5.3759615163 0.10284687182 4.67345313533e-20)
(-5.50392887403 0.100212969991 4.73207088443e-20)
(-5.62964981283 0.0973406109521 0)
(-5.75277866793 0.0942286482681 0)
(-5.87295593241 0.0908727093146 4.89829083322e-20)
(-5.98979801851 0.0872613757449 0)
(-6.10288109451 0.0833813671382 -4.99506903964e-20)
(-6.21173075839 0.0792193009975 0)
(-6.31582320239 0.0747649132183 5.07330462331e-20)
(-6.41459717168 0.0700120273027 0)
(-6.50746497504 0.0649593076734 5.12582903053e-20)
(-6.59384440844 0.0596005976578 5.14042406486e-20)
(-6.6731641941 0.0539161002619 0)
(-6.74484233362 0.0478677448265 0)
(-6.8082416675 0.0414093748769 0)
(-6.8626139944 0.0345020333111 5.10509615793e-20)
(-6.90705197605 0.0271303465172 0)
(-6.94054377356 0.0193052667869 0)
(-6.96202709205 0.0110359347321 0)
(-6.9704365348 0.00230860189236 0)
(-6.96491680615 -0.00690234678566 0)
(-6.94456386658 -0.0165920668085 0)
(-6.9084103533 -0.0267626777995 0)
(-6.85549876262 -0.0374038693807 -4.31872243996e-20)
(-6.78492469251 -0.0484796103323 0)
(-6.69590194184 -0.0599168960547 -3.90486030077e-20)
(-6.5878400473 -0.071599655202 -3.65583413733e-20)
(-6.46042219849 -0.0833666874605 0)
(-6.31367373145 -0.0950168290563 3.06422837941e-20)
(-6.14801293206 -0.106317773888 0)
(-5.96427490335 -0.117021006514 -2.33871448717e-20)
(-5.76370678865 -0.12688021322 0)
(-5.54792977947 -0.135671066406 1.47269671532e-20)
(-5.31888605812 -0.143205612521 -9.85878259668e-21)
(-5.07876082421 -0.149345763082 0)
(-4.82989458043 -0.154014110744 0)
(-4.57469643896 -0.15719376718 0)
(-4.31556796346 -0.15891089466 0)
(-4.05482386513 -0.159246004848 2.01493617732e-20)
(-3.79458495802 -0.158335816983 -2.74129503377e-20)
(-3.53680013164 -0.156345876515 7.03645939862e-20)
(-3.2832682106 -0.153396478991 8.70357567617e-20)
(-3.03555839048 -0.149612323854 1.04998088039e-19)
(-2.79477762041 -0.145178681101 0)
(-2.56173518532 -0.140274059438 0)
(-2.33737970879 -0.134959910003 0)
(-2.12247731205 -0.129223279273 1.94852736863e-19)
(-1.91725978376 -0.12321020098 0)
(-1.72131064653 -0.11709468715 0)
(-1.53458620397 -0.111047217218 2.93766640023e-19)
(-1.35739944506 -0.105291854739 0)
(-1.18975549075 -0.100060758736 -3.88023954224e-19)
(-1.03129432931 -0.0957489956239 0)
(-0.880732343108 -0.092302606294 5.23706249599e-19)
(-0.737740769088 -0.0898651967995 0)
(-0.601530374032 -0.0891830575009 0)
(-0.474340737442 -0.0899640404408 0)
(-0.355541238005 -0.0902970739532 1.13923952865e-18)
(-0.23819241784 -0.0912515694812 0)
(-0.129211567383 -0.0947445190847 2.10394748728e-18)
(-0.0313544899995 -0.0978331619483 3.52940008542e-18)
(0.0828780154536 -0.0867873809827 0)
(0.152901385247 -0.0710719817985 0)
(0.229083533106 -0.0573510718944 0)
(0.303816579558 -0.0471640547008 1.46478563602e-18)
(0.370897515878 -0.0393243146666 0)
(0.429774575133 -0.0328853004158 0)
(0.48168927034 -0.0273701230733 1.03861718852e-18)
(0.527795054838 -0.0225624937199 9.65416938714e-19)
(0.568813354855 -0.0183396099568 0)
(0.605178022331 -0.0146273077611 -8.64450138214e-19)
(0.637172286818 -0.0113605478517 -8.2904278036e-19)
(0.665038386041 -0.00849107982104 8.00570178417e-19)
(0.689008389222 -0.00597112867609 0)
(0.70933806102 -0.00376526522851 0)
(0.7263014325 -0.00183812378006 0)
(0.740200071711 -0.00016364946673 -7.31913231117e-19)
(0.751344129499 0.00128374631434 0)
(0.760052220787 0.00252110454678 -7.1430659393e-19)
(0.76664079967 0.00356673562194 0)
(0.771437138106 0.00443130451588 0)
(0.774769123222 0.00512948626409 0)
(0.776972476534 0.00566955464649 6.95148561874e-19)
(0.778372607953 0.00606415698076 6.919903138e-19)
(0.779291643 0.00632030872493 0)
(0.7800327601 0.0064500146623 0)
(0.780888770247 0.00646070148922 0)
(0.782125705286 0.00636514095439 0)
(0.783990389943 0.00617210145723 0)
(0.78669381968 0.00589548778866 0)
(0.790420330355 0.00554538265929 1.32856017233e-18)
(0.795313376097 0.00513637223089 0)
(0.801487762132 0.00467919799255 0)
(0.809017631492 0.00418799189474 0)
(0.817952763618 0.00367308475563 -1.27026011582e-18)
(0.828310451988 0.00314724301917 -1.2525199636e-18)
(0.840091973601 0.00262049172364 1.23375931523e-18)
(0.853272915686 0.00210345406152 1.2141555068e-18)
(0.867811069411 0.00160475706984 0)
(0.883642597686 0.00113223325878 0)
(0.900692464163 0.000691782391244 0)
(0.9188739239 0.000289024381429 1.13077200406e-18)
(0.93809468246 -7.29662182268e-05 0)
(0.958252085926 -0.000389941398068 0)
(0.979242207049 -0.000656871526952 -1.06781713878e-18)
(1.00095694425 -0.00087131913079 0)
(1.02328678911 -0.00103470536321 -1.02768459657e-18)
(1.04611744531 -0.00114842434 0)
(1.06933679456 -0.00121389105285 -9.89872698088e-19)
(1.09283207227 -0.00123154854188 0)
(1.11649349296 -0.00120223413982 0)
(1.14020946834 -0.00112643467531 0)
(1.16386990188 -0.00100569284246 0)
(1.18736203077 -0.00084164315966 0)
(1.21057292242 -0.000636123340254 0)
(1.23338483072 -0.000390046684271 0)
(1.25567798966 -0.000104221669031 0)
(1.27732622913 0.00022157342343 -8.57851162594e-19)
(1.29819883991 0.000587849433356 0)
(1.31815249502 0.000994497139087 0)
(1.33703079793 0.00144366102311 -8.29389586161e-19)
(1.35466009384 0.00193918876406 0)
(1.37084545529 0.00248038468392 0)
(1.38535874772 0.0030631935681 -8.09691564665e-19)
(1.39793991066 0.00367829598963 0)
(1.40829945539 0.00430561216532 0)
(1.41614581887 0.00491052400662 -8.00109028876e-19)
(1.42132186053 0.00546858475758 7.99275996494e-19)
(1.42393529172 0.00594558079759 -7.99396029761e-19)
(1.42489648935 0.00636511846856 0)
(1.42331512564 0.00686298412375 0)
(1.41802836827 0.00759674782109 -1.60869577071e-18)
(1.40736319844 0.00877625402963 0)
(1.38840764037 0.0106916608138 1.63809894944e-18)
(1.36403426377 0.013710049768 1.6675402866e-18)
(1.2244286946 0.0169453307223 0)
(-0.0277609451014 0.0126476401022 -4.08968651681e-19)
(-0.120400354363 0.143150750177 0)
(-0.197895099833 0.2091438552 1.02358887115e-19)
(-0.285756857582 0.263864599961 -7.61656416034e-20)
(-0.384702411091 0.301930924455 -6.19970629127e-20)
(-0.492511992293 0.328749238104 2.60579806422e-20)
(-0.607785773899 0.348293106994 4.58796229402e-20)
(-0.728873322414 0.362560518699 0)
(-0.854409246862 0.372743973332 -1.84323295707e-20)
(-0.983268291425 0.379657887677 3.48768301929e-20)
(-1.11451618354 0.383903702402 4.911191004e-20)
(-1.24738261983 0.385953575767 -3.15686037098e-20)
(-1.38122194246 0.386195531039 4.55571287432e-20)
(-1.51550280446 0.384959198932 1.46446643589e-20)
(-1.64978618965 0.382531618239 0)
(-1.78372212178 0.37916637863 -1.43523851679e-20)
(-1.9170354917 0.375090159833 -1.43402230931e-20)
(-2.04952497716 0.370506079284 -1.43949727912e-20)
(-2.18105204382 0.365596716845 2.954750689e-20)
(-2.31153975502 0.360524770832 0)
(-2.44096323003 0.355434367265 3.01888366438e-20)
(-2.56934783243 0.350450536563 0)
(-2.6967594505 0.34567960744 -3.10711753315e-20)
(-2.82330069834 0.341207771562 0)
(-2.94910070321 0.337101213163 4.79756596682e-20)
(-3.0743103746 0.333404516811 -1.65318224928e-20)
(-3.19909149651 0.330141051835 -3.3274436985e-20)
(-3.32360982094 0.327311953458 -5.06541333087e-20)
(-3.44802361057 0.324897407285 -1.70915864275e-20)
(-3.57247716648 0.322856501027 -1.74176748663e-20)
(-3.69709041583 0.321129836262 0)
(-3.82195292062 0.319640933488 -3.64482318818e-20)
(-3.94711575415 0.318300452679 1.84198910451e-20)
(-4.07258885313 0.317008613899 0)
(-4.19833699595 0.315660691307 0)
(-4.32428101774 0.314150531145 1.94470440096e-20)
(-4.45029864411 0.312376566407 0)
(-4.57623057313 0.310244662974 0)
(-4.7018855831 0.307673342157 0)
(-4.82704908824 0.304595039937 0)
(-4.95149049414 0.300959488089 0)
(-5.07497308414 0.29673163998 4.36313442505e-20)
(-5.19726036596 0.291891129866 8.82009563294e-20)
(-5.31811982207 0.286426093939 0)
(-5.4373194319 0.280330058203 4.58231056841e-20)
(-5.55461955493 0.273596735616 -4.59814231462e-20)
(-5.66976779195 0.266220476647 0)
(-5.78250118267 0.258188557378 0)
(-5.89253601787 0.24947411136 -1.44705626476e-19)
(-5.99954469784 0.240028184621 -9.79812026551e-20)
(-6.10312621841 0.229790994245 4.92323632607e-20)
(-6.2027945971 0.218698338151 1.00325184187e-19)
(-6.29798008027 0.206690903075 5.10773119837e-20)
(-6.38804442504 0.193722079217 0)
(-6.47230302649 0.179754449951 -1.54001837489e-19)
(-6.55008476125 0.164743525979 -5.1310248526e-20)
(-6.62073152738 0.148625489509 0)
(-6.68355766779 0.131323095031 1.04193274812e-19)
(-6.73785359917 0.112772471695 -1.04234589448e-19)
(-6.78260876753 0.0929453048253 -5.15021548111e-20)
(-6.81675432579 0.0718616107917 0)
(-6.83915512652 0.049557799688 0)
(-6.84872248268 0.0260531614685 0)
(-6.84454366054 0.0013683981323 1.00297305479e-19)
(-6.82677945988 -0.0244070458354 0)
(-6.79453030228 -0.05125542543 -9.55667313612e-20)
(-6.74692171028 -0.0791749403354 0)
(-6.68303828561 -0.108134948989 -4.52847889837e-20)
(-6.60197858554 -0.138044517623 0)
(-6.50292495278 -0.16872299078 -4.11575966506e-20)
(-6.38522993425 -0.199879851168 -3.86596738228e-20)