/*--------------------------------*- C++ -*----------------------------------*\
| =========                 |                                                 |
| \\      /  F ield         | OpenFOAM: The Open Source CFD Toolbox           |
|  \\    /   O peration     | Version:  v1806                                 |
|   \\  /    A nd           | Web:      www.OpenFOAM.com                      |
|    \\/     M anipulation  |                                                 |
\*---------------------------------------------------------------------------*/
FoamFile
{
    version     2.0;
    format      ascii;
    class       volScalarField;
    location    "16";
    object      p;
}
// * * * * * * * * * * * * * * * * * * * * * * * * * * * * * * * * * * * * * //

dimensions      [0 2 -2 0 0 0 0];


internalField   nonuniform List<scalar> 
12225
(
-3.74749254759
-4.49919148735
-4.74645579376
-4.81618177372
-4.87609543401
-4.93421433602
-4.97556736298
-4.99751228322
-5.00313374689
-4.99418634393
-4.96995178444
-4.92840118599
-4.86703660246
-4.7828735295
-4.67179151914
-4.52749999881
-4.33840290985
-4.08671820204
-3.92102882562
-4.51001203288
-4.75132430453
-4.82517463811
-4.88358886608
-4.93982310382
-4.98031854646
-5.00198635426
-5.00751999325
-4.99858309182
-4.97449841471
-4.93329718339
-4.87254527098
-4.78936023385
-4.67985162017
-4.53838560438
-4.35630628232
-4.14506662899
-4.06348490877
-4.49684534054
-4.7377089559
-4.82481685145
-4.8851613037
-4.94094997626
-4.98199457872
-5.00477628948
-5.01142223039
-5.00356364772
-4.98073706438
-4.94122089827
-4.88284048734
-4.80309690332
-4.69886083791
-4.56624825199
-4.40105347717
-4.21565738892
-4.1876923566
-4.50883780969
-4.74099620584
-4.83788764092
-4.89812690512
-4.95148847455
-4.99174766651
-5.01486840772
-5.02215961065
-5.01513838557
-4.99359220513
-4.9561097004
-4.90084994154
-4.82580757666
-4.7287785061
-4.60765121512
-4.46148290092
-4.30056842766
-4.29804614865
-4.53552449674
-4.74645801448
-4.84740264371
-4.90732907719
-4.95855858131
-4.99835638306
-5.02233102298
-5.03092642422
-5.02549933998
-5.0061054325
-4.97169290419
-4.92081382223
-4.85201904279
-4.76404339743
-4.65630164002
-4.53003003535
-4.39391357547
-4.39669306682
-4.57229056837
-4.75743834259
-4.85974010784
-4.92074576956
-4.97084105013
-5.01038491512
-5.03529034776
-5.04539422865
-5.04190674675
-5.02514695998
-4.9944459118
-4.94878537876
-4.88728960524
-4.80955816959
-4.71621495582
-4.60986952647
-4.49833866521
-4.48565382022
-4.61601757867
-4.77454056203
-4.87471501456
-4.93626907543
-4.98500765344
-5.02377321932
-5.04929268474
-5.06098812969
-5.05983596677
-5.04631649887
-5.02010558916
-4.98061144162
-4.92750584405
-4.86112502364
-4.78297129357
-4.69639969192
-4.60843972612
-4.56669267109
-4.66425331863
-4.79759621194
-4.89279706995
-4.95430506524
-5.00206154983
-5.04035603251
-5.06686294455
-5.08072976743
-5.08264381008
-5.07317308621
-5.05232000233
-5.01992269995
-4.97616214323
-4.9219656414
-4.85940973006
-4.79214419534
-4.72637435697
-4.6413001237
-4.71520863155
-4.82611376874
-4.91441304587
-4.97511390203
-5.02213152182
-5.06015133177
-5.08775042755
-5.10399614997
-5.10933676124
-5.10440361653
-5.08950423682
-5.0648789188
-5.03114188493
-4.98964121489
-4.94275237674
-4.89408736699
-4.84891115905
-4.71071606912
-4.76763477988
-4.85940304608
-4.9398041538
-4.99894155201
-5.04538414198
-5.08341435087
-5.1123455805
-5.13132578872
-5.14063339427
-5.14092708775
-5.13275504
-5.11668618844
-5.09365674065
-5.06526801146
-5.03397303813
-5.00314372138
-4.97712738465
-4.77594333659
-4.82067430097
-4.89666543833
-4.96899472979
-5.02599389945
-5.07199067015
-5.11037352826
-5.14094595369
-5.16302200032
-5.1767765869
-5.18286539814
-5.18200737379
-5.17501483752
-5.1630438544
-5.14780789695
-5.13168502119
-5.11768830471
-5.10927122946
-4.83269045448
-4.86945947886
-4.93382498546
-4.99911701876
-5.05384427042
-5.0995404573
-5.13857978009
-5.17098423027
-5.19624142662
-5.21448625186
-5.22635624804
-5.23266328201
-5.23436568138
-5.2327255779
-5.22945920779
-5.22677661244
-5.22732808628
-5.23387004543
-4.88675608767
-4.91763714998
-4.97266083163
-5.03162392423
-5.08404934487
-5.12955901695
-5.16953647471
-5.20405576472
-5.23275997814
-5.25577371932
-5.27370933647
-5.2874217504
-5.2979458755
-5.30657945992
-5.3149667188
-5.32510178678
-5.3392507981
-5.35950109738
-4.94591311143
-4.97199421428
-5.01889525188
-5.07181333845
-5.12184589075
-5.16736301757
-5.20879656371
-5.24614025262
-5.27915559293
-5.30797730514
-5.33317578394
-5.35560107448
-5.3762939415
-5.3965096448
-5.4177416477
-5.44169333744
-5.47021213839
-5.50472944809
-5.00995228364
-5.0324052813
-5.07281689278
-5.12054758704
-5.16849220073
-5.21442857648
-5.25802145107
-5.29908311342
-5.33743615037
-5.37321323884
-5.40692707352
-5.43935676895
-5.47147044083
-5.50438783943
-5.53937748179
-5.57779660002
-5.62105948854
-5.66997892916
-5.07825115311
-5.09825493077
-5.13411146682
-5.17812706714
-5.22486234021
-5.2720067807
-5.31871441761
-5.36458890295
-5.4094364401
-5.45336247386
-5.49678056105
-5.54034333088
-5.58485395887
-5.63122613958
-5.68043252061
-5.73347076177
-5.79132325019
-5.85425657394
-5.14927780539
-5.16798790261
-5.20144383787
-5.243795331
-5.29085586874
-5.34047958568
-5.39155954613
-5.44351667467
-5.49608654924
-5.54929232002
-5.60341056999
-5.6589045282
-5.71635457808
-5.77640119723
-5.83970362909
-5.90688977164
-5.97857203083
-6.05453013604
-5.21953150049
-5.23809544987
-5.27149894235
-5.31475531833
-5.36432052414
-5.41820677707
-5.47520762132
-5.53461742764
-5.59606731693
-5.65945256137
-5.72487646028
-5.79258158209
-5.86289431155
-5.93616876122
-6.0127564923
-6.0929625869
-6.177090801
-6.26454928626
-5.281415425
-5.301231076
-5.33747238899
-5.38495796352
-5.43998181073
-5.50052334143
-5.56535676388
-5.63371714525
-5.70511888971
-5.77930929402
-5.85620640458
-5.93584285767
-6.01830230415
-6.10368205727
-6.19206373109
-6.28349083929
-6.37802171135
-6.47477971923
-5.30989671454
-5.33240437059
-5.37441690156
-5.42908105968
-5.49153425592
-5.55957793515
-5.63217649131
-5.70863562143
-5.7884121103
-5.8711477923
-5.95666534208
-6.04488001352
-6.13574250259
-6.22919454959
-6.32516772989
-6.42356423539
-6.5243267274
-6.62645656582
-5.31098655998
-5.33708126463
-5.38654691868
-5.44953776058
-5.51943167688
-5.59412397812
-5.67309014282
-5.75583240774
-5.84178368147
-5.93056372896
-6.02199586473
-6.11597950017
-6.21241298624
-6.31116125609
-6.41208089587
-6.5150120319
-6.61985658196
-6.72558180995
-5.29210469915
-5.32380713069
-5.38383819872
-5.45698167834
-5.53455567192
-5.61541542072
-5.70001329304
-5.78803657198
-5.87885664321
-5.97212404828
-6.06773907932
-6.16564322247
-6.2657090679
-6.36776353722
-6.47161188138
-6.57705773969
-6.68395845242
-6.79123183431
-5.25637887645
-5.29694845971
-5.37166444683
-5.45642479733
-5.54121669554
-5.62750830958
-5.71710730337
-5.80972244457
-5.90464460508
-6.0016484791
-6.1007763733
-6.20200274384
-6.30516174541
-6.41002463215
-6.51636510969
-6.6239804061
-6.73275108364
-6.841648364
-5.20564845251
-5.26055561555
-5.35512812407
-5.45201547596
-5.542724155
-5.63344882634
-5.72716775546
-5.82319630194
-5.9207898337
-6.02003806316
-6.12122917838
-6.22440572134
-6.32937391645
-6.43585379302
-6.54357366113
-6.65227654662
-6.76177284126
-6.87093255626
-5.14061161426
-5.21883172287
-5.33880841107
-5.44663869936
-5.54154959259
-5.63638449599
-5.73434856556
-5.8338501524
-5.93413627692
-6.03565033617
-6.13888683292
-6.24392868423
-6.35057103588
-6.4585311355
-6.56753861606
-6.6773194013
-6.78765326987
-6.8974042381
-5.06087967357
-5.1766754047
-5.32629982303
-5.4412296406
-5.53740110172
-5.63459565462
-5.73500942767
-5.83622657905
-5.93781918015
-6.04059574575
-6.14510966019
-6.25136421241
-6.35910208633
-6.46804522255
-6.57793968226
-6.68848068137
-6.79928493429
-6.90886359486
-4.96536371826
-5.14023054958
-5.32052808563
-5.43914495335
-5.53733875177
-5.63824213672
-5.74132259198
-5.84387102945
-5.94632469613
-6.04997681349
-6.15539593065
-6.26247261677
-6.37090600217
-6.48045125552
-6.59092664697
-6.70206741226
-6.8134101471
-6.92313073838
-4.85217487412
-5.11591317481
-5.31559110978
-5.42810557523
-5.52642089875
-5.63085910235
-5.73638982967
-5.840166354
-5.94356301282
-6.04827262004
-6.15480759761
-6.26292284022
-6.37225965483
-6.4826136637
-6.59389807604
-6.70596269183
-6.81833751248
-6.92864707915
-4.71989273183
-5.12310641201
-5.33449700727
-5.43501665689
-5.53072012933
-5.63605291818
-5.74179220422
-5.84511192038
-5.94810255353
-6.05269916364
-6.15933288131
-6.26762915466
-6.37716827323
-6.48776404819
-6.59942313495
-6.71222526655
-6.82619001797
-6.94002943835
-4.54904731837
-5.10469241369
-5.32943735114
-5.42655439942
-5.52367934705
-5.63135850931
-5.73848718764
-5.84250736767
-5.94597654968
-6.05101092963
-6.15805139364
-6.26669768852
-6.37652637438
-6.4873748365
-6.59930185763
-6.71254294782
-6.8275520831
-6.94879929614
-3.09528751739
-3.10071668372
-3.10782295353
-3.11126646938
-3.1133693577
-3.12196745425
-3.14408947392
-3.18186020768
-3.23760878774
-3.31336454775
-3.4108297768
-3.53138029749
-3.676096409
-3.84577690572
-4.04097989469
-4.26203990902
-4.50911248578
-4.7821880332
-5.08113739772
-5.40571760901
-5.75561461846
-6.13043981514
-6.5297680029
-6.95312354384
-7.40001148821
-7.86989533299
-8.36221845008
-8.87637612374
-9.41172795495
-9.96756441879
-10.5431093257
-11.1374840857
-11.7497023313
-12.3786323066
-13.0229847305
-13.6812774598
-14.3518209296
-15.0326886009
-15.7217049174
-16.4164271571
-17.1141395036
-17.8118525178
-18.5063114214
-19.1940259293
-19.8712968173
-20.534275639
-21.1789949899
-21.8014519534
-22.3976371938
-22.9636368463
-23.4956515625
-23.9901163211
-24.4437105265
-24.8534767731
-25.216799039
-25.5314757302
-25.7956325899
-26.0077543372
-26.166601771
-26.2713049996
-26.3213985994
-26.3169795504
-26.2586187699
-26.1471586502
-25.9835138487
-25.7692478494
-25.5069509132
-25.1997811648
-24.8509422082
-24.4634442894
-24.0398900022
-23.5822608549
-23.0917562766
-22.5686094897
-22.0119791393
-21.4197585497
-20.7884631474
-20.1129847971
-19.3864577677
-18.6000207846
-17.7429051215
-16.8025897018
-15.7654977624
-14.6178954928
-13.3476042296
-11.9458099706
-10.4091613193
-8.74116432419
-6.95333406102
-5.06526760453
-3.10381441447
-1.10137861521
0.906544114012
2.88391460646
4.79667413522
6.61479499842
8.31380869477
9.87574607587
11.2893346202
12.5494492316
13.656220016
14.6140676986
15.4305397282
16.1151809619
16.6783015092
17.1315174652
17.4872684325
17.7602539634
17.9654340336
18.1141060424
18.2234294876
18.2943226259
18.3180493879
18.2992806119
18.2482281795
18.1740613324
18.0837280515
17.9824006857
17.8739408633
17.7613081466
17.6467650015
17.5320889907
17.4186577322
17.3075699536
17.1996390439
17.0954781401
16.9954739897
16.8998846822
16.8088096123
16.722278608
16.6402057001
16.5624972609
16.4890898634
16.4199388494
16.3548891024
16.293767335
16.2363372212
16.1823387058
16.1314832255
16.0834983495
16.0381123009
15.9950761301
15.9541618686
15.9151661348
15.8779036382
15.842202214
15.8078985711
15.774843965
15.7428965655
15.7119228923
15.6818044136
15.6524357676
15.6237179936
15.59556015
15.5678759617
15.5405890214
15.5136382692
15.4869679207
15.4605156841
15.4342317275
15.4080912542
15.3820708058
15.3561289314
15.3302457769
15.3044155321
15.2786421981
15.2529243623
15.2272749877
15.2017380937
15.1763727348
15.1512442611
15.1264549712
15.1021646947
15.0785895562
15.0559676248
15.0346051436
15.0149282016
14.9974736715
14.9842021352
14.9651316899
-3.07406623337
-3.08078311753
-3.09423793396
-3.11156912075
-3.12119495937
-3.12675452458
-3.14507072136
-3.18093047744
-3.23615165277
-3.31234703109
-3.41096226395
-3.53319297575
-3.67997755471
-3.85200028459
-4.04972091883
-4.27339290607
-4.52310180081
-4.79878369398
-5.10026399931
-5.4272699659
-5.77946548505
-6.15645431012
-6.5578089216
-6.98306520907
-7.43174221317
-7.90332876646
-8.39729450842
-8.91307013349
-9.45004901147
-10.0075617348
-10.584869239
-11.1811336203
-11.7954036878
-12.4265831167
-13.0734106229
-13.7344280489
-14.4079590374
-15.0920823079
-15.7846147944
-16.4830946981
-17.1847721052
-17.8866072458
-18.585280066
-19.2772209735
-19.9586467769
-20.6256146104
-21.2740654964
-21.8998978069
-22.4990199976
-23.0674357225
-23.6012979834
-24.0970056167
-24.5512526802
-24.9610977315
-25.3239712016
-25.6376989065
-25.9004569579
-26.1107492824
-26.2673692728
-26.3694534896
-26.4166636125
-26.4094096861
-26.3485364432
-26.2343717845
-26.0664099339
-25.8463265525
-25.5780601968
-25.2652818339
-24.9115172672
-24.5200192618
-24.0936013865
-23.6344552738
-23.1439860054
-22.6226449302
-22.0697972544
-21.4835543174
-20.8606049127
-20.1959853584
-19.4828802067
-18.7123884815
-17.8734665342
-16.953100943
-15.9369318115
-14.8102495212
-13.5596320323
-12.1749874259
-10.651773206
-8.99271399862
-7.20893715887
-5.32010945573
-3.35364003741
-1.34264758109
0.676573491552
2.66727318688
4.59482049663
6.42888756012
8.14475231359
9.72410044264
11.1550518824
12.4314897662
13.5521784014
14.5203846012
15.342703418
16.0286924301
16.5903036425
17.0425449622
17.4006409503
17.6795474439
17.8989873707
18.0647223291
18.1783558398
18.2467109991
18.2712967626
18.2567084734
18.2109339663
18.1418710612
18.0560371216
17.9585217716
17.8532651838
17.7433158819
17.6310426583
17.5182934934
17.4065208245
17.296859031
17.1901734883
17.0870891352
16.9880294657
16.8932585571
16.8029218511
16.7170722738
16.6356964382
16.5587435934
16.4860582365
16.4174367595
16.3527427779
16.2918811523
16.2346755611
16.1808723653
16.1301926551
16.0823618508
16.0371128703
15.9941966653
15.9533888335
15.9144895038
15.8773148755
15.8416921651
15.8074590704
15.7744638786
15.7425670799
15.7116396347
15.6815651636
15.6522360383
15.6235527493
15.5954276789
15.5677764192
15.5405217112
15.513593654
15.486938792
15.4605083369
15.4342528829
15.408132184
15.3821168258
15.356178357
15.3303006869
15.3044753944
15.2787076298
15.2530016057
15.227363872
15.2018205451
15.1764356983
15.1512927842
15.1264920187
15.1021792576
15.0785549904
15.0558590594
15.0343920826
15.0145562977
14.9968167888
14.9829129998
14.9610965481
-3.02682051123
-3.04091172789
-3.05907082868
-3.08250337125
-3.11034283317
-3.14265396208
-3.18434186666
-3.2396136562
-3.31168697908
-3.40299357717
-3.51536684226
-3.65018616618
-3.80847638867
-3.99096382978
-4.19813235783
-4.43025636901
-4.68744584191
-4.96966918776
-5.27679282511
-5.60859462302
-5.96479712348
-6.34507180314
-6.74906441148
-7.17639026135
-7.62665125091
-8.09942295057
-8.59426247958
-9.11068948377
-9.64818484171
-10.2061659324
-10.783976723
-11.3808586775
-11.9959332971
-12.6281696203
-13.2763609597
-13.9390910666
-14.614708978
-15.3013003064
-15.9966679031
-16.6983127887
-17.4034224671
-18.1088662327
-18.8112067755
-19.5067360586
-20.1915221799
-20.8614667228
-21.5123571888
-22.139943999
-22.7400095513
-23.3084518601
-23.8413628741
-24.3351277556
-24.7864722368
-25.1925120784
-25.5507533973
-25.8591030432
-26.1158143415
-26.3194197653
-26.4686882272
-26.5627314886
-26.6013698409
-26.5852224954
-26.514739874
-26.3887164306
-26.2077734419
-25.9756120218
-25.6960037056
-25.3727291794
-25.0095863545
-24.6101716918
-24.1776798438
-23.7147069026
-23.2230637144
-22.7035929816
-22.1560151316
-21.5787630734
-20.9687811275
-20.3212787624
-19.6294934732
-18.8844116342
-18.0745577102
-17.1860652222
-16.203239536
-15.1096149221
-13.8896130953
-12.5308409098
-11.0266916391
-9.37850098699
-7.59683441355
-5.7018045751
-3.72195158263
-1.69196572079
0.350283203571
2.3665487644
4.3208154143
6.18171650455
7.92353503566
9.52673753192
10.9780556465
12.2701071023
13.4008472765
14.3740574279
15.1977699924
15.8842015496
16.448284319
16.9072687332
17.2818117754
17.5814769001
17.8120052294
17.982774631
18.1011920945
18.1734329217
18.2030965274
18.1950656546
18.156190184
18.093535272
18.0133227274
17.9206273598
17.8194977592
17.71310046
17.6039238279
17.4938996031
17.3845564834
17.2770695656
17.1723457343
17.0710252716
16.9735649873
16.8802436942
16.7912243586
16.706563869
16.6262715468
16.5502834228
16.4784874079
16.4107099377
16.346777682
16.286560119
16.2299259662
16.1766344134
16.1264182572
16.0790048584
16.0341330904
15.9915579694
15.9510570783
15.912433338
15.8755073252
15.8401099085
15.8060801815
15.7732690407
15.7415407082
15.7107679056
15.6808337712
15.6516338129
15.6230657305
15.5950374918
15.5674670909
15.5402840103
15.5134245423
15.4868267796
15.4604378878
15.4342161467
15.4081245403
15.3821373098
15.356227696
15.3303789307
15.3045813634
15.278817075
15.2530783067
15.2273904561
15.2017946718
15.1763309874
15.1510718142
15.1261342701
15.1016657333
15.0778504914
15.0549040342
15.0330770428
15.012683115
14.9940281548
14.9780421293
14.9528711259
-3.00302227626
-3.02198519535
-3.05078847327
-3.08750660372
-3.13267332039
-3.18686956857
-3.25182984855
-3.32980563514
-3.42316410413
-3.53403566405
-3.66420469797
-3.81509466825
-3.98780149527
-4.18312702908
-4.40163016753
-4.643660282
-4.90940501226
-5.19891490096
-5.51214398482
-5.84896431657
-6.20919867148
-6.59262419086
-6.99899697601
-7.4280466844
-7.87949170098
-8.35302610897
-8.84832599798
-9.3650296695
-9.90273492803
-10.460973515
-11.0391994812
-11.6367583584
-12.2528674309
-12.8865807387
-13.5367624602
-14.2020488411
-14.8808190019
-15.5711616015
-16.2708525989
-16.9773325384
-17.6876926167
-18.398666422
-19.1066442155
-19.8077161655
-20.4977338215
-21.1723763223
-21.827211964
-22.4577834518
-23.059695083
-23.6287099595
-24.1608461547
-24.652482304
-25.1003943344
-25.5017796156
-25.8542672771
-26.1559257934
-26.4051583279
-26.600604692
-26.7410232469
-26.8256359479
-26.8545105158
-26.8280749488
-26.7454923078
-26.6044787203
-26.4072983278
-26.1593887512
-25.8645664562
-25.5270372588
-25.1510974831
-24.7409229766
-24.3003334674
-23.8325626327
-23.340039158
-22.8241632897
-22.2851232303
-21.7217404128
-21.1312660638
-20.5091067732
-19.8485523914
-19.1404482414
-18.3728253236
-17.5307573728
-16.5967899382
-15.5519737976
-14.3776246031
-13.0579374365
-11.583078456
-9.95191457772
-8.17379363734
-6.26899762135
-4.26773233963
-2.20704939429
-0.127356981207
1.9303272474
3.92696009365
5.82839181131
7.60639540569
9.23908143563
10.7120434281
12.0184522901
13.1581323073
14.1376579571
14.9691105695
15.6674699688
16.2531951588
16.7394298273
17.133262123
17.4450305871
17.685836269
17.8652974305
17.9910854677
18.0695630418
18.1058041383
18.1052682231
18.0743096615
18.0194033411
17.9464145545
17.8602995964
17.7650983029
17.664034714
17.5596591335
17.4539749345
17.3485607299
17.2446429968
17.1431553892
17.0447752307
16.9499801308
16.8590794006
16.7722603908
16.6895995552
16.6111180151
16.536779311
16.4664786097
16.4000620753
16.3373896715
16.2783246651
16.222699954
16.1702870381
16.1208367421
16.0740946253
16.0298128709
15.9877571215
15.9477163978
15.9095028263
15.8729432491
15.8378724763
15.804135233
15.7715841344
15.7400853986
15.7095183488
15.6797638242
15.650715579
15.6222779066
15.5943663942
15.5669057786
15.539817624
15.5130358213
15.486506417
15.4601826195
15.4340222892
15.4079876479
15.3820442754
15.3561676889
15.3303244952
15.3044913623
15.2786693484
15.2528765769
15.2271232601
15.2014267127
15.1758465493
15.1504692493
15.1254047413
15.1007825007
15.0767434428
15.0534536538
15.0310932074
15.0098184455
14.9896574059
14.9707640443
14.9420274244
-3.05602047201
-3.07886547035
-3.11393621597
-3.16042397072
-3.2184442302
-3.28839259256
-3.37127456751
-3.46840069896
-3.58122511574
-3.71117036839
-3.85953450111
-4.0274284179
-4.21576111489
-4.4252348977
-4.65637057856
-4.90952323278
-5.18491860044
-5.48266986798
-5.8028132254
-6.14531775341
-6.51011499509
-6.89710065762
-7.30615608762
-7.73714146098
-8.18990946279
-8.66429086246
-9.1600993798
-9.67711106286
-10.2150602381
-10.7736126143
-11.3523519598
-11.9507470353
-12.5681294919
-13.2036550676
-13.856273509
-14.5246848287
-15.2073048064
-15.9022249951
-16.6071862936
-17.3195511152
-18.0362869764
-18.7539538491
-19.4687203529
-20.176414321
-20.8726013562
-21.5526640184
-22.21187459
-22.8454948166
-23.4488914282
-24.0176626801
-24.547760259
-25.0355928618
-25.4780370133
-25.8724397989
-26.2166478234
-26.5089863863
-26.7480690435
-26.9326538355
-27.061562109
-27.134203487
-27.1507290471
-27.1104665906
-27.0095879932
-26.8479710584
-26.6309743057
-26.3632247859
-26.0490029693
-25.6930975319
-25.3005184883
-24.8762329614
-24.4248573933
-23.9503794938
-23.4559210524
-22.9434930228
-22.41378469
-21.8660265975
-21.2978300483
-20.7048955823
-20.0807043142
-19.4161981506
-18.6992269544
-17.9140916477
-17.0416596773
-16.0601092675
-14.9467973053
-13.681237109
-12.2488015416
-10.6443852916
-8.87486685988
-6.96024803488
-4.93285955369
-2.83364120907
-0.707261112274
1.40073027796
3.44602580114
5.39043403517
7.20349967713
8.86245612681
10.3542937811
11.6749122296
12.828686361
13.8251928792
14.6819518149
15.4133195452
16.0268668594
16.5323925659
16.9423246451
17.2685972024
17.5221059536
17.7124418889
17.8477232258
17.9348836462
17.9798961998
17.9886438867
17.9672390279
17.9217430833
17.857689351
17.7798773704
17.6922850864
17.5981617814
17.500092866
17.4001505381
17.2999561841
17.2007953633
17.1036284917
17.0091823256
16.9179559089
16.8303039362
16.7464321476
16.6664540511
16.5903950091
16.5182507762
16.4499344577
16.3853326121
16.3243390169
16.2668216483
16.2125652651
16.1613492988
16.1129461676
16.0671267367
16.0236607754
15.9823304727
15.942937384
15.9053024766
15.8692599271
15.8346492304
15.8013199504
15.7691343847
15.7379592833
15.7076743393
15.6781715952
15.6493506609
15.6211232496
15.5933991984
15.566094709
15.5391426699
15.5124841988
15.4860662532
15.4598386845
15.4337555525
15.4077779038
15.3818719593
15.3559999179
15.330133625
15.3042749108
15.2784361806
15.2526103523
15.2267958993
15.2010280634
15.1753700507
15.1498961675
15.1246935724
15.0998573897
15.0754988245
15.0517071159
15.0285566949
15.0060770112
14.9840221147
14.9619569512
14.9294921223
-3.19342235679
-3.21583084154
-3.25232136989
-3.3033832386
-3.36889105508
-3.44896594786
-3.54410986309
-3.65503262953
-3.7825552373
-3.92751505132
-4.09071410821
-4.27287056332
-4.47460181644
-4.69640797248
-4.93868317211
-5.2017168742
-5.4857185692
-5.79082400167
-6.11712222151
-6.4646593367
-6.8334623887
-7.22353658977
-7.63488372376
-8.06749285467
-8.52135117367
-8.9964285316
-9.49268062962
-10.010027046
-10.5483458562
-11.1074450431
-11.6870474989
-12.2867549289
-12.906022968
-13.5441179323
-14.2000823396
-14.8726842289
-15.560376147
-16.2612458809
-16.9729834848
-17.692846632
-18.4176410766
-19.1437031324
-19.8669160152
-20.5827664064
-21.2864433102
-21.9729409321
-22.6371558424
-23.2740125366
-23.8786240712
-24.4464582885
-24.9734697294
-25.4561883418
-25.8916768785
-26.2775629255
-26.6120595103
-26.8938572138
-27.1218582364
-27.2947381021
-27.4113915438
-27.4714107709
-27.474236249
-27.4166028796
-27.2936558521
-27.1091459658
-26.8704612518
-26.5811247146
-26.2459779102
-25.870486627
-25.4604222862
-25.0215080815
-24.5590563466
-24.0776675794
-23.5810213935
-23.071662857
-22.5507632922
-22.0179905095
-21.4714451554
-20.9073821783
-20.3199188539
-19.7007641075
-19.0383704735
-18.3170397727
-17.5163388331
-16.6113219281
-15.5742126493
-14.3779996942
-13.0011569719
-11.432699177
-9.67572017805
-7.74955904319
-5.69064490272
-3.54701722031
-1.37017603252
0.789153227463
2.88124067813
4.86439593616
6.70875870143
8.39267360541
9.90736171744
11.2517997055
12.4356600233
13.4711876599
14.3640114944
15.1219591351
15.7572382558
16.2825552413
16.7104274329
17.0527492807
17.3205143599
17.5235365507
17.6703564453
17.7683862496
17.8241832511
17.8439133698
17.8336033903
17.7990270518
17.7454655658
17.6775391953
17.5991528906
17.5135305571
17.4232867343
17.3305243773
17.2369178721
17.1437846095
17.0521328056
16.9627192601
16.8760889119
16.7926245172
16.7125710917
16.6360715678
16.5631802392
16.4938991005
16.4281834573
16.3659646936
16.3071927285
16.251706599
16.1992462392
16.1496079198
16.1025933018
16.0579984271
16.0156155179
15.9752466652
15.9367099916
15.8998380537
15.8644729349
15.8304665616
15.7976751985
15.7659632673
15.7352095131
15.7053020585
15.6761387683
15.6476231018
15.6196578668
15.5921552035
15.5650447871
15.5382664846
15.5117608796
15.4854729353
15.4593508546
15.4333519597
15.4074405361
15.3815750459
15.3557212169
15.3298728377
15.3040382042
15.278205108
15.2523535701
15.2264986825
15.2006780426
15.1749422548
15.1493469782
15.1239587512
15.0988510885
15.0740699759
15.0496394871
15.0255648411
15.0017226321
14.9776212005
14.9524265441
14.9163234458
-3.38814384189
-3.40873786561
-3.44476165088
-3.49738359275
-3.56649642132
-3.65221435946
-3.75478250609
-3.87454636414
-4.01191489461
-4.16731392673
-4.34116316337
-4.53384624085
-4.74570480532
-4.97702415194
-5.22804267505
-5.49894754542
-5.78989285224
-6.10099871323
-6.4323720375
-6.78410379618
-7.15628774125
-7.54901388854
-7.96238243743
-8.39649193631
-8.85144783106
-9.32734490655
-9.82426867633
-10.342272017
-10.881368213
-11.4415003402
-12.0225242739
-12.6241693148
-13.2460101442
-13.8874180637
-14.547521983
-15.2251500307
-15.9187809568
-16.6264837661
-17.3458761164
-18.07408065
-18.8077028628
-19.5428097466
-20.2749461319
-20.9991951768
-21.7103028678
-22.4028209141
-23.0712455297
-23.7101688548
-24.3144762154
-24.8795381576
-25.4013305747
-25.8765227738
-26.3024500077
-26.6771959598
-26.9995437291
-27.2686381394
-27.4835304536
-27.6429666218
-27.7460587083
-27.7923287427
-27.7795055515
-27.7006602447
-27.5556205934
-27.3516751508
-27.0930576711
-26.7837113708
-26.4290377675
-26.0351155069
-25.6083108854
-25.1549052713
-24.6807427276
-24.1909196995
-23.6896162411
-23.1799307004
-22.6636458625
-22.1411510676
-21.6115096379
-21.0721896995
-20.5188012579
-19.9446350841
-19.3396068411
-18.6886702688
-17.9701596335
-17.1551076313
-16.2086808896
-15.0950986552
-13.78399508
-12.2579723471
-10.5168835924
-8.58056201312
-6.49074527201
-4.30613409012
-2.08582392967
0.116407560314
2.24732127339
4.26327267242
6.13850675676
7.85278772934
9.40213171815
10.7906466889
12.0172750762
13.0859583404
14.0059603556
14.7886258216
15.4464364272
15.9922491369
16.4387838352
16.7981264379
17.0814600879
17.2988205809
17.4590794149
17.5700096104
17.6385461311
17.6710367791
17.6734679172
17.6514093191
17.6099384446
17.5535020041
17.4859177693
17.4103581146
17.3294487698
17.2453042534
17.1596435419
17.0738075013
16.9888550607
16.9055707937
16.824552339
16.7462092272
16.6708351529
16.5985945339
16.5295927806
16.463839548
16.4013317522
16.3420691917
16.2860252285
16.2329942365
16.1827162733
16.1350058653
16.0896954985
16.0466083024
16.0055641451
15.966387286
15.9289132344
15.8929897246
15.8584724646
15.8252194173
15.7930955046
15.7619800435
15.7317595709
15.7023278488
15.6735873231
15.6454383263
15.6177891851
15.5905669941
15.5637084595
15.5371527736
15.5108399636
15.4847164725
15.4587322724
15.4328525001
15.4070372799
15.3812448593
15.355453587
15.3296689048
15.3038821001
15.2780616252
15.2522034581
15.2263272808
15.2004612725
15.1746419439
15.1489062801
15.1233095421
15.097878438
15.0726031158
15.0474640472
15.0223828751
14.9970986761
14.9708897
14.9426483946
14.9031429364
-3.60800818872
-3.6268644698
-3.66218106714
-3.71512907354
-3.78573937281
-3.87426283009
-3.98088436526
-4.10578810158
-4.249156244
-4.41115953555
-4.59195953191
-4.79169706407
-5.01049917928
-5.24847150863
-5.50571131648
-5.78230263301
-6.07833287499
-6.39388832824
-6.72907092604
-7.08399194671
-7.45878663106
-7.85360398387
-8.2686178675
-8.7040127543
-9.15998936096
-9.63674582013
-10.1344770916
-10.6533501008
-11.1934949977
-11.7549727894
-12.3377560332
-12.9416864416
-13.5664428886
-14.2114879497
-14.876022819
-15.5589221178
-16.2586767469
-16.9733227091
-17.700387116
-18.436834817
-19.1790407092
-19.9227688099
-20.6631882005
-21.3949376783
-22.1122729288
-22.8092629074
-23.4799755109
-24.1186570909
-24.7199463783
-25.2791259814
-25.7922706397
-26.2563994875
-26.6695531377
-27.0307891891
-27.3397773047
-27.5961054304
-27.7985529196
-27.9460357796
-28.0381649524
-28.0737634208
-28.047572405
-27.9530403291
-27.7933486571
-27.574785394
-27.299691798
-26.9727434675
-26.5998817655
-26.1878241553
-25.7435773236
-25.2740461809
-24.7856581582
-24.2840185694
-23.7738028924
-23.2586596018
-22.7412012277
-22.2230559846
-21.7049143739
-21.1861856069
-20.6644521492
-20.1346565197
-19.5877536347
-19.0086332973
-18.3738000247
-17.6497665028
-16.7944870661
-15.7635990391
-14.5185224482
-13.0367073465
-11.3166730507
-9.37989510264
-7.2722358154
-5.0620146139
-2.81516765686
-0.585257089918
1.57547337269
3.62117793602
5.53143227411
7.29110319279
8.88532793401
10.3104987076
11.5684375254
12.6656058777
13.6115779349
14.4179919453
15.0976383448
15.6636859421
16.129076792
16.5060913773
16.8060570152
17.0391965381
17.2145887246
17.340259991
17.4233502124
17.4703213337
17.4871011807
17.4791183228
17.4512630796
17.4078400046
17.3525559432
17.2885381504
17.2183876183
17.1442375431
17.0678200369
16.9905151405
16.9134095508
16.8373361026
16.76292618
16.6906376694
16.6207967779
16.5536108024
16.4892203748
16.4276777503
16.3690150228
16.3132971852
16.2604906751
16.210365183
16.1626783383
16.1172743402
16.0740141753
16.0327498752
15.9933289756
15.9555998859
15.9194203707
15.8846544218
15.8511670937
15.8188290106
15.7875230026
15.757138234
15.7275658667
15.6987101132
15.6704765589
15.6427702791
15.6155149585
15.5886450465
15.5620991146
15.5358165531
15.5097423591
15.4838251059
15.4580230105
15.4322993428
15.4066139443
15.3809352567
15.3552504273
15.3295549282
15.30382798
15.2780453989
15.2522096561
15.2263334283
15.2004365303
15.1745352461
15.1486641861
15.1228431821
15.0970529826
15.0712515125
15.0453677211
15.0192408272
14.9924570717
14.9641267147
14.9330092303
14.8904282814
-3.82361545125
-3.84127234977
-3.87617384
-3.92909378097
-4.0002602339
-4.09006792094
-4.19872364663
-4.32636700022
-4.47307830377
-4.63889302312
-4.82382153723
-5.02785147879
-5.25096638938
-5.49314487391
-5.75437887058
-6.03467050768
-6.33404945346
-6.65256719475
-6.99031271013
-7.34740344094
-7.72399783233
-8.12028312064
-8.53648393219