/*--------------------------------*- C++ -*----------------------------------*\
| =========                 |                                                 |
| \\      /  F ield         | OpenFOAM: The Open Source CFD Toolbox           |
|  \\    /   O peration     | Version:  v1806                                 |
|   \\  /    A nd           | Web:      www.OpenFOAM.com                      |
|    \\/     M anipulation  |                                                 |
\*---------------------------------------------------------------------------*/
FoamFile
{
    version     2.0;
    format      ascii;
    class       volScalarField;
    location    "16";
    object      pa;
}
// * * * * * * * * * * * * * * * * * * * * * * * * * * * * * * * * * * * * * //

dimensions      [0 2 -2 0 0 0 0];


internalField   nonuniform List<scalar> 
12225
(
35.5538826282
34.8504357817
35.7943234386
35.5537016117
35.7596472958
35.9184677317
36.3323774836
37.0665148666
38.2185811826
39.6782814978
41.1992534228
42.3507319106
42.6991543048
42.4302811231
43.4420543998
49.4904284248
61.5267556801
64.9399751434
53.4571681405
46.7105192963
46.8310627054
47.0302959698
47.5405241591
48.204571601
49.1454590549
50.3893160454
51.9192962117
53.568822304
55.0952317936
56.1523374929
56.5291717392
56.7833422385
58.923479669
65.6111090118
74.7064039081
71.0364614544
33.7097426698
40.8216445095
40.3776495723
40.3217493936
40.4688146024
40.8048217766
41.4281536949
42.3340763053
43.4747511859
44.662378487
45.6508433205
46.1416165702
46.0672420275
46.1382425106
48.2489333485
54.2113703012
61.2045121576
59.0193761246
53.0719645389
44.144412074
43.4686126591
43.6259716432
43.8615064349
44.3039829042
45.0014727463
45.9554625081
47.091701625
48.2198334487
49.0779446599
49.3809695753
49.1083009894
48.9011308033
50.1405614321
53.5535768236
56.358737795
53.1891559669
33.5458147051
40.7676378963
41.6083402343
41.4910051341
41.7487966298
42.1345459449
42.7942233395
43.7024119834
44.8080624015
45.9577618607
46.9414192057
47.5571618771
47.859461228
48.385629309
49.9472831004
52.3935182576
53.3274062463
50.2760729883
47.3240406447
42.6834600185
42.8339321814
42.8698565663
43.0575978664
43.3492796174
43.8323519589
44.4823547552
45.2490143882
46.0128122871
46.6277039418
46.9982503431
47.2630399195
47.8708712986
49.2259943774
50.7938635022
50.8387226666
48.3644454806
41.0967290731
42.0118484927
42.4440825396
42.5958766864
42.8901429457
43.2704876341
43.7998493073
44.4426292342
45.1399594957
45.7865013028
46.2758560846
46.5779439237
46.8542797985
47.4282808157
48.4266265583
49.264664889
48.8651737012
46.9250745607
42.9025893671
42.19349881
42.5840849038
42.7394303792
43.0201954857
43.3705573156
43.8424017626
44.3975073947
44.9792430032
45.5002875324
45.888691579
46.1518570133
46.431150076
46.9171107229
47.5692099203
47.8984463853
47.3079403639
45.771389803
42.5622938634
42.3248998847
42.657947153
42.8510476386
43.1264229813
43.4573068554
43.8742428563
44.3438688447
44.8157777269
45.2237620039
45.5259109612
45.7484624024
45.9962030895
46.3550927983
46.7130787203
46.7181175158
46.0701129272
44.828429904
42.5532397473
42.4398397477
42.7365470776
42.943651105
43.2054673552
43.5100357101
43.8713141349
44.2605180262
44.6350937571
44.9478722845
45.1782457172
45.3560561526
45.5464687756
45.76790829
45.8981817233
45.7096876298
45.067191301
44.0410225388
42.5148257007
42.5504519661
42.8024271454
43.0107598768
43.2491009277
43.5210954254
43.8260325954
44.1404426564
44.4299697137
44.6631489705
44.8318816201
44.9603688565
45.0806295161
45.1756124104
45.1424993419
44.8461456245
44.2354033894
43.3723890044
42.4963918797
42.6338921904
42.8331338541
43.0318547867
43.242031224
43.4798709173
43.7339569466
43.9856626685
44.2077382254
44.3790969129
44.4971051954
44.5779049533
44.632011379
44.6308185233
44.4976134817
44.1529668593
43.5828957972
42.8355655871
42.5077965781
42.7058217358
42.8448745187
43.0271131909
43.2063578594
43.4086516217
43.6145597937
43.8096592678
43.9725850332
44.0897384309
44.1609818732
44.1933321569
44.1856244444
44.1087430363
43.9085657057
43.5428633361
43.0137493107
42.3620953088
42.5274863637
42.7618889368
42.8398015661
42.9958615676
43.1378903725
43.2986544831
43.4528143619
43.5899463883
43.6938275394
43.7564095393
43.7759866501
43.7559290673
43.6877373104
43.5476003693
43.3024581645
42.9314541991
42.448670772
41.8822649193
42.543267425
42.7912701331
42.816047987
42.9362701821
43.036436373
43.1494415307
43.2493291491
43.327643732
43.3731476179
43.3788814189
43.3460597798
43.2714645433
43.1493507631
42.9619460463
42.6915123215
42.330088012
41.8939253952
41.4066609722
42.557097717
42.7913029138
42.7698283443
42.8490742725
42.9039549891
42.9663555506
43.0111159054
43.0319226732
43.0198904839
42.9721031366
42.8863288222
42.7634157767
42.5968111316
42.3790228049
42.0984091065
41.756762284
41.3663518559
40.949113723
42.5338234485
42.7375579115
42.6798786933
42.7135979296
42.7216225674
42.7324442628
42.723402321
42.6899150538
42.6257418433
42.5285953879
42.3989746739
42.2369767696
42.0411814168
41.8066182536
41.5297125352
41.2117265283
40.8667720187
40.5085798527
42.4863896389
42.630387503
42.5350645662
42.5196498131
42.4815344217
42.4422840392
42.383772603
42.3019912285
42.1933886899
42.0570037773
41.8945684773
41.7073597362
41.4960979433
41.2585519171
40.99342103
40.702818039
40.3988770146
40.0927298358
42.4795435196
42.5223802444
42.388184991
42.3247504
42.2457183017
42.1640423875
42.0656376305
41.9465628563
41.8056767743
41.6426007928
41.4608540569
41.2617694782
41.0479155127
40.8174916808
40.5704164176
40.3082213106
40.0417940499
39.7824615239
41.9219476116
42.1050339886
41.9702232918
41.8843402355
41.7822735192
41.672898885
41.5517707206
41.4088839467
41.2506366204
41.072101967
40.8816336885
40.6777746231
40.4664201777
40.243185284
40.0102401734
39.7662263204
39.5220256654
39.2802785195
43.2431908878
42.7539753092
42.536809919
42.434238526
42.3233168618
42.2074965752
42.0752315211
41.9272363758
41.7613455288
41.5822573227
41.3900483603
41.1903433924
40.9832450406
40.7702917283
40.5485731204
40.3215922388
40.0986986983
39.9084371315
38.9899466172
40.7878473022
40.8191106307
40.7505051256
40.6161755155
40.4787333318
40.3215323448
40.1529063219
39.9739985566
39.7849267843
39.5909975853
39.3935926813
39.1949522293
38.9930028082
38.7876439887
38.5783560149
38.3686652067
38.1245315338
48.6342914117
44.399200285
43.798754755
43.7035545035
43.6028668926
43.4757710752
43.3309011673
43.1692618762
42.9937109981
42.8077531654
42.6113298812
42.4090577795
42.2026221231
41.9934269477
41.7776662198
41.5585237408
41.3450264225
41.228005668
29.5602463567
38.9171851923
39.9266457513
39.9143429462
39.766014239
39.6115035463
39.431813928
39.2455063494
39.0525552359
38.8540652269
38.6527914426
38.4488656292
38.2433457084
38.0355999844
37.8269200622
37.6217215105
37.4281620248
37.1467789985
60.660326038
45.3973890386
43.5020775099
43.5548728435
43.4194857062
43.2642969477
43.0943758286
42.9235176772
42.7572907656
42.5974773913
42.4423214762
42.2903076997
42.1396624745
41.9892770189
41.8384783826
41.6838336106
41.5215078705
41.4734848758
14.9191533943
37.575874104
40.6991389549
40.4028241157
40.2799298115
40.0903772647
39.8982217121
39.6935707622
39.4798953737
39.2548694376
39.0131678771
38.7502420203
38.465936056
38.1638659049
37.8555869078
37.5646651602
37.3246379685
37.0141812594
68.4781532301
47.1501447723
44.1661939282
44.5216263989
44.2932953526
44.1574738974
43.9767515131
43.806978994
43.6374478035
43.471062289
43.3025607039
43.1285624095
42.9537467931
42.7885790634
42.649050308
42.5460221533
42.4629345717
42.5054001729
20.3199825273
38.8182721073
39.4096149415
39.2696371775
39.0535923078
38.8589005458
38.6664074921
38.468011056
38.2729488356
38.0817314537
37.8931380556
37.7049483071
37.5196721512
37.3395804002
37.1658723979
36.9965229365
36.8220344682
36.4636026907
57.7007094009
47.6510441914
47.6281116659
47.3871249963
47.2224527686
47.002837027
46.7904489736
46.5658691682
46.3372072856
46.1074766191
45.8763501507
45.6422642494
45.4045367988
45.1553931904
44.8822864063
44.5696512195
44.1793858274
43.904856145
33.1066256437
33.7354899397
33.7751414761
33.7566772926
33.7355408829
33.711562315
33.664831152
33.608433702
33.5407742964
33.4716361753
33.4055135055
33.3472405445
33.300238168
33.2580226019
33.2054732376
33.1514246914
33.1786789299
33.2817569466
33.0629823359
33.0674299511
33.0744842601
33.0923190923
33.1227432742
33.1646752749
33.2216485703
33.2920630362
33.363957802
33.4288253483
33.4818411622
33.5230849254
33.5552520251
33.582941682
33.6103030973
33.6415284589
33.6786059894
33.7238877044
33.77681211
33.8383788564
33.9066080541
33.9819542447
34.0618456391
34.1466821899
34.2338853549
34.323765845
34.4143004379
34.5057622123
34.5965603378
34.6867552082
34.7754784142
34.8626439512
34.9479832585
35.0312852779
35.1128167092
35.1922482505
35.2701423154
35.3462434319
35.4209451659
35.4940811767
35.5658046481
35.6360812242
35.7046150565
35.7716041667
35.8362480926
35.8990968841
35.9588705843
36.0163803928
36.0701966177
36.1211781608
36.1678498781
36.2111127388
36.2495850443
36.2837884259
36.3128872504
36.3371363935
36.3559438054
36.3693856163
36.3772292906
36.3794401002
36.3759579062
36.3667921495
36.3523741317
36.3341880209
36.3161467755
36.2984024362
36.279779328
36.2588345983
36.235219014
36.2081624596
36.1783393801
36.1452371834
36.1100603201
36.0722789382
36.033314651
35.9925326471
35.9512354463
35.9085285131
35.8649219707
35.8190772838
35.7710259949
35.7189923286
35.6621405828
35.5979652989
35.5248430878
35.4397874422
35.3405053145
35.2238309116
35.0877799097
34.928940695
34.7470367383
34.5431965355
34.3208420294
34.0856273935
33.8437147558
33.6014806189
33.3634768092
33.1349432757
32.9208016905
32.7253255336
32.5485032955
32.3918714273
32.2575249985
32.1496822577
32.0554753752
31.9578660432
31.8458336629
31.7300876595
31.5899436427
31.3920365378
31.20405166
31.0642121207
30.9675526323
30.8962687819
30.8440463788
30.8057504997
30.7778560928
30.7584510126
30.7461665884
30.7403376326
30.7400657045
30.744637917
30.7530349901
30.7647224915
30.7790037754
30.795582606
30.8137349304
30.833068855
30.8528869979
30.8730467973
30.8932091804
30.9135718331
30.9343348602
30.9563410372
30.9800814376
31.0064720247
31.0357869623
31.0684791234
31.1048236808
31.1452086647
31.189873255
31.2387714171
31.2918042542
31.3486094016
31.4090262896
31.4726850427
31.5394686672
31.6089989572
31.6811677967
31.755549382
31.8319750902
31.9098588349
31.9888913954
32.0682122163
32.1472691579
32.2247352409
32.2996096073
32.3698204046
32.4337130716
32.4883229855
32.5313784676
32.5588730421
32.5676997214
32.5526441872
32.5096602377
32.4317359297
32.3130385223
32.1436292809
31.914995414
31.614548876
31.2328891272
30.7580321549
30.1831317841
29.5006178949
28.7088658208
27.7987749354
26.7540228799
25.5429012566
24.1363049035
22.5173639466
33.0455953769
33.0498479748
33.0675379051
33.1114151354
33.1742053711
33.2538924986
33.3430762557
33.4285683344
33.5016726349
33.559375987
33.6024102977
33.6345609497
33.6601408137
33.6836082725
33.7080774246
33.7363674285
33.769490487
33.8088486705
33.853904546
33.9052428911
33.9613818581
34.0226048578
34.0870520135
34.1546802184
34.223552488
34.2935011159
34.3627138614
34.4308369889
34.4963030292
34.5585541886
34.6164200745
34.669244747
34.7163327174
34.7569540934
34.7908110293
34.8173516674
34.8365295173
34.8479186077
34.8516044877
34.8473404552
34.8351488236
34.8150279807
34.7868706404
34.7509299859
34.706947031
34.6554552128
34.596115255
34.5296647731
34.4557316108
34.3752579489
34.2880125535
34.1947251628
34.095318311
33.9904669272
33.8803555624
33.765619939
33.6466687459
33.5239701767
33.3980952304
33.2693920239
33.1384836205
33.0054136746
32.8697730544
32.7283160667
32.577432024
32.4207572287
32.2620085181
32.1031371771
31.9460443848
31.7918795038
31.6421847885
31.4977129999
31.3596768607
31.2283423695
31.1045055235
30.9881269594
30.8795900228
30.7785097628
30.6848777193
30.5983631059
30.5192027417
30.4474830165
30.3836874811
30.3282881804
30.2818675365
30.2447681827
30.2169070156
30.1976846392
30.1852214698
30.1764400428
30.1676927465
30.1575697347
30.145166451
30.1297414853
30.1119643077
30.0945374975
30.0804825401
30.0728718485
30.0764132873
30.0967765238
30.1348723535
30.1965114332
30.2930635152
30.4234548019
30.5717323229
30.7408988877
30.9280256223
31.1043479015
31.2481794139
31.392697211
31.5256559464
31.6194286022
31.6994771197
31.7677929257
31.8280274582
31.8809525286
31.9274814935
31.9687087235
32.0058771664
32.0400937959
32.0721273291
32.1023374036
32.1308357287
32.1577178658
32.1831450377
32.2073204569
32.2304265084
32.2526953548
32.2743849703
32.2957781028
32.3169814517
32.33836879
32.3604003724
32.3837748977
32.4087705182
32.4350876642
32.4625153828
32.4914051954
32.5221418987
32.5551738302
32.5907308714
32.6288054654
32.6692078364
32.7116479627
32.755901276
32.8017566199
32.8491315952
32.8979401754
32.9481393387
32.9995562736
33.0520302753
33.1052314264
33.1588204353
33.2121997732
33.2647261226
33.31531346
33.3627354055
33.4051312859
33.4405704178
33.4662823788
33.4794243008
33.4760750169
33.452449492
33.4033378569
33.3238149855
33.2070590666
33.0464675863
32.8326803001
32.5570154037
32.2084152181
31.778390129
31.2575754303
30.6409578544
29.9231915484
29.1032694025
28.1722945982
27.1106217401
25.8790231839
24.4530784254
22.8418755964
33.036954389
33.0435314298
33.0838220359
33.1459174875
33.2117980781
33.2763369873
33.3322710689
33.370903551
33.386794719
33.3814118484
33.3603413689
33.3305698503
33.2978687641
33.2665002847
33.2387919802
33.2163877981
33.1995993605
33.1891376983
33.184496105
33.1861788907
33.1933870153
33.2064965945
33.2245232974
33.2477713447
33.275109876
33.306641646
33.3412935672
33.3789627949
33.4186271724
33.459997456
33.5022595954
33.5450094751
33.5876628313
33.629838353
33.6712574629
33.7115212517
33.7506097059
33.7882561134
33.8244556822
33.859062367
33.8920822354
33.9234987726
33.9532303216
33.9814212055
34.0078734483
34.0328987651
34.0561854382
34.0781402244
34.0984444186
34.1174432529
34.1347997847
34.1508703557
34.1652593841
34.1781352266
34.1893190793
34.1989405621
34.2068939197
34.213180581
34.2177172307
34.2204423779
34.2213372943
34.2206182869
34.2196193393
34.2217901723
34.225595145
34.2271397039
34.225452692
34.2201367145
34.2106934095
34.1961611302
34.1758484736
34.1489430925
34.1151080931
34.0739774338
34.0256057474
33.9699886976
33.9074304773
33.8379792262
33.7618378323
33.6790879568
33.5899935777
33.4947420726
33.393677694
33.287225681
33.1759730987
33.0606211899
32.9418813169
32.8204707822
32.6965957016
32.5686162464
32.4357994238
32.2987585353
32.159110377
32.0164231518
31.870569359
31.7214837755
31.570108779
31.4144298563
31.255965358
31.0984280352
30.9450730591
30.8053447893
30.6918817427
30.6027734968
30.5413210963
30.5298556893
30.5679997877
30.6521951457
30.8122673347
31.0616750154
31.2839652328
31.4054523335
31.4628953574
31.4871214814
31.4970550613
31.5011227436
31.5038595392
31.5076127409
31.5138578815
31.5231080258
31.5353691532
31.5499520753
31.5661601328
31.5832487732
31.6009670387
31.6191450417
31.6380227764
31.6577698428
31.6787374065
31.7010770266
31.7252196219
31.7514274628
31.7797540429
31.8099479204
31.8418468576
31.8755095049
31.9116926836
31.950919336
31.9937842419
32.040785686
32.0921689631
32.147917061
32.2076807962
32.2710065649
32.3373422317
32.4062771011
32.4774252138
32.5504284491
32.6248148051
32.700025656
32.7754577895
32.8504136178
32.9241597891
32.9957695825
33.0643462128
33.1286289483
33.1873417062
33.2386315934
33.2807471408
33.3111103766
33.3271782409
33.3253714186
33.302414945
33.2535400379
33.1743251163
33.05828316
32.8989899849
32.6871589522
32.4139826687
32.0680251071
31.6401821291
31.1207869038
30.5049611019
29.7881124631
28.9696582882
28.0426380721
26.9919402926
25.7875679192
24.4073334031
22.8632050902
33.0980751978
33.0280410823
33.0512055129
33.111536784
33.1619580607
33.2058496856
33.2453967721
33.2730902889
33.2826167447
33.2752180649
33.2565681586
33.2329920433
33.2091392332
33.187874317
33.170371022
33.1572569877
33.1483057029
33.1436763715
33.1428816482
33.1461343447
33.1528396485
33.1633071469
33.1768874284
33.1937590946
33.2132099749
33.2353232623
33.2592506805
33.2849303684
33.31149203
33.3387412526
33.3658350219
33.3925248026
33.4181645922
33.4424535485
33.4649322218
33.4854262904
33.5036190347
33.5193424289
33.5324604136
33.5428513015
33.5503993756
33.5550809241
33.5567777801
33.5555736427
33.5513250694
33.544210521
33.534073211
33.5211207759
33.5051093811
33.4862714982
33.4643524625
33.439397539
33.4112088225
33.3798000949
33.3449285252
33.3065765764
33.2646148735
33.2189614977
33.1695278107
33.1162570661
33.0592489472
32.9982284037
32.9323302911
32.8604798893
32.7874890532
32.7150575922
32.6437147647
32.5740607
32.5070721864
32.4434116032
32.3836816309
32.328108285
32.2768723277
32.2298449692
32.186928956
32.147862196
32.1123550493
32.0800777673
32.0507005001
32.0239644055
31.999668747
31.9777059799
31.9579695503
31.9404299186
31.9249746355
31.9114913268
31.8995774838
31.8887057728
31.8775687356
31.8638660122
31.8463292626
31.8258888662
31.8038842018
31.7808119683
31.7544901879
31.7223632959
31.6801293812
31.6227906298
31.5480761195
31.4543974892
31.3379831255
31.2017218809
31.0521510111
30.8918102263
30.7288620809
30.5744584685
30.463590491
30.464376469
30.6355045135
30.9200333359
31.1724269732
31.3371543249
31.4398512992
31.5077532749
31.5583191515
31.5996995836
31.6356857258
31.6680579393
31.6977809947
31.7252964683
31.7507125159
31.7738232529
31.7944700932
31.8126845263
31.8288371201
31.8434909492
31.8573827055
31.8711447305
31.8853376476
31.9003406553
31.9165826515
31.9339487828
31.9522710168
31.9712498027
31.9911749375
32.0127767573
32.0367931726
32.0638660342
32.0947524262
32.1301254479
32.1704611269
32.2159239512
32.2663252537
32.321299811
32.3803965035
32.4432808158
32.5096090333
32.5790487106
32.6511451206
32.7254184058
32.8012235179
32.8778893578
32.9545755728
33.0303503514
33.104041632
33.1743725966
33.2398489783
33.2986457885
33.348644708
33.3872315678
33.4115245073
33.4180515678
33.4032007709
33.3625492375
33.2914650771
33.183902074
33.033198074
32.8305440321
32.5667026633
32.2304542673
31.8115665571
31.3000673529
30.6894773529
29.9742373644
29.1519072565
28.2157026972
27.1574141408
25.9678904171
24.6357752357
23.1778655672
33.2086195638
32.8883945177
32.8885364548
32.9730431832
33.0219004212
33.0590479147
33.0981253414
33.1300813195
33.1466132521
33.1480444937
33.1390619638
33.1246254724
33.1082568708
33.0920382393
33.0769890944
33.0637121144
33.0523490924
33.0432108093
33.0362069571
33.0316431512
33.0293887713
33.02967289
33.032248387
33.0373274302
33.0444923221
33.0538223335
33.0648104961
33.0774371784
33.091067391
33.1056306607
33.120484013
33.1355634051
33.1502559895
33.1646135863
33.178194084
33.1910382924
33.2029192817
33.2139543022
33.2239892276
33.2331693639
33.2414468139
33.2489871286
33.2557869187
33.262055317
33.2678074953
33.2732869894
33.278485109
33.2836247257
33.2886839254
33.2937562696
33.2987317191
33.303702062
33.3084489683
33.3129558125
33.3170422493
33.3206662357
33.3236561119
33.325978263
33.3275047441
33.3281766713
33.3279278969
33.32701416
33.3262886131
33.3233349959
33.3147672293
33.2995309832
33.2775383469
33.2488218061
33.2138244335
33.1730467913
33.1273451064
33.0774904722
33.0244504447
32.9690055435
32.9118898837
32.853533592
32.7942313411
32.7339347705
32.6724466826
32.6094182734
32.5444700817
32.4772655114
32.4075545632
32.3352438747
32.2603906454
32.183168686
32.1037268612
32.0224759897
31.9392817023
31.8546863983
31.7699738542
31.6912187581
31.6225914532
31.5673101889
31.5254107437
31.4968122533
31.4763581101
31.4575471848
31.4327358754
31.3917765528
31.3251142337
31.239261003
31.1412565471
31.021178201
30.8723123882
30.6969412938
30.5532018766
30.5425413181
30.6993343822
30.938829679
31.1536304292
31.3066890887
31.4079571471
31.4738282221
31.5175858557
31.547746117
31.5695525762
31.5867695977
31.6018728764
31.6167195473
31.6321464788
31.6485818399
31.6658914107
31.6841040423
31.7030713978
31.7229550364
31.7437225721
31.7655460659
31.7883328984
31.8121053958
31.8364417273
31.8612880085
31.8866190018
31.9125906235
31.9394555932
31.9678344049
31.9981572202
32.031058262
32.0672119662
32.1072804485
32.1517236146
32.2006171313
32.2538258767
32.310978572
32.3717517534
32.4356991858
32.5024795301
32.5716340411
32.6427889014
32.7154143555
32.7890105
32.862880835
32.9363831304
33.0086378239
33.0786669612
33.1451913763
33.2068955072
33.2620745088
33.3088219278
33.3445897226
33.3666884377
33.3717438925
33.3562734303
33.3159853312
33.2464203916
33.1417974122
32.9957391042
32.7997845742
32.5448596245
32.21997349
31.814428192
31.317500712
30.7208405589
30.0172388706
29.2015653614
28.2655668891
27.204646738
26.0240013747
24.7247568495
23.3278197363
33.2640814055
32.5403199529
32.6090119874
32.7819377476
32.8483755136
32.8865687996
32.9264805769
32.9604788958
32.9816259414
32.9908247095
32.991857116
32.9880818566
32.9817738679
32.9742723191
32.9663957649
32.9586825613
32.9514476584
32.9450008633
32.9394891364
32.9351344561
32.931933985
32.9300876716
32.9294987154
32.9302408033
32.9321279318
32.9351966526
32.9390748122
32.9437532529
32.9487460013
32.9540343189
32.959040325
32.9638010487
32.9677969541
32.97110175
32.9732853187
32.9745669376
32.974617562
32.9736589222
32.9715414094
32.9684813138
32.9644107687
32.9595472577
32.9538968655
32.9476716209
32.9409277817
32.9338533885
32.9265283482
32.9190694597
32.9114833215
32.9038200449
32.8960051861
32.8879155564
32.8794127092
32.8703450684
32.8604769875
32.8496705206
32.8377067789
32.8244167424
32.8094529068
32.7924688196
32.7728860945
32.7498838102
32.7233632415
32.6961726596
32.6697872799
32.6445593847
32.6205938059
32.5976466596
32.575360507
32.5531501259
32.5305318872
32.5070423683
32.482498384
32.4568208147
32.430234055
32.4029965666
32.375456644
32.3478891114
32.3205086205
32.2933710223
32.2664134507
32.2394283843
32.2120618021
32.1837617698
32.1536911188
32.1205684175
32.0824607127
32.0369796857
31.9818021703
31.913084775
31.8317376009
31.7419013338
31.6491948077
31.5590232924
31.4763430869
31.4048086925
31.3448162489
31.294196831
31.2499327935
31.2084465998
31.1728958439
31.1535077556
31.1401975644
31.0952160252
30.9923703575
30.8481905277
30.7407733703
30.7446849718
30.8633648169
31.0330719214
31.1923976242
31.317567169
31.4094559835
31.4755390807
31.5242785908
31.5620766546
31.5934159424
31.6212911352
31.6475362045
31.6730706378
31.6980076716
31.7220032884
31.7445682635
31.765377348
31.7843034648
31.8014730347
31.8171381095
31.8317180547
31.8456357555
31.8593819185
31.873511946
31.8887667359
31.9055076159
31.9240327204
31.9442948175
31.9666222194
31.9915423603
32.0196460465
32.0515415048
32.0878023544
32.1287128211
32.1742774261
32.2243107702
32.2785444742
32.3366836196
32.3983761665
32.4632505885
32.5308774851
32.6008137835
32.6725307137
32.7454535169
32.8188847937
32.892069908
32.9641326833
33.0340914566
33.100719224
33.1625809419
33.2179869101
33.2649445487
33.3010468479
33.3235175677
33.329169407
33.314418581
33.275215331
33.2069615077
33.1041881898
32.9604867971
32.7680546328
32.5179877107
32.200156016
31.8040695451
31.3195075983
30.7373818963
30.05009408
29.2505875071
28.3292184299
27.2800055193
26.1089629369
24.8204336097
23.4329521891
33.1792500132
32.0050159243
32.2942603139
32.5895447416
32.6615370555
32.6940326935
32.7285308901
32.7599402286
32.7828426451
32.7978324631
32.8070975526
32.8124646506
32.8151621057
32.8159945722
32.8155800154
32.8143693646
32.8127154231
32.8109087185
32.809118375
32.8075330993
32.8062416828
32.8053178796
32.8047477767
32.804617872
32.8047985248
32.8053315865
32.8060218484
32.8069068406
32.8076703053
32.8083855785
32.8086832645
32.8087026935
32.8080385988
32.8069635361
32.8051497103
32.8028866157
32.7999783113
32.7967649628
32.7931073106
32.7893291441
32.7853832407
32.7815430508
32.7778214391
32.7744418897
32.7714611585
32.7690442024
32.7672536971
32.7661721141
32.7658484654
32.7662374355
32.7672999745
32.7689465431
32.7710188972
32.7733466669
32.7757468449
32.7780825207
32.7802313617
32.7821165332
32.7834871485
32.7840790856
32.7835282189
32.7817496157
32.7772300044
32.7687042495
32.7563551531
32.7407483559
32.7225384119
32.702269784
32.6803733914
32.6570172311
32.6322845556
32.6060873824
32.5783824789
32.5490962398
32.5182410119
32.485824722
32.4519449106
32.4166422094
32.3800073843
32.3421160233
32.3031249204
32.2633035296
32.2231063319
32.1831629226
32.144200306
32.1066769147
32.0702724729
32.033256627
31.9915707645
31.9405377393
31.8760788455
31.7983405119
31.7075132429
31.6068526272
31.5023877544
31.3997448981
31.303666067
31.2213862826
31.1626880673
31.1332385136
31.1434086294
31.185728502
31.2148821655
31.1874286304
31.1013722917
30.9914415509
30.9176263277
30.9184099886
30.9881344142
31.0912368057
31.1959111221
31.2861840225
31.3580965004
31.4128556006
31.4542019538
31.4856492297
31.5103694041
31.5306280188
31.5483149945
31.5644753937
31.579866003
31.5946901218
31.6092973987
31.6238398818
31.6387445155
31.6542358787
31.6707563009
31.6885040236
31.7078408298
31.7288655698
31.7517749675
31.7762339898
31.8020191881
31.8287315168
31.8566647045
31.8862133359
31.9179385056
31.9524260857
31.9903662746
32.0322930713
32.0784428105
32.1288121884
32.1831777241
32.2413113037
32.3028900059
32.3676350169
32.4351585127
32.505110218
32.577018026
32.6504244628
32.7247206185
32.7992815513
32.8732930399
32.9458938867
33.0160659062
33.0826466947
33.1441814943
33.1989467918
33.2448857238
33.2795934274
33.3002955825
33.3037846699
33.2864842399
33.2442672137
33.1724751682
33.06553562
32.9170503221
32.7193054782
32.4637533897
32.1408384031
31.740994554
31.2548281016
30.6740550849
29.9915029983
29.2004495537
28.2909561082
27.2549577985
26.0911168665
24.8013552639
23.396407368
32.9220996972
31.3729296835
32.0075416806
32.3944329274
32.4466629175
32.4750385441
32.5072502098
32.5410821458
32.5691373961
32.5911800564
32.6084467168
32.6220267784
32.6327463212
32.6412490767
32.6480536308
32.6535706701
32.6581064556
32.6619000601
32.6651163935
32.6678706382
32.6701782395
32.6721206858
32.6736641862
32.6748367688
32.6755873222
32.6759873244
32.6758954532
32.6754211917
32.6743743617
32.6729143721
32.6707892976
32.6682329527
32.665009771
32.6613950381
32.6571751161
32.6527161104
32.6478335837
32.6428761773
32.6377435915
32.6327392251
32.6277952554
32.6231528891
32.6187797642
32.6148437149
32.6113412484
32.6083635059
32.6059246558
32.6040352209
32.6026901525
32.6018670919
32.6015494793
32.6016503621
32.602119267
32.6028383847
32.603625293
32.6043564814
32.6050048686
32.6056749098
32.6062797299
32.6064245388
32.6053097722
32.6023495767
32.5973690522
32.590069529
32.5807419039
32.5700581115
32.5586514166
32.5468187724
32.5345896361
32.5217535506
32.5080769162
32.4933474148
32.4774592683
32.460352407
32.44204997
32.422552428
32.4018377031
32.3797524579
32.3560374276
32.330278345
32.3020787215
32.2710384317
32.2370973749
32.2004102689
32.1617652147
32.1221281625
32.0827893806
32.0435340238
32.0028064015
31.9569553431
31.9035645542
31.8414456911
31.7673584421
31.6819568788
31.5885191907
31.4947481404
31.408222896
31.3378362546
31.2953753969
31.2861625774
31.30513942
31.3288356854
31.3227603394
31.2718967906
31.1903115054
31.1049223617
31.0492827076
31.0415122687
31.078022226
31.141658313
31.2154183579
31.2878264008
31.3529999865
31.4090169763
31.4564086451
31.4967432094
31.5318768352
31.5635544334
31.5931833599
31.6216354746
31.6492834473
31.6761385797
31.7020936255
31.7269816621
31.7507072438
31.773192727
31.7944855654
31.8146634104
31.833960555
31.85262742
31.8709863623
31.889237107
31.9077591559
31.9270175215
31.9477488713
31.970557015
31.9960745992
32.0249044266
32.057690586
32.0948774701
32.1366729016
32.1830274789
32.2337324342
32.2885017861
32.3470049281
32.4089012076
32.4738091745
32.5413365684
32.6110331442
32.682416274
32.7549176617
32.8279162397
32.9006691411
32.9723223514
33.0418809997
33.1081580515
33.1697441833
33.2248909236
33.2715456675
33.3072179793
33.3291121215
33.3338906238
33.317915573
33.2768292853
33.2058336031
33.0990857083
32.9500471152
32.7507670238
32.4927653147
32.1666712418
31.7634925067
31.2743113416
30.691336169
30.0077621759
29.2174659439
28.3105684652
27.2766423926
26.1057768163
24.7945245137
23.3454982496
32.5196228859
30.7532050384
31.7578694261
32.1667848058
32.1955925758
32.2372932108
32.2772329065
32.3221544349
32.3591543524
32.3896920274
32.4149463181
32.436049231
32.453896239
32.4692175225
32.482519254
32.494237063
32.5046143116
32.5138935696
32.5221358416
32.5294617097
32.5358696213
32.5414113772
32.5460484648
32.5498894462
32.5528668921
32.5551142302
32.5565787087
32.5574420376
32.5576074372
32.5573094225
32.5564240146
32.5552303013
32.5535610578
32.5517521301
32.5496384936
32.5475352736
32.5453080122
32.5432648036
32.5412643614
32.5395605988
32.5380305205
32.5368454155
32.5358913039
32.5352549794
32.5348313628
32.534629106
32.5345492102
32.5345471899
32.5345690641
32.5345804923
32.534605549
32.5346993668
32.5349357415
32.5353817385
32.5360307796
32.5369303365
32.5382115271
32.5403472283
32.5438869771
32.5486254362
32.5528744686
32.554329008
32.5511322344
32.5429395366
32.530897632
32.5168304062
32.5023689725
32.488397262
32.4751014462
32.4621702852
32.4491760844
32.435733914
32.4216703993
32.406939689
32.3916105472
32.3757493183
32.3594601217
32.3426148438
32.325023561
32.3061314641
32.2853879114
32.2621681869
32.2359479911
32.2063862142
32.1734648814
32.1374643865
32.0995193909
32.0605458349
32.0212718663
31.9828722656
31.9457245145
31.9093678083
31.8696438758
31.8248824627
31.7756289313
31.7247357636
31.6731849459
31.6210233603
31.5705100906
31.5277166706
31.4944814303
31.458779976
31.4087105684
31.3438805056
31.2727254214
31.2069809707
31.163154483
31.1508968443
31.1697446444
31.2113819877
31.2656259931
31.3236047639
31.3792157698
31.4292002492
31.4723365532
31.5089954232
31.540078584
31.5670206819
31.5909008244