/*--------------------------------*- C++ -*----------------------------------*\
| =========                 |                                                 |
| \\      /  F ield         | OpenFOAM: The Open Source CFD Toolbox           |
|  \\    /   O peration     | Version:  v1806                                 |
|   \\  /    A nd           | Web:      www.OpenFOAM.com                      |
|    \\/     M anipulation  |                                                 |
\*---------------------------------------------------------------------------*/
FoamFile
{
    version     2.0;
    format      ascii;
    class       volVectorField;
    location    "16";
    object      U;
}
// * * * * * * * * * * * * * * * * * * * * * * * * * * * * * * * * * * * * * //

dimensions      [0 1 -1 0 0 0 0];


internalField   nonuniform List<vector> 
12225
(
(9.73891425701 0.0399213865985 0)
(9.50296071694 0.0407458919744 0)
(9.2473434639 0.0400908401927 0)
(8.9966557022 0.0403818990219 0)
(8.75910967241 0.0403505806061 0)
(8.53346270524 0.0399286663859 0)
(8.31793614124 0.0393541155299 0)
(8.11179902393 0.0387603393251 0)
(7.914625272 0.038191732512 0)
(7.72581592354 0.0376686965266 0)
(7.544575635 0.0372161946213 0)
(7.37001052548 0.0368680534528 0)
(7.20116451849 0.0366677673101 0)
(7.03697653441 0.0366749339343 0)
(6.87614954222 0.0369875143588 0)
(6.7168118749 0.0378175841039 0)
(6.55618112951 0.0398622819968 0)
(6.37847711216 0.0394698941282 0)
(10.0165392618 0.0712914799284 0)
(10.0366188897 0.0696758040707 0)
(10.0241055469 0.0668534843737 0)
(9.99629045097 0.0676112766187 0)
(9.96250503507 0.068406055949 0)
(9.92382645256 0.0687253083625 0)
(9.88028531945 0.0689556213091 0)
(9.83253554823 0.0692978379203 0)
(9.78133747677 0.0697769280426 0)
(9.72717827261 0.0703928872506 0)
(9.67026098298 0.071180787537 0)
(9.61059202828 0.0722144768282 0)
(9.54801601805 0.0736041118252 0)
(9.48217750549 0.075512518042 0)
(9.41240995891 0.0782131270462 0)
(9.33748397405 0.0822534176322 0)
(9.2562132982 0.089039055243 0)
(9.15785544198 0.103393416737 0)
(10.0212382259 0.0580488264687 0)
(10.0534028303 0.0579973489556 0)
(10.0674990952 0.0561963107295 0)
(10.071746753 0.0588073149618 0)
(10.0733752145 0.0616158150342 0)
(10.0729558849 0.0637750335994 0)
(10.0698325305 0.0657528080937 0)
(10.0639658076 0.0678249836538 0)
(10.0555753146 0.0700311604868 0)
(10.0447613533 0.0723815793264 0)
(10.0314577293 0.0749446088003 0)
(10.0154981107 0.0778513423108 0)
(9.99664920366 0.0812912339191 0)
(9.97458988443 0.0855367093791 0)
(9.94886397102 0.09102379959 0)
(9.91882966801 0.0985338441308 0)
(9.88438571401 0.109605604369 0)
(9.84117380484 0.125533310817 0)
(10.0159887028 0.0475957565942 0)
(10.0432584987 0.0550059183297 0)
(10.0592006448 0.0565625329735 0)
(10.0666395957 0.0604871985349 0)
(10.0718592928 0.0641552772632 0)
(10.0759853042 0.0669078069905 0)
(10.0784957756 0.0693219645928 0)
(10.0792448474 0.0717853427402 0)
(10.0783563169 0.0744034623488 0)
(10.0758836581 0.0772265220029 0)
(10.0717398742 0.0803595708035 0)
(10.0657552906 0.0839742346502 0)
(10.0577231602 0.0883061404971 0)
(10.0474075095 0.0936806809142 0)
(10.0345487031 0.100586624665 0)
(10.0189128757 0.109801122485 0)
(10.0008242768 0.122567600599 0)
(9.97879644085 0.139597130024 0)
(10.0116470497 0.0395064539696 0)
(10.0337443103 0.0509298090485 0)
(10.0489249203 0.0537704457855 0)
(10.0566938661 0.0574121840568 0)
(10.0620433544 0.0610222536189 0)
(10.066417947 0.063977729848 0)
(10.0694647378 0.0666911074931 0)
(10.0709945978 0.0695231733358 0)
(10.0710951885 0.07259749051 0)
(10.0698359546 0.0759793780836 0)
(10.0671705554 0.0797854608847 0)
(10.0629781562 0.0842011744548 0)
(10.057114797 0.08947957063 0)
(10.0494407266 0.095962281486 0)
(10.0398522998 0.104133004796 0)
(10.028357768 0.114685678126 0)
(10.0154118131 0.12857002421 0)
(10.0006908743 0.1463669746 0)
(10.0084732066 0.0330511799607 0)
(10.0261907954 0.046598844946 0)
(10.0401481814 0.0511135934211 0)
(10.048005036 0.0553259481635 0)
(10.0533203629 0.0595876234665 0)
(10.0576070183 0.0632992432393 0)
(10.0606811089 0.0666947830038 0)
(10.062341816 0.0701263495812 0)
(10.0626434915 0.0737777273638 0)
(10.0616639398 0.0777627887573 0)
(10.0593910306 0.0822258145544 0)
(10.0557473785 0.0873693779733 0)
(10.05064327 0.0934584598565 0)
(10.0440160175 0.100835654278 0)
(10.0358726274 0.109953079339 0)
(10.0263624692 0.121397876115 0)
(10.015985472 0.13587229688 0)
(10.0048918785 0.153831444456 0)
(10.0061475216 0.0279180199552 0)
(10.0202633342 0.0423691606487 0)
(10.0327843855 0.0483946374899 0)
(10.0405370698 0.053147122917 0)
(10.0457823062 0.0577619892749 0)
(10.0499369148 0.0618618223327 0)
(10.0529776938 0.0656160994178 0)
(10.054722025 0.0693877562352 0)
(10.055192475 0.0734171646868 0)
(10.0544630104 0.0778565614358 0)
(10.0525456688 0.0828628589322 0)
(10.0494005972 0.0886384952121 0)
(10.0449860778 0.0954415566251 0)
(10.0393029583 0.103594390468 0)
(10.0324384501 0.113495853504 0)
(10.0246240338 0.125617660722 0)
(10.0163609247 0.140456165404 0)
(10.0079360081 0.158301938409 0)
(10.0044670789 0.0238311175375 0)
(10.0156708164 0.0383769347671 0)
(10.026686025 0.0456008063718 0)
(10.0341709829 0.0509218265924 0)
(10.0393402411 0.0559014546105 0)
(10.0433980414 0.0604449848656 0)
(10.0464382031 0.0646906432375 0)
(10.0483098412 0.0689704454702 0)
(10.0490078899 0.0735390629932 0)
(10.0485962981 0.0785649101648 0)
(10.0471065955 0.0842078007706 0)
(10.0445350728 0.0906640066883 0)
(10.0408853264 0.0981777469523 0)
(10.036211653 0.107042017209 0)
(10.030658148 0.11759486774 0)
(10.0244994109 0.130198727294 0)
(10.0182114792 0.14518596485 0)
(10.0121336562 0.162701664807 0)
(10.0032569325 0.020561858096 0)
(10.0121424037 0.0347054969123 0)
(10.021691948 0.0427855155767 0)
(10.0287807849 0.0486612772973 0)
(10.0338538449 0.053996131526 0)
(10.0378411478 0.0589406066635 0)
(10.0409005731 0.0636292467236 0)
(10.0429205938 0.0683547412246 0)
(10.0438802139 0.0733750302726 0)
(10.043834436 0.0788763165715 0)
(10.0428318721 0.0850275631057 0)
(10.0409022843 0.0920214421052 0)
(10.0380892774 0.100085107629 0)
(10.034488402 0.109475497919 0)
(10.0302788137 0.12046650127 0)
(10.0257482521 0.1333215145 0)
(10.0213253105 0.148244980073 0)
(10.0173478542 0.165272092622 0)
(10.0023885913 0.0179259639407 0)
(10.0094547065 0.0313849415745 0)
(10.0176523344 0.039991524606 0)
(10.0242608434 0.046355306103 0)
(10.0292121049 0.0520256680382 0)
(10.0331541008 0.0573324636811 0)
(10.0362613932 0.0624339761246 0)
(10.0384615774 0.0675912839054 0)
(10.039728699 0.0730572371292 0)
(10.040110332 0.0790282355395 0)
(10.0396673488 0.0856761036087 0)
(10.0384563426 0.0931818537388 0)
(10.0365519634 0.101745522649 0)
(10.0340775398 0.111579576941 0)
(10.0312283911 0.122892325793 0)
(10.0282846514 0.135860974517 0)
(10.025618495 0.150593496868 0)
(10.0235732344 0.167052781065 0)
(10.0017650559 0.0157807031474 0)
(10.0074216152 0.0284236473175 0)
(10.0144248068 0.0372746851577 0)
(10.020517002 0.044020566473 0)
(10.0253265065 0.0499874579362 0)
(10.0292481014 0.0556097815445 0)
(10.0324366512 0.0610782870154 0)
(10.0348512505 0.0666283962081 0)
(10.0364684292 0.0724980785233 0)
(10.0373301215 0.0788828198511 0)
(10.0375047252 0.0859498445597 0)
(10.0370682445 0.0938632626496 0)
(10.0361173276 0.102792593031 0)
(10.0347911719 0.112905855787 0)
(10.033286873 0.124353215663 0)
(10.0318635532 0.137243480352 0)
(10.0308321926 0.151617509097 0)
(10.0305351252 0.167397285826 0)
(10.0013519388 0.0141210740405 0)
(10.0060207616 0.0259684884206 0)
(10.0120871894 0.0348527939575 0)
(10.0177096871 0.0418508282731 0)
(10.0223812582 0.0480489520005 0)
(10.0263081059 0.0539194607853 0)
(10.0296057729 0.0596801438638 0)
(10.0322519386 0.065548098581 0)
(10.0342289098 0.0717434124848 0)
(10.0355751877 0.0784537108781 0)
(10.03636216 0.0858376375327 0)
(10.0366766441 0.0940414666248 0)
(10.036626746 0.103206178692 0)
(10.0363563695 0.113461045848 0)
(10.0360541065 0.124909437068 0)
(10.0359529473 0.137610332724 0)
(10.0363116958 0.151560497822 0)
(10.0374812574 0.166659966558 0)
(10.0010457793 0.012735794235 0)
(10.0049441264 0.023777739926 0)
(10.0102199558 0.032523961166 0)
(10.0154023236 0.0396565266393 0)
(10.0199361779 0.0460276589397 0)
(10.0238836576 0.0520957997245 0)
(10.0273140287 0.0580941472192 0)
(10.0302149031 0.0642259681996 0)
(10.0325754491 0.0706912944931 0)
(10.0344322971 0.0776642029019 0)
(10.0358574403 0.0852901015991 0)
(10.0369432098 0.0936959444348 0)
(10.0378029804 0.10299469559 0)
(10.038578874 0.113280669878 0)
(10.0394457269 0.124617769774 0)
(10.0406076248 0.137026461973 0)
(10.0422722082 0.150472339701 0)
(10.0448020857 0.164840896979 0)
(10.0007943552 0.0113717861686 0)
(10.0040393309 0.0215123039363 0)
(10.008601542 0.0299614285104 0)
(10.0133565692 0.0371195642982 0)
(10.0177617761 0.0436086840994 0)
(10.0217692879 0.0498362643445 0)
(10.0253969979 0.0560363486539 0)
(10.0286336882 0.0623967305112 0)
(10.0314740995 0.0690935265868 0)
(10.0339526413 0.076280264469 0)
(10.0361383509 0.084083231348 0)
(10.0381228333 0.0926056398642 0)
(10.0400169617 0.101930661111 0)
(10.0419529343 0.112117444121 0)
(10.0440837712 0.123194175325 0)
(10.0465788841 0.135149069587 0)
(10.0495933134 0.147926300789 0)
(10.053507464 0.1614088781 0)
(10.0006009182 0.0100262324218 0)
(10.0033336329 0.0191802284096 0)
(10.0073057837 0.027155716733 0)
(10.011690811 0.034177643803 0)
(10.0160026872 0.04067164692 0)
(10.0201252231 0.0469697971773 0)
(10.0240287158 0.0532876093303 0)
(10.0276952514 0.059791877931 0)
(10.0311215665 0.0666306340096 0)
(10.0343383244 0.0739305849416 0)
(10.0374074227 0.0817927708051 0)
(10.0404126622 0.0902934542208 0)
(10.0434539578 0.099485219862 0)
(10.0466453766 0.109395326684 0)
(10.0501117307 0.12002153292 0)
(10.0539842962 0.131328926074 0)
(10.0583666747 0.143248618647 0)
(10.0636617789 0.155668301496 0)
(10.0004672293 0.0086679757008 0)
(10.0028444229 0.0167364609534 0)
(10.0063962826 0.0240437071256 0)
(10.0105277786 0.0307238452096 0)
(10.0148285228 0.0370526104128 0)
(10.0191516661 0.0432765065047 0)
(10.0234310336 0.0495735781647 0)
(10.0276367321 0.0560811249685 0)
(10.0317624278 0.0629145189261 0)
(10.0358316642 0.070168692514 0)
(10.0398945058 0.0779149023369 0)
(10.0440196807 0.0862006853791 0)
(10.0482883191 0.0950498742787 0)
(10.0527894209 0.104462816632 0)
(10.0576155388 0.11441489891 0)
(10.0628592201 0.124856738585 0)
(10.0685763924 0.135715528478 0)
(10.0751966915 0.146888836322 0)
(10.000393315 0.0072263077603 0)
(10.0025819197 0.0140632451022 0)
(10.0059238425 0.0204725484539 0)
(10.009980212 0.0265522227126 0)
(10.0144087614 0.0324727407006 0)
(10.0190570569 0.0383974078595 0)
(10.0238359248 0.0444540946777 0)
(10.0287020814 0.050741858038 0)
(10.033640704 0.0573397761219 0)
(10.038663728 0.0643079794902 0)
(10.0438044572 0.0716867162479 0)
(10.0491107982 0.0794954731314 0)
(10.0546390217 0.0877340028351 0)
(10.0604490708 0.0963824137231 0)
(10.0665998972 0.105402781227 0)
(10.0731479868 0.114739778285 0)
(10.0801075225 0.124324468981 0)
(10.0879368761 0.13406884396 0)
(10.0003783726 0.005573877101 0)
(10.0025549833 0.0109384211698 0)
(10.00593341 0.0161571471047 0)
(10.0101515933 0.0213181819454 0)
(10.0149050105 0.0265170456797 0)
(10.0200434756 0.0318413443678 0)
(10.0254655762 0.0373624047437 0)
(10.0311157737 0.0431352110768 0)
(10.0369669298 0.0491995810918 0)
(10.0430154483 0.0555805864761 0)
(10.0492746878 0.0622882435789 0)
(10.0557688051 0.0693176717207 0)
(10.0625272369 0.076649665856 0)
(10.0695806877 0.084251769663 0)
(10.0769572863 0.092079770535 0)
(10.0846828758 0.100079587927 0)
(10.0927387242 0.108189964966 0)
(10.1016117224 0.116339269536 0)
(10.0004379867 0.00346624244349 0)
(10.0028194354 0.0069169076609 0)
(10.0065469203 0.0105133659997 0)
(10.011241045 0.0143341497588 0)
(10.0165861579 0.0184011176143 0)
(10.0224289121 0.0227241315389 0)
(10.0286630976 0.0273149697975 0)
(10.0352237181 0.0321821909179 0)
(10.0420698894 0.0373266613813 0)
(10.0491810428 0.042740299766 0)
(10.0565506821 0.0484071427313 0)
(10.0641804539 0.0543031685188 0)
(10.0720751632 0.0603969370464 0)
(10.0802397554 0.0666497905852 0)
(10.0886765397 0.0730174559804 0)
(10.0973869291 0.0794512791756 0)
(10.1063267618 0.0859004770714 0)
(10.1160072247 0.0923097384869 0)
(10.0005835799 0.0011800216042 0)
(10.0033916302 0.00256514791788 0)
(10.0077671565 0.00442814098891 0)
(10.0131860899 0.00681679686697 0)
(10.0192669638 0.00965477760744 0)
(10.0258567104 0.0128693557723 0)
(10.0328615636 0.0164194153615 0)
(10.0402168008 0.020275937636 0)
(10.0478732391 0.0244086906357 0)
(10.0558003393 0.0287856721187 0)
(10.0639810696 0.0333742812916 0)
(10.0724049136 0.0381409999665 0)
(10.0810627365 0.0430499992055 0)
(10.0899448497 0.0480629417017 0)
(10.0990396553 0.0531394357205 0)
(10.1083363927 0.0582386318824 0)
(10.1177797105 0.0633202554254 0)
(10.127887262 0.0683437841487 0)
(10.0007731546 -0.00104376013035 0)
(10.0041389988 -0.0015850304909 0)
(10.0093062455 -0.00121858224733 0)
(10.0155112588 1.95306795453e-06 0)
(10.0222910338 0.00184734473601 0)
(10.0295222601 0.00416003769451 0)
(10.0371465232 0.00686036415451 0)
(10.0451074777 0.00989183351728 0)
(10.0533537513 0.0131993008405 0)
(10.0618536583 0.0167329161542 0)
(10.0705894548 0.0204498075211 0)
(10.0795473671 0.024312126287 0)
(10.0887121822 0.0282826773311 0)
(10.0980670039 0.032324584794 0)
(10.1075938441 0.0364005021288 0)
(10.1172771624 0.040474470297 0)
(10.127058362 0.0445116815439 0)
(10.1374717277 0.048478043456 0)
(10.0010640137 -0.003470150291 0)
(10.0052460476 -0.00594823028245 0)
(10.0114515368 -0.00688621238165 0)
(10.0185463127 -0.00660513148817 0)
(10.0260160151 -0.00557182635905 0)
(10.0338339195 -0.00401717174145 0)
(10.0419973953 -0.00203244829137 0)
(10.0504557648 0.000307769326922 0)
(10.0591561419 0.00292916888254 0)
(10.0680721118 0.00577093757051 0)
(10.077193053 0.00878515555596 0)
(10.0865061026 0.0119329307179 0)
(10.0959931841 0.0151769669714 0)
(10.1056331575 0.0184800134424 0)
(10.1154038938 0.0218060166016 0)
(10.1252860427 0.0251209541203 0)
(10.1352166225 0.0283943311291 0)
(10.1457249602 0.0315979836664 0)
(10.0015242034 -0.0062483887941 0)
(10.0068941303 -0.0106544244334 0)
(10.0144155699 -0.0126074433325 0)
(10.0224495441 -0.0129991968269 0)
(10.0305500322 -0.0126027049689 0)
(10.0388865107 -0.0116712820809 0)
(10.0475245694 -0.0102917902832 0)
(10.0564110931 -0.00856421770882 0)
(10.0654957639 -0.00658482283918 0)
(10.0747653888 -0.00441844157796 0)
(10.0842153529 -0.00210291598565 0)
(10.0938330091 0.00033043900202 0)
(10.1035960338 0.00285082439608 0)
(10.1134793633 0.00542613847067 0)
(10.1234599755 0.00802314265713 0)
(10.133519771 0.0106103407979 0)
(10.1435996099 0.0131581548087 0)
(10.154250693 0.0156374908112 0)
(10.0022570186 -0.0095770189765 0)
(10.0093491664 -0.0157820685486 0)
(10.0184699965 -0.0183060315796 0)
(10.0274060843 -0.0190779396317 0)
(10.0360278288 -0.0191386630482 0)
(10.0447949493 -0.0186457629228 0)
(10.0538107138 -0.0176553576289 0)
(10.0630012933 -0.0162998967873 0)
(10.0723300609 -0.014700943534 0)
(10.0818109795 -0.012930439496 0)
(10.0914563956 -0.0110290868472 0)
(10.1012561217 -0.00902781128009 0)
(10.1111845216 -0.00695627546367 0)
(10.1212120033 -0.00484336360918 0)
(10.1313087711 -0.00271552448003 0)
(10.1414500159 -0.000600008543866 0)
(10.1515684293 0.00147417835378 0)
(10.1621931823 0.00347694046844 0)
(10.0034709605 -0.0137393200109 0)
(10.0130136906 -0.02135555879 0)
(10.0239460001 -0.0238759327058 0)
(10.0336401965 -0.0248260497158 0)
(10.0426832282 -0.0253264230831 0)
(10.0518703101 -0.0253315632686 0)
(10.061271093 -0.024867025991 0)
(10.0707682379 -0.0240776214073 0)
(10.080342423 -0.0230704460781 0)
(10.09003483 -0.0218952818239 0)
(10.0998699682 -0.0205808395754 0)
(10.1098393298 -0.0191555623946 0)
(10.1199167237 -0.0176488909314 0)
(10.1300725758 -0.0160874742722 0)
(10.1402774554 -0.0144945795178 0)
(10.1505046429 -0.0128936655781 0)
(10.1606851466 -0.0113152488789 0)
(10.1713737623 -0.00980438346356 0)
(10.005362594 -0.0191006406019 0)
(10.018278509 -0.02725670275 0)
(10.0310488689 -0.0290813569727 0)
(10.0411806744 -0.0298418315037 0)
(10.0504321138 -0.0302808857898 0)
(10.0598827684 -0.0301753848407 0)
(10.0695115136 -0.0296542857098 0)
(10.0791773399 -0.0289219118563 0)
(10.088894894 -0.0280672285748 0)
(10.0987263644 -0.027105908169 0)
(10.1086958059 -0.0260456057082 0)
(10.1187886506 -0.0249057328376 0)
(10.1289763671 -0.0237101293631 0)
(10.1392300345 -0.0224781780032 0)
(10.1495192465 -0.0212225844328 0)
(10.1598077352 -0.019954304708 0)
(10.170001358 -0.018696246307 0)
(10.1805839275 -0.0175053952191 0)
(10.0084970728 -0.0261442545 0)
(10.0258951393 -0.0333151065536 0)
(10.0403590757 -0.0345405478195 0)
(10.0507734359 -0.0360451098039 0)
(10.0603045608 -0.0372792653948 0)
(10.0700561689 -0.0377413513411 0)
(10.0798591417 -0.0376947660005 0)
(10.0895999767 -0.0374168882365 0)
(10.0993586273 -0.0369982238174 0)
(10.109222426 -0.0364443474501 0)
(10.1192121113 -0.0357615489574 0)
(10.1293066072 -0.0349734519785 0)
(10.1394774305 -0.0341086885897 0)
(10.149701011 -0.0331881585635 0)
(10.159952653 -0.0322198178911 0)
(10.1701947299 -0.0312007847443 0)
(10.1803134662 -0.0301337069161 0)
(10.1907447686 -0.0290755889546 0)
(10.0128316822 -0.0353647027622 0)
(10.0354593462 -0.0376029860241 0)
(10.0503570918 -0.0357606515186 0)
(10.0601182094 -0.0363120084452 0)
(10.0693035313 -0.0371680965399 0)
(10.0786553997 -0.0375039156359 0)
(10.0877871353 -0.0375435102021 0)
(10.0966323795 -0.0375037170175 0)
(10.1053469285 -0.0374171526073 0)
(10.1140492285 -0.0372519392011 0)
(10.1227668676 -0.0369906322 0)
(10.1314851719 -0.0366399897651 0)
(10.1401896403 -0.0362160811282 0)
(10.1488774047 -0.0357294637048 0)
(10.1575480079 -0.0351754605111 0)
(10.1661839407 -0.034523797251 0)
(10.1746619233 -0.0337102448118 0)
(10.1831591079 -0.032630336503 0)
(10.0162870861 -0.0493331624673 0)
(10.0398098045 -0.0508920646428 0)
(10.0459461997 -0.0486691694794 0)
(10.0442713942 -0.0486734441093 0)
(10.0410542921 -0.0488181456219 0)
(10.0369147229 -0.048531771698 0)
(10.0315619297 -0.0480514800161 0)
(10.0252077106 -0.0475548600988 0)
(10.0182596876 -0.047068267661 0)
(10.0110192926 -0.0465685690528 0)
(10.003651362 -0.0460406930644 0)
(9.9962547944 -0.0454853736656 0)
(9.98891432682 -0.0449092801463 0)
(9.98171684225 -0.0443149594567 0)
(9.97475001025 -0.0436920690806 0)
(9.96810089197 -0.0429981980092 0)
(9.96181181741 -0.0421180917252 0)
(9.95582267824 -0.0403682418238 0)
(9.85275201754 -0.0291965464137 0)
(9.72363604411 -0.0315677306859 0)
(9.57940607612 -0.0315989844379 0)
(9.43643908722 -0.0321575204671 0)
(9.30132897646 -0.0324745362764 0)
(9.1736664037 -0.0324268913831 0)
(9.05238159872 -0.0321770303508 0)
(8.93713977864 -0.0318379227417 0)
(8.82787771943 -0.0314494448544 0)
(8.72444449906 -0.0310229677634 0)
(8.62657115621 -0.0305664258182 0)
(8.5339530635 -0.030089550703 0)
(8.44630853728 -0.0296015512122 0)
(8.3633939735 -0.0291082066764 0)
(8.28500105928 -0.0286087531626 0)
(8.21095840186 -0.0280851107048 0)
(8.14136640575 -0.0274705193951 0)
(8.07455526946 -0.0261155194949 0)
(0.0294519274846 -0.112816297067 1.99781239808e-19)
(0.0628894552104 -0.11226211907 0)
(0.0927477569153 -0.113227196431 0)
(0.0859476937221 -0.0766110459061 0)
(0.0497757111526 0.0159893373678 0)
(-0.0781245136571 0.128310771873 -1.41363006887e-19)
(-0.190659405706 0.145162144662 0)
(-0.313213664253 0.152009199745 0)
(-0.443434961813 0.157696518552 4.70414023088e-20)
(-0.580318193193 0.162399197175 0)
(-0.722998494538 0.166131195129 -3.28558961709e-20)
(-0.870693412972 0.168988399625 0)
(-1.02269941735 0.171082014475 -2.60799921409e-20)
(-1.17839033359 0.172517532216 -2.40156024714e-20)
(-1.3372114157 0.173388851703 0)
(-1.49867376237 0.17377869028 2.13731067133e-20)
(-1.66234834933 0.17375892998 2.05515499928e-20)
(-1.8278601338 0.173392394584 1.9960613428e-20)
(-1.99488302159 0.172733265062 0)
(-2.16313414256 0.17182863196 0)
(-2.33236900436 0.1707185353 0)
(-2.50237615982 0.169437201337 0)
(-2.67297259957 0.168012935245 0)
(-2.84399883753 0.166469209833 0)
(-3.01531442418 0.164824387136 -1.92934606215e-20)
(-3.18679355436 0.163092739221 -1.94673419042e-20)
(-3.35832051689 0.161284148927 0)
(-3.52978575907 0.159404962328 1.99184453071e-20)
(-3.70108165663 0.157457681875 2.01850657314e-20)
(-3.87209892736 0.155441730197 2.04733895e-20)
(-4.0427224122 0.1533531944 0)
(-4.21282772969 0.151185499889 0)
(-4.38227734648 0.148929232679 -2.14361924832e-20)
(-4.55091753749 0.146572807609 0)
(-4.71857473636 0.144102463493 0)
(-4.88505293153 0.141503002698 -2.24920982809e-20)
(-5.05013081481 0.138758009341 0)
(-5.21356028791 0.135850721592 0)
(-5.37506494569 0.132764496091 0)
(-5.53434016002 0.129483747127 0)
(-5.6910532836 0.125994619506 0)
(-5.84484587826 0.122285992577 4.93269359465e-20)
(-5.99533644712 0.118350371915 0)
(-6.14212594823 0.114184689733 0)
(-6.28480355668 0.109790977259 5.13557418484e-20)
(-6.42295471551 0.105176390868 5.19858928085e-20)
(-6.55616793455 0.10035367263 0)
(-6.68404301309 0.0953405744575 0)
(-6.80619764109 0.0901600893766 5.36868402396e-20)
(-6.92227494675 0.0848389844423 0)
(-7.03194884309 0.0794077046989 -5.46284616813e-20)
(-7.13493012979 0.0738977829296 0)
(-7.23097091024 0.0683413801317 5.53870264878e-20)
(-7.31986806845 0.0627681447248 0)
(-7.40146386955 0.0572053262924 5.59419205203e-20)
(-7.47564316018 0.0516757284426 5.61378719111e-20)
(-7.54232671204 0.0461995071768 0)
(-7.60146264256 0.040793169488 0)
(-7.65302039607 0.0354721994134 0)
(-7.696990673 0.030249423455 5.63422957174e-20)
(-7.73339185022 0.0251371777786 0)
(-7.76228612605 0.020142294155 0)
(-7.78377956672 0.0152579462114 0)
(-7.79800490634 0.0104643401706 0)
(-7.80510076415 0.00577149173037 0)
(-7.80525862115 0.00126826687708 0)
(-7.79883983223 -0.0029471525267 0)
(-7.78625588718 -0.00684097474901 -5.37158464179e-20)
(-7.76796031107 -0.0104073256025 0)
(-7.7444022722 -0.0136594804907 -5.24603412916e-20)
(-7.7159994325 -0.0166262572798 -5.17645980955e-20)
(-7.68311157832 -0.0193511271201 0)
(-7.6460169213 -0.0218922049767 5.02375996463e-20)
(-7.60488983842 -0.0243223035266 0)
(-7.55978149774 -0.0267292977623 -4.85141537223e-20)
(-7.51059936361 -0.0292155890309 0)
(-7.45708502611 -0.0318986153282 4.65491819958e-20)
(-7.39878626676 -0.0349086215 -4.54511055059e-20)
(-7.33502376127 -0.0383871266042 0)
(-7.26485307151 -0.0424815451934 0)
(-7.1870324981 -0.0473396135091 0)
(-7.10000688217 -0.0530945780335 0)
(-7.0019193636 -0.0598506319001 -3.79927890189e-20)
(-6.89066217474 -0.0676624213379 3.58776062803e-20)
(-6.76398653972 -0.0765200261509 -6.69040642852e-20)
(-6.61967185532 -0.0863273164517 -6.13312789413e-20)
(-6.45573116406 -0.0968956137296 -5.49379090809e-20)
(-6.27061523644 -0.107944522109 0)
(-6.06339485404 -0.119129966937 0)
(-5.83390612237 -0.130072958393 0)
(-5.58281300294 -0.140395207623 -1.94375612839e-20)
(-5.3115991912 -0.149761758493 0)
(-5.02248026279 -0.157899829102 0)
(-4.71825857247 -0.164620204285 1.96412168249e-20)
(-4.40213639262 -0.169810067148 0)
(-4.07754017262 -0.173415064322 -5.30237335217e-20)
(-3.74793645728 -0.175395842906 0)
(-3.41669016573 -0.175714915433 9.41526429712e-20)
(-3.08685006521 -0.174291790928 0)
(-2.76120821913 -0.171016956031 0)
(-2.44221540921 -0.165809673512 0)
(-2.13190992614 -0.158730602384 2.16891340345e-19)
(-1.83185658652 -0.150223626407 0)
(-1.54357008407 -0.141463167652 3.20586589179e-19)
(-1.26835409755 -0.134462767487 3.94821912839e-19)
(-1.00648521098 -0.131309337283 0)
(-0.757896314481 -0.133218413366 0)
(-0.524421990917 -0.140370464882 0)
(-0.289913772338 -0.154360253533 1.23814630096e-18)
(-0.0851550133224 -0.17230731726 0)
(0.195039304761 -0.161168131852 0)
(0.364002846293 -0.134811298323 1.314489154e-18)
(0.529505463467 -0.111737497095 9.54429889286e-19)
(0.688023969698 -0.0934924102599 0)
(0.835217374353 -0.0791331740277 -6.53571130628e-19)
(0.969678605531 -0.0675701293184 -5.75738374758e-19)
(1.09147417213 -0.0580085260684 5.19466750816e-19)
(1.20119759147 -0.0499012145469 0)
(1.29961092138 -0.0428898046136 0)
(1.38749537099 -0.0367301913894 0)
(1.46560338126 -0.0312605626088 -3.96724033114e-19)
(1.53463007784 -0.0263647742902 0)
(1.59521120992 -0.021963589946 -3.65252935215e-19)
(1.64792475348 -0.017993407379 0)
(1.69330824095 -0.0144101132116 0)
(1.73186226459 -0.0111724019582 0)
(1.76406230012 -0.00825036399279 3.29303429161e-19)
(1.79035329935 -0.00561453141465 3.24020146448e-19)
(1.81115992125 -0.00325058414822 0)
(1.8268872471 -0.00115276053512 0)
(1.83794101099 0.000656717463732 0)
(1.84474165653 0.00213871975157 0)
(1.84815158182 0.00329270077672 0)
(1.8486981078 0.00420866562926 0)
(1.8465584278 0.00497308245444 6.1878772309e-19)
(1.84192167842 0.00562313905132 0)
(1.83499059498 0.00617051683936 0)
(1.82597288759 0.00662757975176 0)
(1.81506740825 0.00700376068195 -6.23427784134e-19)
(1.80245852088 0.00730869459293 -6.26536650693e-19)
(1.78831769549 0.00755039629761 6.30320599495e-19)
(1.77280104631 0.0077365405419 6.34740985755e-19)
(1.75604967713 0.00787365195256 0)
(1.73819026006 0.00796650609209 0)
(1.71933743599 0.00801922553572 0)
(1.69959669389 0.00803601234085 6.5819461735e-19)
(1.67906456066 0.00802075403136 0)
(1.65782964761 0.00797880819171 0)
(1.63597490262 0.007914861225 -6.81338219275e-19)
(1.61357557457 0.0078314648647 0)
(1.59069761387 0.00773011741409 -6.99254695779e-19)
(1.56740009363 0.00761338454562 0)
(1.54373687173 0.00748435078935 -7.19131003772e-19)
(1.5197573115 0.00734429935734 0)
(1.49550588562 0.00719336190023 0)
(1.47101854578 0.00703182965694 0)
(1.44632373251 0.0068654415107 0)
(1.42144979316 0.00669920480422 0)
(1.39642329636 0.00652980323612 0)
(1.37125773625 0.00635261137496 0)
(1.34595617317 0.0061729746331 0)
(1.32052695786 0.00600141464788 -8.34429736143e-19)
(1.2949778257 0.00584049492875 0)
(1.26930375684 0.00568996700208 0)
(1.24349061824 0.00555138806852 -8.84067465518e-19)
(1.21752300116 0.00542545354966 0)
(1.19138355291 0.00530796908598 0)
(1.16503828338 0.00519893386296 -9.41340199565e-19)
(1.1384350039 0.00511383932411 0)
(1.11151386402 0.00506600900457 0)
(1.0841988452 0.00505297997124 -1.00885206545e-18)
(1.05637372909 0.00507226286524 1.03437845564e-18)
(1.02786942822 0.00513318658821 -1.06183618891e-18)
(0.998478815796 0.0052610008538 0)
(0.967953749133 0.00547970328553 0)
(0.935959001329 0.0058183161994 -2.32036367997e-18)
(0.902052266479 0.00632796844044 0)
(0.864955973306 0.00718033082407 2.49462739348e-18)
(0.829426587486 0.00845200345333 2.60607432725e-18)
(0.730518057413 0.013848100376 0)
(-0.00214191110967 -0.12618033749 -6.15504407826e-19)
(-0.0419133996303 -0.0242560058149 0)
(-0.144438211072 0.12392947914 2.18544367659e-19)
(-0.236837101369 0.200308633729 -1.38375560153e-19)
(-0.327473082057 0.261127272543 -1.00612989982e-19)
(-0.423683206402 0.31223563259 3.99325017861e-20)
(-0.530227956022 0.345200134925 6.79722066958e-20)
(-0.647903912921 0.370053259132 0)
(-0.774977228562 0.389929626567 -2.5701884897e-20)
(-0.909507618801 0.405990942616 4.67835777877e-20)
(-1.05008036688 0.418941979367 6.39271970045e-20)
(-1.19563282395 0.42928628169 -3.98381640642e-20)
(-1.34531691443 0.437412935858 5.60328322337e-20)
(-1.49843264453 0.443639793745 1.76115044362e-20)
(-1.65439137814 0.448235211226 0)
(-1.81269368219 0.451430991861 -1.65607405258e-20)
(-1.97291436865 0.453428981033 -1.62737766443e-20)
(-2.1346912539 0.454406003486 -1.61067736091e-20)
(-2.29771636878 0.454516124264 3.26929637832e-20)
(-2.46172811876 0.453893264518 0)
(-2.6265046424 0.452652142291 3.28485777223e-20)
(-2.79185727341 0.450890210175 0)
(-2.95762484467 0.448688164658 -3.34581178679e-20)
(-3.12366829474 0.446111773843 0)
(-3.28986552893 0.443212272992 5.1325738571e-20)
(-3.45610670522 0.440028076583 -1.77241109381e-20)
(-3.6222896203 0.436585128434 -3.55534777953e-20)
(-3.78831565682 0.432898429298 -5.40677825035e-20)
(-3.95408562798 0.428972265178 -1.82150130106e-20)
(-4.11949614655 0.42480155883 -1.85791952448e-20)
(-4.28443568356 0.420372041615 0)
(-4.44878123415 0.415661421794 -3.91083840908e-20)
(-4.6123946415 0.410639583202 1.97392787227e-20)
(-4.77511947544 0.405269770918 0)
(-4.93677757208 0.399509068869 0)
(-5.09716627231 0.393309818811 2.09633533269e-20)
(-5.25605565595 0.386620631798 0)
(-5.41318680921 0.379388334769 0)
(-5.56827045148 0.371559637505 0)
(-5.72098679486 0.363083542197 0)
(-5.87098585333 0.353913671099 0)
(-6.01788937062 0.344011163392 4.76617664309e-20)
(-6.1612940046 0.333347629645 9.61450332784e-20)
(-6.3007771493 0.321907905398 0)
(-6.43590395609 0.309692341225 5.00186582767e-20)
(-6.56623567125 0.29671778938 -4.99681156161e-20)
(-6.69133743162 0.283018725865 0)
(-6.81078681588 0.268646661598 0)
(-6.92418177012 0.253669938398 -1.56859564538e-19)
(-7.03114850058 0.238170557463 -1.06067013167e-19)
(-7.13134805659 0.22224229363 5.32170822956e-20)
(-7.22448318992 0.20598495714 1.08276517703e-19)
(-7.31030277976 0.189500508399 5.50017136647e-20)
(-7.38860433382 0.172886491282 0)
(-7.45923208214 0.15623401189 -1.6595747869e-19)
(-7.52207197813 0.139624301176 -5.54156111945e-20)
(-7.57704769049 0.12313062579 0)
(-7.62410639662 0.106817411041 1.12526013838e-19)
(-7.66321624683 0.0907451696144 -1.12844648986e-19)
(-7.69434780581 0.0749736939135 -5.62105380092e-20)
(-7.71754394144 0.0595669993636 0)
(-7.7329025153 0.0445779839974 0)
(-7.74057397465 0.030038344749 0)
(-7.74068535051 0.0159932339577 1.12594876828e-19)
(-7.73341061079 0.00261004530654 0)
(-7.71966588226 -0.00988064314535 -1.1110180678e-19)
(-7.69978541508 -0.0213789952575 0)
(-7.67426444151 -0.0318560736743 -5.47316711506e-20)
(-7.64356994341 -0.0413219360193 0)
(-7.60813982493 -0.0498269384709 -5.35078897384e-20)
(-7.56836424236 -0.0574626204573 -5.28341488666e-20)
(-7.52456400068 -0.06436271719 0)
(-7.47697028979 -0.0707031927316 -5.10776925758e-20)
(-7.42570717108 -0.0767005838242 0)
(-7.37077785552 -0.0826093483495 4.94094449194e-20)