/*--------------------------------*- C++ -*----------------------------------*\
| =========                 |                                                 |
| \\      /  F ield         | OpenFOAM: The Open Source CFD Toolbox           |
|  \\    /   O peration     | Version:  v1806                                 |
|   \\  /    A nd           | Web:      www.OpenFOAM.com                      |
|    \\/     M anipulation  |                                                 |
\*---------------------------------------------------------------------------*/
FoamFile
{
    version     2.0;
    format      ascii;
    class       volVectorField;
    location    "16";
    object      Ua;
}
// * * * * * * * * * * * * * * * * * * * * * * * * * * * * * * * * * * * * * //

dimensions      [0 1 -1 0 0 0 0];


internalField   nonuniform List<vector> 
12225
(
(0.0473935487558 48.7240638233 0)
(0.883082648515 12.0069846173 0)
(0.672927982557 11.8299175503 0)
(0.776152295338 11.7272190585 0)
(0.758657190778 11.6009611447 0)
(0.797529386194 11.5633308976 0)
(0.825497546488 11.5339362994 0)
(0.877494372805 11.515952261 0)
(0.945416204789 11.4509622364 0)
(1.03181797504 11.289942322 0)
(1.12688830013 10.9912121317 0)
(1.21097958405 10.5399869722 0)
(1.25985595377 9.97879934199 0)
(1.27305308467 9.41932199589 0)
(1.33843149591 8.97740419702 0)
(1.68736786192 8.53711194036 0)
(2.49664788053 7.32885897599 0)
(3.06796193413 3.87552709063 0)
(2.34207485288 -41.6633256907 0)
(1.00844442945 -7.61215047335 0)
(1.14813543273 -7.83394204552 0)
(1.13474135367 -7.63617038186 0)
(1.18635660683 -7.52848881277 0)
(1.23189541415 -7.39376245136 0)
(1.29246500621 -7.22823839237 0)
(1.36358956953 -7.03183099943 0)
(1.44587970685 -6.79999407696 0)
(1.53501586559 -6.54033245803 0)
(1.62389283024 -6.2595490976 0)
(1.69857361566 -5.96611525834 0)
(1.74819095814 -5.66265887147 0)
(1.78816641522 -5.33574481552 0)
(1.89464120245 -4.93414822354 0)
(2.19840808752 -4.38373585948 0)
(2.6823136921 -3.68604147069 0)
(2.74308539652 -3.05734236319 0)
(-1.13888271579 31.3646009856 0)
(1.30121665396 3.86621609093 0)
(0.760533583741 3.71050304347 0)
(0.93598029604 3.60492368772 0)
(0.887093959702 3.45260383747 0)
(0.924070463283 3.31686056552 0)
(0.945274380916 3.16146306733 0)
(0.985427654251 3.00121807084 0)
(1.03111120629 2.82688565035 0)
(1.0810678753 2.63444113815 0)
(1.12604970125 2.41482846548 0)
(1.15564270585 2.15859029222 0)
(1.16494722742 1.86276047121 0)
(1.17556084081 1.53527549174 0)
(1.25888950788 1.18752659965 0)
(1.50851577443 0.790663418793 0)
(1.86575525516 0.198488027146 0)
(1.92177317315 -0.741448286049 0)
(2.72642589667 -22.73354893 0)
(0.812477181645 -2.37624214346 0)
(1.04554043333 -1.70275544364 0)
(0.99327606723 -1.79512732234 0)
(1.02497124959 -1.63157374242 0)
(1.04901409265 -1.53524439882 0)
(1.08403687502 -1.40784325859 0)
(1.12899778516 -1.28214001086 0)
(1.18017624486 -1.15053505666 0)
(1.23247498777 -1.01808260812 0)
(1.27635569181 -0.884065635172 0)
(1.30095082115 -0.748350831012 0)
(1.30232712883 -0.60496493302 0)
(1.30011187234 -0.443695819555 0)
(1.34849149274 -0.268165405466 0)
(1.49588460022 -0.149160855913 0)
(1.66173426315 -0.264768426394 0)
(1.60564267757 -0.721575062658 0)
(-0.532373509313 14.7027745719 0)
(1.00924466713 1.39575511951 0)
(0.861532027424 0.86526330559 0)
(0.926151225596 0.884522121926 0)
(0.920262924697 0.775496154213 0)
(0.947912932385 0.697500123944 0)
(0.976666671557 0.607529828579 0)
(1.01840919305 0.509748277814 0)
(1.0671983247 0.399124113696 0)
(1.11985996239 0.274552029987 0)
(1.16852891436 0.139497569935 0)
(1.20518626251 0.00276942804877 0)
(1.22926635564 -0.117489923684 0)
(1.25852839002 -0.198180909227 0)
(1.32790362141 -0.232352487929 0)
(1.44670355757 -0.271989343366 0)
(1.52960908521 -0.429232144983 0)
(1.44349915834 -0.722824440454 0)
(1.3057591162 -6.39661136327 0)
(1.03426787484 -0.56089401201 0)
(0.93570985523 -0.372822196207 0)
(0.980930939254 -0.361332681178 0)
(0.979941509287 -0.283275344406 0)
(1.00194509148 -0.219370756045 0)
(1.02365939907 -0.153476273181 0)
(1.05452245875 -0.099240180082 0)
(1.08927993501 -0.0615536013743 0)
(1.12566046074 -0.0469170549603 0)
(1.15794140893 -0.0576639212478 0)
(1.18188742031 -0.0907194003502 0)
(1.20079490576 -0.13469705163 0)
(1.23104009993 -0.175608143088 0)
(1.29332376069 -0.214546640528 0)
(1.376954163 -0.289844416849 0)
(1.41195689898 -0.451979628505 0)
(1.3303306362 -0.663615657661 0)
(0.647207502448 2.26155922156 0)
(0.970646443559 0.0637436932039 0)
(0.933173001021 0.0768150197484 0)
(0.966118556017 0.0172545813237 0)
(0.974131381762 0.00261219157345 0)
(0.996466694372 -0.0167465415097 0)
(1.02040711447 -0.0260363932129 0)
(1.05068684865 -0.0358329987477 0)
(1.08321645631 -0.0479837770038 0)
(1.11526975508 -0.0672468054449 0)
(1.14243445584 -0.0952990059126 0)
(1.16264548871 -0.130478183365 0)
(1.18068281488 -0.166596007055 0)
(1.20931654715 -0.199475408458 0)
(1.25808531347 -0.239666870473 0)
(1.30939006458 -0.318126681173 0)
(1.31502934001 -0.45441622802 0)
(1.24460149812 -0.604983452869 0)
(0.852065319995 -0.26671984165 0)
(0.994117232124 -0.0440145468125 0)
(0.943194319051 -0.0221178847849 0)
(0.976105627387 -0.039742079131 0)
(0.983229081002 -0.0356562270577 0)
(1.00304332747 -0.0375570510448 0)
(1.02408305714 -0.0382597927362 0)
(1.05013067214 -0.0443344003387 0)
(1.07758183805 -0.0569306374936 0)
(1.10399139934 -0.0781737363508 0)
(1.12615551262 -0.107592188248 0)
(1.14346414205 -0.142165331514 0)
(1.16056413665 -0.17695320104 0)
(1.18566757055 -0.211319956743 0)
(1.22047287784 -0.256425482227 0)
(1.24743761911 -0.331925685022 0)
(1.23688110435 -0.44059841064 0)
(1.17746620657 -0.548636821824 0)
(0.867547084996 0.21341917607 0)
(0.983860761558 -0.0594799429007 0)
(0.958861647424 -0.0196247758021 0)
(0.982395099803 -0.045743300912 0)
(0.992247967885 -0.0441247145976 0)
(1.0093262587 -0.0494962771487 0)
(1.0280811252 -0.0530469461619 0)
(1.05006448096 -0.0613619509881 0)
(1.0726889543 -0.0753006807389 0)
(1.09383767559 -0.0964544544994 0)
(1.11147683657 -0.124059135383 0)
(1.12587891755 -0.15560056077 0)
(1.14080245932 -0.18817919241 0)
(1.16050950299 -0.223315886206 0)
(1.18248832737 -0.269936135329 0)
(1.19254120937 -0.338051398321 0)
(1.17394068435 -0.423100275337 0)
(1.123861755 -0.502343590947 0)
(0.907246278435 0.160772118252 0)
(0.981298393738 -0.0535706277449 0)
(0.972798447288 -0.0246589386127 0)
(0.989277402286 -0.0460142091231 0)
(1.00046935771 -0.0475662306784 0)
(1.01492374622 -0.0549909619146 0)
(1.03125162935 -0.0617321342964 0)
(1.04937793192 -0.0726553581075 0)
(1.06755691461 -0.0883603449845 0)
(1.08405445636 -0.109748747936 0)
(1.09772463887 -0.135955008246 0)
(1.1091839828 -0.16518935028 0)
(1.12097326972 -0.196167944045 0)
(1.13451721483 -0.231193525092 0)
(1.14580105697 -0.276252236471 0)
(1.14473664867 -0.335117238479 0)
(1.12268189837 -0.40148642775 0)
(1.08006731848 -0.461139810774 0)
(0.943559454501 0.163154924075 0)
(0.978558131675 -0.0557708927069 0)
(0.986262300053 -0.0326378398791 0)
(0.995447634531 -0.0506244393568 0)
(1.00751404802 -0.054320450893 0)
(1.01924980934 -0.0631774952446 0)
(1.03313154468 -0.0722329562042 0)
(1.04764246108 -0.0849564733049 0)
(1.06181994444 -0.101693763177 0)
(1.07427234855 -0.122828804796 0)
(1.08444737181 -0.147567998453 0)
(1.09291769688 -0.174798770269 0)
(1.10106283422 -0.204208105594 0)
(1.10861041834 -0.237922711329 0)
(1.11161007146 -0.279281267839 0)
(1.10354741846 -0.328687024314 0)
(1.08039706474 -0.380516533189 0)
(1.04366775364 -0.426156236314 0)
(0.969865022167 0.166778249058 0)
(0.977231887537 -0.0529952749416 0)
(0.995131180374 -0.0385934123871 0)
(0.998748194947 -0.0527373567132 0)
(1.01083823655 -0.0585435076099 0)
(1.02019527342 -0.0683525141998 0)
(1.03180446673 -0.0791436382727 0)
(1.04325632144 -0.0930813865902 0)
(1.05414999726 -0.110402839555 0)
(1.06336312744 -0.131175665192 0)
(1.07064866854 -0.154765248485 0)
(1.07638608194 -0.180527456948 0)
(1.08112021265 -0.208637908006 0)
(1.08387163103 -0.240581632715 0)
(1.08141994407 -0.277855266074 0)
(1.06966931961 -0.319457930509 0)
(1.04686781309 -0.360982215722 0)
(1.01457993639 -0.397177400069 0)
(0.992050599515 0.174153584235 0)
(0.978001697024 -0.0501376013315 0)
(1.00194591623 -0.0425415664493 0)
(1.00122215747 -0.0538948430709 0)
(1.0127955436 -0.0611980129455 0)
(1.02002117838 -0.0715833486417 0)
(1.02947998087 -0.0834291948751 0)
(1.03821332059 -0.0979583474205 0)
(1.0462122368 -0.115332205895 0)
(1.05257770986 -0.135457380097 0)
(1.05723819326 -0.157861669241 0)
(1.06029833561 -0.182280571733 0)
(1.06178196521 -0.208877066826 0)
(1.06053242854 -0.238492581986 0)
(1.05411404277 -0.271484310158 0)
(1.04014570368 -0.306466926434 0)
(1.0180852714 -0.340284410449 0)
(0.989435731055 -0.369594468024 0)
(1.01200273591 0.165210908226 0)
(0.979290706523 -0.0515410754727 0)
(1.00739718621 -0.0492564684395 0)
(1.00269595674 -0.0587781225891 0)
(1.01318905239 -0.0671854502541 0)
(1.01816781073 -0.0778330455758 0)
(1.02526688237 -0.0901928818065 0)
(1.03120746926 -0.104725343422 0)
(1.03628040933 -0.121565282799 0)
(1.0397770725 -0.1405157545 0)
(1.0416377694 -0.161331156692 0)
(1.04182268465 -0.183872309131 0)
(1.04006586349 -0.208207792191 0)
(1.03528255799 -0.234547268933 0)
(1.02589804938 -0.262635483105 0)
(1.01065149647 -0.291128150196 0)
(0.989754993376 -0.317989208372 0)
(0.964464135414 -0.341186430191 0)
(1.03064174999 0.172985177765 0)
(0.980791295763 -0.0489817680796 0)
(1.01193870017 -0.0518973889356 0)
(1.00361061138 -0.0604184296742 0)
(1.01242918964 -0.0698459752388 0)
(1.01500335136 -0.0807487172158 0)
(1.01949786738 -0.0933723445789 0)
(1.02257888215 -0.107667356428 0)
(1.02468165577 -0.123744413862 0)
(1.02521768757 -0.141394072135 0)
(1.02419438675 -0.160453852747 0)
(1.02143030387 -0.180843896283 0)
(1.01661862013 -0.202458348457 0)
(1.00899798809 -0.225140821992 0)
(0.997601444814 -0.248353912046 0)
(0.98191420797 -0.271107654591 0)
(0.96241477003 -0.292062794326 0)
(0.940212790846 -0.310200027564 0)
(1.04468145821 0.160211704822 0)
(0.983682615844 -0.0475860225878 0)
(1.01510707027 -0.0550114725573 0)
(1.00416035607 -0.0630020922466 0)
(1.01075105894 -0.0730607261877 0)
(1.01092409659 -0.0840113565676 0)
(1.01270694112 -0.0964483444144 0)
(1.01295044985 -0.110111501161 0)
(1.01212116719 -0.125034576546 0)
(1.00980365126 -0.141027236198 0)
(1.00594662046 -0.157920833935 0)
(1.00043558451 -0.175675294685 0)
(0.993049986583 -0.194003638371 0)
(0.983336383567 -0.212655951264 0)
(0.97077573736 -0.231118669516 0)
(0.955244660233 -0.248713554928 0)
(0.937278571791 -0.264688273928 0)
(0.917813104538 -0.278487542896 0)
(1.04941822914 0.15243498888 0)
(0.986470847615 -0.0444753693896 0)
(1.01536951638 -0.0548217030485 0)
(1.00284034016 -0.0625423803897 0)
(1.00681846045 -0.0729113654528 0)
(1.00465985553 -0.0836766084924 0)
(1.00375695917 -0.0956329772269 0)
(1.00132060983 -0.108372412815 0)
(0.99779442245 -0.121893815196 0)
(0.992867177585 -0.135984028011 0)
(0.986555500278 -0.150513702583 0)
(0.978792754208 -0.165351661426 0)
(0.969501808957 -0.180265880583 0)
(0.95845341321 -0.194955618126 0)
(0.945420442627 -0.209111531839 0)
(0.930430470993 -0.222286822278 0)
(0.914015529679 -0.234143474517 0)
(0.896913189733 -0.244367886998 0)
(1.04872270372 0.123134374803 0)
(0.988914770205 -0.0449664659567 0)
(1.01257936815 -0.05614996387 0)
(0.999379908876 -0.0634978468964 0)
(1.00040827621 -0.0735063354404 0)
(0.996129970362 -0.0835185812541 0)
(0.992687108928 -0.0943606248052 0)
(0.987863248791 -0.105573942042 0)
(0.981998042118 -0.117154269294 0)
(0.974932046014 -0.12889463114 0)
(0.966708160759 -0.140677531503 0)
(0.957345198034 -0.15239813086 0)
(0.946859075107 -0.163848945917 0)
(0.935173552674 -0.174833632901 0)
(0.922189870603 -0.185161414004 0)
(0.907999369333 -0.194630464442 0)
(0.893075394418 -0.203078854943 0)
(0.878066381513 -0.210415159186 0)
(1.0468406154 0.141933693775 0)
(0.991295108806 -0.019483412219 0)
(1.00798655648 -0.03009906226 0)
(0.994460132939 -0.0384251606121 0)
(0.992643378712 -0.0480131760938 0)
(0.98658989079 -0.0575041105355 0)
(0.981008768717 -0.0673386517539 0)
(0.974269943216 -0.077168431624 0)
(0.966587860247 -0.0870310040237 0)
(0.957925379123 -0.0967091294325 0)
(0.948356230697 -0.106182783214 0)
(0.937967653189 -0.115361858558 0)
(0.926831751596 -0.124145171995 0)
(0.914941788404 -0.132361237109 0)
(0.902237017292 -0.139968359022 0)
(0.888809785668 -0.146864228548 0)
(0.875044123652 -0.153038868393 0)
(0.861515867631 -0.158459173112 0)
(1.03179793953 -0.0826807632514 0)
(0.98603246657 -0.105484554519 0)
(1.00517888127 -0.111355183708 0)
(0.991092461443 -0.11630269949 0)
(0.988258193826 -0.121710521773 0)
(0.981111727116 -0.127191674369 0)
(0.974480035787 -0.132678100791 0)
(0.966783091413 -0.138214131409 0)
(0.958285871565 -0.143620132127 0)
(0.949009727665 -0.148907227524 0)
(0.939056754599 -0.153905606631 0)
(0.928534011413 -0.158628585869 0)
(0.917520563296 -0.162919590317 0)
(0.906053579203 -0.166816810085 0)
(0.894072027579 -0.170218078508 0)
(0.881668875556 -0.1731484588 0)
(0.869221180704 -0.175564814083 0)
(0.857368369653 -0.177561394082 0)
(1.08492212821 0.702385798927 0)
(1.00229638634 0.214558205242 0)
(1.00304549398 0.204449073672 0)
(0.988531945545 0.188094131076 0)
(0.98453606694 0.1752480797 0)
(0.976664312477 0.161403546854 0)
(0.969180785961 0.147904756943 0)
(0.960637640682 0.134263704694 0)
(0.951322786887 0.120942877389 0)
(0.94127115333 0.107921377135 0)
(0.930541800575 0.0953775093003 0)
(0.91936445718 0.083163400463 0)
(0.907853887989 0.07150862112 0)
(0.895999310937 0.0605121522337 0)
(0.883734666249 0.0502208698434 0)
(0.871106121987 0.0405795329453 0)
(0.858358757336 0.0315808525516 0)
(0.846138870938 0.0231633366538 0)
(0.903043313665 -1.98779624327 0)
(0.956373376578 -0.671038315185 0)
(1.01688937534 -0.66249133182 0)
(0.999509223171 -0.645049681973 0)
(0.997929408292 -0.630446744272 0)
(0.989196289202 -0.614506112813 0)
(0.981588110295 -0.598740265274 0)
(0.97275067807 -0.582931336325 0)
(0.963575718339 -0.567115060684 0)
(0.953918502462 -0.551149135593 0)
(0.944067540731 -0.53497397595 0)
(0.933927340685 -0.518750862774 0)
(0.923574617765 -0.502690426604 0)
(0.91307024005 -0.486866772336 0)
(0.902352748013 -0.47131741097 0)
(0.891453641597 -0.456084531527 0)
(0.880726834193 -0.441264988833 0)
(0.869912566294 -0.427037350295 0)
(1.48281908619 5.1878304353 0)
(1.05639750534 1.21779086111 0)
(0.994206114066 1.17404831142 0)
(0.983764327107 1.12284666989 0)
(0.978213023963 1.08282725454 0)
(0.970330951132 1.03858470512 0)
(0.961849172454 0.99550250993 0)
(0.95249832814 0.951768440922 0)
(0.942524110144 0.908135177519 0)
(0.932070024532 0.864626830784 0)
(0.921176528465 0.821548116936 0)
(0.910228693033 0.779432288339 0)
(0.899269372319 0.738803689661 0)
(0.888332490523 0.699657062644 0)
(0.877343228372 0.662156538331 0)
(0.866390435059 0.626725514588 0)
(0.85567135892 0.593710406926 0)
(0.84821056893 0.563285815743 0)
(-0.0229462663855 -10.9566297056 0)
(0.907620775053 -1.86416953676 0)
(1.04398832431 -1.73982992491 0)
(1.02795403589 -1.68949348505 0)
(1.02943188992 -1.63000373337 0)
(1.0174798582 -1.57093999357 0)
(1.00876668106 -1.5147750262 0)
(0.997840133556 -1.45966054946 0)
(0.986793506503 -1.40597974051 0)
(0.975054001735 -1.35334159519 0)
(0.962813837013 -1.30179979113 0)
(0.950005721279 -1.25199585512 0)
(0.936788007889 -1.20423693757 0)
(0.923054622241 -1.1582202628 0)
(0.908732915828 -1.11430700803 0)
(0.893905176724 -1.07307686075 0)
(0.878892840113 -1.03509440101 0)
(0.859954027693 -1.00084911551 0)
(3.25138531199 20.1832897909 0)
(1.01514984147 2.26806031456 0)
(1.01992759027 1.88210704526 0)
(0.9766903187 1.87912825697 0)
(0.979830087699 1.79132997009 0)
(0.971908378159 1.72323783121 0)
(0.96392932822 1.65578304814 0)
(0.956447046667 1.59205900865 0)
(0.949263542367 1.53247602784 0)
(0.942904942632 1.47703468797 0)
(0.937370904115 1.42600736654 0)
(0.932340265437 1.37933208477 0)
(0.927726324352 1.33624912668 0)
(0.923646340065 1.29576897127 0)
(0.920010671093 1.25755147312 0)
(0.916686142007 1.22145405304 0)
(0.913456546687 1.18771735542 0)
(0.915073325093 1.15692116958 0)
(-2.79356725417 -32.7241852025 0)
(1.19155705569 -3.05204799648 0)
(0.954173873646 -2.20064752533 0)
(1.07141800119 -2.32088048265 0)
(1.03297644604 -2.18094091958 0)
(1.0256983935 -2.12033166154 0)
(1.01173097888 -2.0494757409 0)
(0.997102166729 -1.98990774664 0)
(0.981771182933 -1.93623048501 0)
(0.965296495453 -1.88904011039 0)
(0.94782852062 -1.84762379913 0)
(0.929298058175 -1.81108332143 0)
(0.909604385403 -1.77856013256 0)
(0.888972375115 -1.749225884 0)
(0.867894721304 -1.7216435074 0)
(0.84741947832 -1.69389538448 0)
(0.829074488144 -1.66397604129 0)
(0.809539407704 -1.63085784603 0)
(6.04151702385 45.3351053647 0)
(0.40374115272 3.91342936859 0)
(1.27782668474 2.95563015695 0)
(0.967552733716 3.11731589698 0)
(1.05549399943 2.9390644471 0)
(1.02479099069 2.87224870945 0)
(1.02519835716 2.78149858352 0)
(1.01771666062 2.70621284924 0)
(1.01239777465 2.63449665889 0)
(1.00692334007 2.56868579034 0)
(1.00158096022 2.50748278489 0)
(0.996106747227 2.45046394026 0)
(0.990608664053 2.39762362463 0)
(0.985483593256 2.34895445372 0)
(0.981365427024 2.30402061782 0)
(0.978787051068 2.26202683125 0)
(0.977263302561 2.2215055344 0)
(0.98007275519 2.18009006998 0)
(-3.52387250328 -54.7663990421 0)
(1.8040699887 -4.89979961543 0)
(0.762582836362 -4.642968129 0)
(1.09312575924 -4.5006255945 0)
(0.97397790725 -4.32568050349 0)
(0.990518434144 -4.19032379282 0)
(0.967270583568 -4.05198020398 0)
(0.955368454289 -3.92688245026 0)
(0.940249091318 -3.8070457085 0)
(0.926086949164 -3.69432430028 0)
(0.911877550765 -3.58699797173 0)
(0.897847145978 -3.48488142564 0)
(0.883992686346 -3.38764364006 0)
(0.870356982094 -3.29520042577 0)
(0.856881768341 -3.20838163409 0)
(0.843472819537 -3.12911457094 0)
(0.829733248194 -3.06013371189 0)
(0.809724698984 -3.00483748601 0)
(4.03487260128 62.0397129194 0)
(0.688722496551 7.09891860188 0)
(1.3659745947 7.60480329221 0)
(1.13671099759 7.05115270931 0)
(1.20278797298 6.84617064928 0)
(1.17377727587 6.55994782868 0)
(1.17391105024 6.31423049568 0)
(1.16443055299 6.071770648 0)
(1.15758018222 5.84138621841 0)
(1.14971885075 5.61976467376 0)
(1.14206681928 5.40707571879 0)
(1.1340071775 5.20317521759 0)
(1.12558922344 5.00847426868 0)
(1.1166774996 4.82306842223 0)
(1.1068054992 4.64665521441 0)
(1.09520505199 4.47841646695 0)
(1.08012901974 4.31867812686 0)
(1.06763267501 4.17229960301 0)
(0.0074395497738 -63.1230827271 0)
(0.883630659208 -9.85088843755 0)
(0.680004980876 -10.073315676 0)
(0.726575734625 -9.45147265347 0)
(0.710762311209 -9.13083042059 0)
(0.709158527611 -8.73656344909 0)
(0.70403801328 -8.38596010234 0)
(0.698649148599 -8.04251983423 0)
(0.692878139485 -7.71783095193 0)
(0.686776449624 -7.40772532695 0)
(0.680760992097 -7.11200179457 0)
(0.674951211546 -6.828385501 0)
(0.669519279554 -6.55515948302 0)
(0.66418830419 -6.289618873 0)
(0.658232024748 -6.03024861019 0)
(0.651895130634 -5.77670626664 0)
(0.648879127283 -5.52527773265 0)
(0.650750267097 -5.25589494115 0)
(-0.150041263261 0.0803750756039 -2.14098523842e-18)
(-0.160962027476 0.0990217334242 0)
(-0.173557951969 0.0976757635735 0)
(-0.17704875406 0.0843449084923 0)
(-0.182832913251 0.0766389427658 0)
(-0.179528083653 0.0638338027607 1.50266784531e-18)
(-0.190811785871 0.0570462082059 0)
(-0.201167534721 0.0679657620147 0)
(-0.204073504809 0.0931817663153 -4.85878031148e-19)
(-0.20048515197 0.126974649851 0)
(-0.193373226986 0.164007188305 3.23098721442e-19)
(-0.185532936423 0.200260169597 0)
(-0.179156834287 0.233126253025 2.38303136593e-19)
(-0.175375761522 0.261290851766 2.09858921132e-19)
(-0.174726247487 0.284391509818 0)
(-0.176991150097 0.302708710721 -1.68717230801e-19)
(-0.181778823277 0.316855470187 -1.53468681176e-19)
(-0.188383415793 0.32762775979 -1.40694940156e-19)
(-0.196161587924 0.335773683954 0)
(-0.204471287439 0.342033383085 0)
(-0.212796090464 0.346978496948 0)
(-0.220713341279 0.35111186667 0)
(-0.227903140264 0.354734688916 0)
(-0.234177209408 0.358108212381 0)
(-0.239366862159 0.361304722311 8.90509185562e-20)
(-0.243453633897 0.364370493369 8.46875980777e-20)
(-0.246404477235 0.367225791625 0)
(-0.248281137219 0.369782506542 -7.71868125091e-20)
(-0.249093405189 0.371855982213 -7.3940246296e-20)
(-0.248946792649 0.373266787888 -7.09726149958e-20)
(-0.247894131868 0.373791444253 0)
(-0.246045978565 0.373219882204 0)
(-0.24346624922 0.371329584088 6.3424550919e-20)
(-0.240256977275 0.367918864294 0)
(-0.236484887453 0.362806648709 0)
(-0.232222807533 0.355822075529 5.74365313457e-20)
(-0.227539377141 0.346837103754 0)
(-0.222476554988 0.335736739528 0)
(-0.217081050231 0.322439316067 0)
(-0.21137039632 0.306875802458 0)
(-0.205379079752 0.289007442025 0)
(-0.19910241024 0.268804454715 -9.7346970494e-20)
(-0.192563426169 0.246251976531 0)
(-0.185745356721 0.221345095809 0)
(-0.178665617782 0.19407513029 -9.09566080613e-20)
(-0.171309095159 0.164451316333 -8.91120045697e-20)
(-0.163682765659 0.132454942791 0)
(-0.155785315983 0.0980952585773 0)
(-0.147621000735 0.0613457140483 -8.43339536715e-20)
(-0.139193164132 0.0222034297918 0)
(-0.130504319068 -0.0193822468834 8.17227830699e-20)
(-0.121569670679 -0.0634256140483 0)
(-0.112374776719 -0.109998554879 -7.95223251133e-20)
(-0.102940789197 -0.159148426913 0)
(-0.0932659370965 -0.210960922538 -7.76945626189e-20)
(-0.0833649370427 -0.265518113268 -7.69099337168e-20)
(-0.0732322426038 -0.322943775406 0)
(-0.0628847873735 -0.383361148396 0)
(-0.0523254839235 -0.446922791952 0)
(-0.0415695286006 -0.513785115313 -7.454628542e-20)
(-0.0306198198751 -0.584125676424 0)
(-0.0194960812228 -0.658111598592 0)
(-0.00824140089829 -0.735855365651 0)
(0.00298891792829 -0.817254169284 0)
(0.0139697286338 -0.901451328757 0)
(0.0249014332554 -0.986391211669 0)
(0.0358492266299 -1.07109094575 0)
(0.04685607989 -1.15466172046 7.27655573396e-20)
(0.0579469573251 -1.23628992547 0)
(0.0691117779102 -1.31523610975 7.28266711781e-20)
(0.0803362736752 -1.39081212806 7.29367380721e-20)
(0.0915912617747 -1.46241548605 0)
(0.102850919293 -1.52948942906 -7.33094193487e-20)
(0.114086935391 -1.59157607674 0)
(0.12527435041 -1.64825198962 7.38884041777e-20)
(0.136394296317 -1.69919280458 0)
(0.147428216704 -1.74408916557 -7.46935662128e-20)
(0.158387014683 -1.78272571273 7.5194070212e-20)
(0.169296658276 -1.81491076387 0)
(0.180206365361 -1.84053744115 0)
(0.191178120779 -1.8595059567 0)
(0.20230856347 -1.87179484907 0)
(0.213724800462 -1.87740346988 7.91504951754e-20)
(0.225586853713 -1.87642916651 -8.03744713669e-20)
(0.238067322501 -1.86901442287 1.63626299146e-19)
(0.251361894218 -1.85543460959 1.67013938963e-19)
(0.265659846381 -1.83608700639 1.71007833402e-19)
(0.281136155931 -1.81158950018 0)
(0.297977878775 -1.78277470125 0)
(0.316380775996 -1.75098297597 0)
(0.336505977841 -1.71778540321 1.95401024475e-19)
(0.358507928526 -1.68506175991 0)
(0.38244474408 -1.65482779574 0)
(0.40835389406 -1.62911114125 2.27209310867e-19)
(0.436167096854 -1.60979939879 0)
(0.465700593803 -1.59836826697 -2.58933573925e-19)
(0.496614007249 -1.59561453597 0)
(0.528575690609 -1.60089084706 3.03639051489e-19)
(0.561441015916 -1.6114121705 0)
(0.595188966963 -1.62323815939 0)
(0.629502369685 -1.6328235906 0)
(0.662253604878 -1.63909848616 4.65940314979e-19)
(0.685637048894 -1.63714711365 0)
(0.703190412527 -1.62083763643 6.2405142065e-19)
(0.734539509275 -1.61053615482 7.4320559515e-19)
(0.78051635901 -1.62827007808 0)
(0.844013200043 -1.63232260228 0)
(1.00033496715 -1.50570964322 0)
(1.17591939507 -1.21320566799 2.16851680231e-18)
(1.03795023145 -0.835162201144 0)
(0.729223532506 0.380532816804 0)
(0.619227126779 0.852800643121 2.25434011579e-18)
(0.518224947642 1.12139142639 1.63450105478e-18)
(0.465924414508 1.32959216584 0)
(0.429452047299 1.49963041244 -1.12343720303e-18)
(0.40270570535 1.64266955013 -9.93777625858e-19)
(0.382029621507 1.76482781385 9.01315628287e-19)
(0.365504011447 1.86996416654 0)
(0.352098442452 1.9605373757 0)
(0.341239308136 2.03834081629 0)
(0.332549178819 2.10460791997 -7.06364519249e-19)
(0.325692743733 2.1602853847 0)
(0.320348647306 2.20598197245 -6.59518381244e-19)
(0.316264869742 2.24222546536 0)
(0.313255369076 2.26938284227 0)
(0.311171730878 2.28793586924 0)
(0.30985990562 2.29825009175 6.10904176864e-19)
(0.30916701765 2.30074611178 6.04886058127e-19)
(0.30894883754 2.29595622102 0)
(0.309073934148 2.28455343802 0)
(0.309406477154 2.26714366553 0)
(0.309800506294 2.24438525768 0)
(0.31017183994 2.2169486149 0)
(0.310348171639 2.1880239778 0)
(0.310255800877 2.15957040689 1.19927358413e-18)
(0.309874502144 2.13190389981 0)
(0.309183166021 2.10504821454 0)
(0.308151028023 2.07895118428 0)
(0.306895845025 2.05363749839 -1.22958490176e-18)
(0.305631218603 2.02922549944 -1.24082813155e-18)
(0.30456070375 2.00591283842 1.25342659466e-18)
(0.303719954149 1.98384176387 1.26732638207e-18)
(0.303044420807 1.9631796139 0)
(0.302426299677 1.94407199514 0)
(0.301815717765 1.92680744423 0)
(0.301179290537 1.91169856009 1.33525076647e-18)
(0.300494560824 1.89918243118 0)
(0.299738108834 1.88967595147 0)
(0.298922903385 1.88371108925 -1.39858665882e-18)
(0.298081906336 1.88173830233 0)
(0.297268503875 1.88425219628 -1.44662882103e-18)
(0.296501310442 1.89155306886 0)
(0.295803218074 1.90391640395 -1.49934564946e-18)
(0.295161937232 1.92132165288 0)
(0.294597919446 1.94369656404 0)
(0.294062790748 1.9705740678 0)
(0.293502463743 2.00139095921 0)
(0.292775578172 2.0350597718 0)
(0.291813297609 2.0704496912 0)
(0.290520306471 2.10593138368 0)
(0.288919808367 2.13996474953 0)
(0.286917460816 2.17035881319 -1.79111496496e-18)
(0.284500414537 2.19503098846 0)
(0.281598451304 2.21117975003 0)
(0.278316030576 2.21625833936 -1.90147026347e-18)
(0.274845123681 2.20695995711 0)
(0.271175889335 2.18107569558 0)
(0.266885668342 2.13519499957 -2.00841058008e-18)
(0.261773572482 2.06778429826 0)
(0.25553094704 1.97858077022 0)
(0.247540388136 1.8719801949 -2.09783388378e-18)
(0.23756444238 1.75302744083 2.1203961267e-18)
(0.219987883821 1.632819062 -2.13829769326e-18)
(0.200120666571 1.51605375785 0)
(0.181954163983 1.42592566854 0)
(0.160997270092 1.3745530134 -4.31922456413e-18)
(0.12701196066 1.36442032712 0)
(0.0865669707046 1.3288542318 4.27682395829e-18)
(0.0416293360816 1.28140696634 4.22561629887e-18)
(0.124824350029 1.15262521654 0)
(-0.03707396864 0.0583576626371 6.64330346058e-18)
(-0.0316979236634 0.0589978890131 0)
(0.0722031207927 0.0676193586349 -2.34951951432e-18)
(0.111097799193 0.0809504870427 1.48020788719e-18)
(0.111945744515 0.0817518635048 1.07185903419e-18)
(0.0858052573702 0.0679538295579 -4.24450463295e-19)
(0.0504794232309 0.0426941399891 -7.16034772018e-19)
(0.0212079307713 0.0146105067293 0)
(0.00206443078672 -0.0121585759784 2.65467584789e-19)
(-0.00777763259712 -0.0365990071906 -4.66355083739e-19)
(-0.0106992316091 -0.0590818771377 -6.21539615087e-19)
(-0.00912956590822 -0.0803415499032 3.71380792771e-19)
(-0.00501218138096 -0.100988124685 -5.04632988644e-19)
(0.000411229286304 -0.121298162045 -1.53897041238e-19)
(0.00630156611524 -0.141312129148 0)
(0.0122334421703 -0.160830249955 1.30728878736e-19)
(0.0179029681573 -0.179648667224 1.21524443281e-19)
(0.0231848823076 -0.197465400406 1.13530672266e-19)
(0.0279796160275 -0.214120176623 -2.11204719561e-19)
(0.032272389861 -0.229403841016 0)
(0.0360600773968 -0.243277301012 -1.87831157122e-19)
(0.0393643773416 -0.255644580203 0)
(0.0422628643726 -0.266559397779 1.6924477453e-19)
(0.044832949042 -0.276005923793 0)
(0.0471963389073 -0.284077118008 -2.32320518562e-19)
(0.049454884984 -0.290799184613 7.27023687602e-20)
(0.0517633890299 -0.296260490313 1.41665272684e-19)
(0.0542403406699 -0.300491619993 2.05433274316e-19)
(0.0570457462626 -0.303556359097 6.67237087658e-20)
(0.0602891253388 -0.305481368196 6.44062289403e-20)
(0.0641036273304 -0.30629651388 0)
(0.0685677334751 -0.306013630907 1.18240887329e-19)
(0.0737693560273 -0.304629840168 -5.84037915838e-20)
(0.0797560078389 -0.302142106226 0)
(0.0865592560515 -0.298523627942 0)
(0.0941844902936 -0.293756278202 -5.35326759501e-20)
(0.102620768056 -0.287798901477 0)
(0.111844628514 -0.280619277109 0)
(0.121810374639 -0.27217060773 0)
(0.132477029834 -0.26241045656 0)
(0.14377943602 -0.251291781994 0)
(0.155664396294 -0.238762678716 -8.80230212351e-20)
(0.168057779446 -0.224779690185 -1.76728297579e-19)
(0.180901582533 -0.20928113634 0)
(0.194121286451 -0.192227980501 -8.26670766143e-20)
(0.207655674907 -0.173546241574 8.56532160291e-20)
(0.221435967729 -0.153197017745 0)
(0.235404064745 -0.131094210642 0)
(0.249500550872 -0.107190823005 2.405871055e-19)
(0.263662957344 -0.0813863859782 1.56650668919e-19)
(0.277850005174 -0.0536194607934 -7.96113999384e-20)
(0.292016142798 -0.0237759956062 -1.52795675527e-19)
(0.306131312754 0.00822591589893 -7.32642967182e-20)
(0.32015717908 0.0425083682465 0)
(0.334068992527 0.0791767319391 2.24849783008e-19)
(0.347831680497 0.118364661982 7.59204244427e-20)
(0.361427253652 0.160196009833 0)
(0.37483038855 0.204813858917 -1.45377902722e-19)
(0.388026918643 0.252365695749 1.44684287222e-19)
(0.400997252304 0.303012805411 7.43719590538e-20)
(0.413726540755 0.356930093808 0)
(0.426227782256 0.414292484777 0)
(0.438574795132 0.47529257836 0)
(0.451048890564 0.539821975141 -1.43249562237e-19)
(0.463627351041 0.60592498893 0)
(0.475889648382 0.67191281274 1.42887299088e-19)
(0.487646041623 0.73707621115 0)
(0.49877843865 0.800672727264 6.92448997346e-20)
(0.509199621029 0.861998536337 0)
(0.518836325038 0.920375413222 6.9469041971e-20)
(0.527626113668 0.975225369927 6.96488771888e-20)
(0.535514518559 1.02601243008 0)
(0.542458816929 1.0723154908 7.45353206409e-20)
(0.548429148056 1.11373461747 0)
(0.553402270609 1.14996711136 -7.52519480725e-20)
(0.557369136015 1.18069797874 0)
(0.560328203273 1.20567842165 7.61810841217e-20)
(0.562294951963 1.22462773546 -7.67349030831e-20)