/*--------------------------------*- C++ -*----------------------------------*\
| =========                 |                                                 |
| \\      /  F ield         | OpenFOAM: The Open Source CFD Toolbox           |
|  \\    /   O peration     | Version:  v1806                                 |
|   \\  /    A nd           | Web:      www.OpenFOAM.com                      |
|    \\/     M anipulation  |                                                 |
\*---------------------------------------------------------------------------*/
FoamFile
{
    version     2.0;
    format      ascii;
    class       volScalarField;
    location    "3";
    object      alpha;
}
// * * * * * * * * * * * * * * * * * * * * * * * * * * * * * * * * * * * * * //

dimensions      [0 0 -1 0 0 0 0];


internalField   nonuniform List<scalar> 
12225
(
0.371015883275
0.377069466062
0.379521470115
0.380794672913
0.391466631418
0.396004029093
0.402317831986
0.407248749677
0.410607121586
0.411433984707
0.408498754696
0.402990859494
0.400031074714
0.394075878631
0.380489851714
0.366040470189
0.348540289591
0.325256365322
0.35500266361
0.341634325548
0.367956731873
0.363173723069
0.370692409589
0.373122230618
0.377178539464
0.380586188838
0.383649564225
0.385977269007
0.38655300156
0.385434413615
0.385302703567
0.383950781786
0.378367281416
0.371680467692
0.363036965766
0.357153555739
0.372638016062
0.349273447973
0.368363854223
0.364569270991
0.372920080513
0.375766041138
0.380039687916
0.383422613148
0.386312322122
0.38850035095
0.389544816205
0.389452366205
0.389053518996
0.387339354452
0.383088189899
0.378324005223
0.373556051445
0.374421894255
0.380826139276
0.348144980695
0.369321729164
0.363616729931
0.371026355522
0.372619258567
0.3757113671
0.37806439678
0.380118004032
0.381701610121
0.382608058527
0.382807292659
0.382477771424
0.381091625365
0.378299703369
0.375478971951
0.373731128793
0.376978854928
0.386136200765
0.347661082079
0.36940617866
0.362568110489
0.369438443714
0.370245367916
0.372567719174
0.374104956526
0.37530119117
0.376064893088
0.376327818877
0.37612097541
0.375456950649
0.374122931565
0.3722420831
0.37086440429
0.371116244412
0.375137106984
0.389511293386
0.347101135965
0.369088718487
0.361301251567
0.367674800632
0.367823334396
0.369549610404
0.370486391303
0.371076538568
0.371280254806
0.371083885968
0.370563614813
0.369726720303
0.368547380099
0.367355116477
0.36701038833
0.368416971414
0.372583449918
0.39149378321
0.346678044301
0.368601315807
0.360070100016
0.365994740521
0.365611072369
0.366880333931
0.367376669261
0.367552306428
0.367397534762
0.366924433608
0.366233574649
0.365380631095
0.364442180176
0.363809553447
0.364176603221
0.366204975948
0.370328569336
0.392568823238
0.346455097915
0.36808845257
0.358996741006
0.364504400032
0.363684027111
0.364593944873
0.364765935212
0.36468279277
0.364336588777
0.363738720486
0.363006314243
0.362242416975
0.36157655555
0.361404969909
0.362263856793
0.364634745265
0.368601903259
0.393093666382
0.346462578855
0.367652324215
0.358160495687
0.363279544147
0.362088183677
0.362705843849
0.362648779805
0.362424412788
0.36200273053
0.361386483922
0.360712696136
0.360114555977
0.359746991301
0.359961895909
0.361191587962
0.363738594258
0.367548570314
0.393379849543
0.346730803664
0.367443960731
0.357694850042
0.362484950488
0.360995785126
0.361403674859
0.361207070343
0.360912882915
0.360471329877
0.359900817316
0.359360007948
0.358993255681
0.358943951896
0.359504534402
0.361008521687
0.363637300337
0.367227898666
0.394165932099
0.347094369077
0.36771527753
0.35774971638
0.362374486374
0.360740927178
0.361094139532
0.360862522065
0.360565494495
0.360168505481
0.359708494125
0.359329758963
0.359161364901
0.359321852529
0.360054640894
0.361611675336
0.364078025908
0.367290231816
0.397513751761
0.3475566813
0.369183360433
0.358861485441
0.363556697311
0.361884304101
0.362227794635
0.361983990627
0.361729687406
0.361395190968
0.360946871649
0.360541699267
0.360315573695
0.360402039426
0.361003810439
0.362316819727
0.364412037823
0.367121798807
0.399775517786
0.348294501111
0.370354751641
0.359802691719
0.36432156025
0.362521677459
0.362762869414
0.36242070775
0.362023918227
0.361518559461
0.360923361783
0.360391566156
0.36010080762
0.360141748297
0.36070570576
0.361924528054
0.363809817621
0.366212152494
0.402535252745
0.349140835412
0.371556848423
0.360667752625
0.364922750112
0.362795229083
0.362706339921
0.362104036635
0.361520240016
0.360900168956
0.360264031188
0.359782483409
0.359612229171
0.359814246511
0.360486466663
0.361727344851
0.363462941727
0.365637411258
0.406202868117
0.350071567685
0.373072096351
0.361707176978
0.365666392733
0.36314544558
0.362675050545
0.361766485058
0.360973462028
0.360276815615
0.359663746106
0.359321135255
0.3593639478
0.359763046892
0.360573489461
0.361827245279
0.363445363411
0.365356998098
0.410076865019
0.351000195111
0.374786595893
0.362950439487
0.366698345176
0.363829596152
0.363052697298
0.361897109834
0.360965487437
0.360211128528
0.359666252721
0.359444727933
0.359661644639
0.360192834047
0.361078054176
0.362294235547
0.363775407458
0.365480791507
0.413666084651
0.351760119635
0.376491639989
0.364272389049
0.367940269874
0.364847988456
0.363896070894
0.36261153568
0.36161572852
0.360877361961
0.360377384951
0.360251209288
0.360555453394
0.36115311276
0.362030777666
0.363189565047
0.364521540882
0.366073247269
0.41691484897
0.35225265452
0.378055532385
0.365524482684
0.369247985596
0.366061551068
0.36507137395
0.363751500899
0.362758459227
0.362051629852
0.361600534951
0.361532909056
0.361881938457
0.362488536943
0.363333211263
0.364420147847
0.365636503517
0.367047938062
0.418664642661
0.352118578844
0.378778916428
0.36609973104
0.370002204636
0.366898355638
0.366044173197
0.364844986852
0.363982552234
0.363406131611
0.363075594755
0.363104618037
0.363518526528
0.364147780158
0.364979594052
0.366026054309
0.367176289743
0.368498625685
0.414866532747
0.351228790155
0.377545787125
0.365376650919
0.369749261611
0.367191192615
0.366892781895
0.36625714856
0.365906678124
0.365787692565
0.365836723516
0.366152684575
0.366766509006
0.367522191254
0.368411725323
0.369452597847
0.37054625647
0.371745855568
0.411986232175
0.350160492194
0.376172072887
0.364376144459
0.369118344623
0.367001583138
0.367149092095
0.366925922724
0.366971264367
0.367180841061
0.367497545364
0.368000010233
0.368752046328
0.369575427977
0.370496304101
0.371514768161
0.372568638882
0.373683616429
0.409685979648
0.349118820923
0.374888712542
0.363421685177
0.368475570856
0.366755868667
0.367271670263
0.367411559394
0.367773701672
0.368250479702
0.368789369519
0.369448214903
0.37030303775
0.371194818291
0.372139080426
0.373156951726
0.374176847358
0.375260323859
0.40737541453
0.348019230266
0.373663987784
0.362500667519
0.36786295867
0.366530443626
0.367403789811
0.367883430915
0.368538861897
0.369279260943
0.370009414458
0.370829031762
0.371794501337
0.372771606012
0.373749614553
0.374790239511
0.375802513287
0.376849051875
0.405001016942
0.34689089971
0.37242985535
0.361637289274
0.367331390102
0.366369797517
0.367585286001
0.368387589129
0.369319445245
0.370283430888
0.371210398008
0.372173178642
0.373251115672
0.374301402865
0.37535362617
0.376435549795
0.377483981406
0.378521062513
0.402408574415
0.345805429745
0.371187350271
0.360837625752
0.366799862895
0.36620749394
0.367740969658
0.368824798663
0.370005721951
0.371190010562
0.372300654359
0.373397287307
0.374584927297
0.375727658574
0.376845786063
0.377995305919
0.379108229175
0.380165109582
0.398915285977
0.344726676553
0.369635482667
0.359887918162
0.366077625863
0.365809717764
0.367601228956
0.368937946811
0.370341458228
0.37173176819
0.373020742774
0.374250751157
0.375527097937
0.376760758487
0.377969734796
0.379197780147
0.380403128898
0.381513499191
0.393198985
0.343403910937
0.367534249224
0.358556247283
0.364805480605
0.36481116821
0.36680674675
0.368328309203
0.369919708652
0.371511777288
0.373017077683
0.37438503957
0.375778560589
0.377152475496
0.378473946536
0.379830261429
0.381159394106
0.382486477555
0.38472293418
0.342862475686
0.362919138841
0.355519510339
0.361819484298
0.362179604264
0.364366283544
0.366029995565
0.36770828158
0.369384830816
0.370911478808
0.37227412906
0.373653977842
0.374988806042
0.376269326928
0.377598948626
0.378948021105
0.379755366496
0.35239596569
0.328551353925
0.358176454626
0.349869725462
0.35549290798
0.355971909564
0.358179356527
0.360128943672
0.362335450877
0.364763431397
0.367296807534
0.369645353557
0.37200560591
0.374470343177
0.376985935245
0.37959044731
0.382299867725
0.385459771248
0.352446840387
0.361573185452
0.360809962397
0.357420569844
0.364527865685
0.364644622968
0.366412466671
0.367671310757
0.368824620919
0.369730857256
0.37020187349
0.370534888525
0.370906273107
0.370940774195
0.370672204018
0.370388177087
0.370079386412
0.370124274603
0.476061737845
0.476392679086
0.476585489638
0.476568902392
0.476384034868
0.476081348676
0.475719017025
0.475325870307
0.474921091081
0.474517557706
0.474123602162
0.473744148094
0.473381905104
0.473037709223
0.472711524228
0.472402099428
0.472108204501
0.471827472984
0.471558320424
0.471298961044
0.471047876516
0.470803773924
0.470565195827
0.470332505341
0.470105077313
0.4698841264
0.469668996104
0.469460445069
0.469258322068
0.46906388874
0.468877159682
0.468698766979
0.468528489889
0.468367474992
0.468215474947
0.4680722675
0.467937209558
0.467811082307
0.467692900452
0.467582725695
0.467479557274
0.467382979382
0.467291933756
0.467205484242
0.467122529108
0.467041681331
0.466961711562
0.466881098661
0.466798400336
0.466712342832
0.466621651953
0.466526149908
0.46642418053
0.466314251452
0.466194268059
0.466062909395
0.465918987743
0.465762001936
0.465591801812
0.465408976418
0.465213680367
0.465006452206
0.464787744808
0.464557876115
0.464317299964
0.464067547914
0.463809507819
0.463544316749
0.463273577458
0.462998336887
0.462720389607
0.462440966996
0.462161640905
0.461883662741
0.461608460731
0.461336941184
0.461070477282
0.460810841475
0.460559027176
0.460315496501
0.460080664987
0.459855594855
0.459640862757
0.459437695452
0.459243962146
0.459059843984
0.458883092699
0.45870881801
0.458537513046
0.458358104574
0.458171281871
0.457982089454
0.457788765064
0.457612003017
0.457466940717
0.457321882266
0.457135953885
0.456909592579
0.456655255755
0.456391810763
0.456084847221
0.455767606498
0.45608935521
0.456344906867
0.456408717893
0.456375911732
0.456345580477
0.456296953769
0.456210106091
0.45612454406
0.456045704364
0.455973155843
0.455905474573
0.455841637275
0.455780760886
0.455722214831
0.455664836727
0.455606912271
0.455548710889
0.455492026756
0.455440655105
0.455396329619
0.455358369901
0.455326285502
0.455297645699
0.455271443413
0.455247075714
0.455224278027
0.455202795685
0.455182451851
0.455162936068
0.455144061121
0.455125644266
0.455107818468
0.455090644277
0.455074302284
0.455058845186
0.455043909665
0.45502977697
0.455016317264
0.455004915985
0.45499417378
0.454984628422
0.454977364344
0.454973350349
0.454973457145
0.454977663684
0.454985580634
0.454996639582
0.455010160118
0.455025741517
0.455043325872
0.455063057086
0.455085228431
0.455110536218
0.455140077611
0.455175608764
0.455219581295
0.455275803377
0.45534916583
0.4554471817
0.455578316356
0.455754440441
0.455990894524
0.456307691282
0.456726653538
0.457273506108
0.457970113975
0.458835325006
0.459897299551
0.461171499557
0.462655294429
0.464326124091
0.466128938822
0.468002493359
0.469980068538
0.471983579476
0.473905545117
0.475625264706
0.476803561493
0.476114178169
0.476420727004
0.476410229
0.47617872988
0.475850685558
0.475489464641
0.475118958532
0.474749916994
0.474386104542
0.474029069562
0.473679420989
0.473338015519
0.47300491756
0.472680467564
0.472364545801
0.472056975062
0.471757330979
0.471464833715
0.47117861364
0.470898185897
0.470622631486
0.470351704218
0.470084492529
0.469821668913
0.469563104492
0.469310110676
0.469062231853
0.468820512246
0.46858527314
0.468357645196
0.468137474644
0.467925569586
0.46772225837
0.467528198361
0.467342793278
0.46716645629
0.466998643286
0.466839380355
0.466688116187
0.46654477308
0.466408432566
0.466278460074
0.466153807652
0.466033357568
0.465915846166
0.465799747667
0.465683386995
0.465565005889
0.465442400833
0.46531329598
0.465173941224
0.465023398337
0.464861900627
0.464689427162
0.464505105368
0.464308539921
0.464099442005
0.46387743754
0.463643413248
0.463399399424
0.463146310823
0.462885017856
0.462615725626
0.462339101684
0.462055715035
0.461766212278
0.461471644217
0.461172996578
0.460871392103
0.460567787891
0.460263346812
0.45995908919
0.459656337716
0.45935595423
0.45905883621
0.458766127497
0.458478856047
0.458198056396
0.457924817345
0.457659339409
0.457401398295
0.457151684782
0.456911333466
0.456679996642
0.456455013171
0.45623938247
0.456036393925
0.455834860275
0.455614459672
0.455389806965
0.45517907476
0.454946162415
0.454660389997
0.454347290636
0.454079787047
0.453848398378
0.453562782817
0.453434158265
0.453285903486
0.45306629196
0.452807302065
0.452622386669
0.452722744182
0.452734634436
0.452696437978
0.452634356869
0.452567251599
0.452511992439
0.452447907139
0.452377305615
0.452298786787
0.452215874891
0.452130486031
0.452043618171
0.451955594547
0.451866433859
0.451775215171
0.45168070643
0.451582780929
0.451484249043
0.451388871235
0.451298563055
0.45121389657
0.451133825357
0.451056943139
0.450982542634
0.450910104892
0.450839353408
0.450770079477
0.450702152787
0.450635433604
0.450569825897
0.450505309045
0.450441953987
0.45037971729
0.450318473859
0.450257770712
0.450196873565
0.450135103429
0.450072680022
0.450009938302
0.449946118634
0.449881467104
0.449816897147
0.449753853698
0.449693409135
0.449635851609
0.449580997697
0.449528538579
0.449478280259
0.449429999903
0.449383356738
0.44933788162
0.449293049365
0.449248381357
0.449203256463
0.449157014855
0.449108667791
0.449057267478
0.449000923483
0.448938252451
0.448867944248
0.448788300236
0.448697013075
0.448592412879
0.448473513597
0.448334969566
0.448185688506
0.448027005953
0.44786200323
0.447699530631
0.447553423061
0.447442953258
0.447362789699
0.447395715567
0.447445582555
0.44752749035
0.447636065281
0.447760516598
0.448009939387
0.475955938252
0.476138088256
0.476060982
0.475844564686
0.475580027921
0.475311580666
0.475041922069
0.474769241467
0.474490657527
0.474205420989
0.473913596643
0.473616439173
0.473315552382
0.473012671511
0.472709373188
0.472406909792
0.472106247198
0.471807952781
0.471512212665
0.471219104826
0.470928621081
0.470641065596
0.470355844748
0.470073860769
0.469795232771
0.469520908909
0.469251008519
0.468986695661
0.468728290115
0.468476875994
0.468232775905
0.467996983409
0.467769519817
0.467551188537
0.467341991713
0.467142130703
0.466951238057
0.466769806119
0.466597341366
0.466433782808
0.466278630276
0.466131449272
0.465991553627
0.465858164958
0.465730404159
0.465607261442
0.465487447975
0.465369585638
0.465252140338
0.465133406095
0.46501054844
0.464881397416
0.464743240742
0.464594818936
0.464434994123
0.464262860836
0.464077642424
0.463879261435
0.463667329375
0.463441199774
0.463201529068
0.462949363603
0.46268566648
0.46241123941
0.462126983927
0.461834183736
0.461534047351
0.461227878411
0.460917267274
0.460603586855
0.460288469927
0.459973355731
0.459659640983
0.459348713191
0.459041677499
0.458739627847
0.458443476023
0.458154229026
0.457872532243
0.457599301712
0.457333345716
0.457074709372
0.456824604933
0.456583373592
0.456346525968
0.456110938536
0.455886571032
0.455673641053
0.45545101171
0.455202312631
0.4549514011
0.454720434572
0.45444155201
0.454141709057
0.453844454344
0.453529047101
0.453247810229
0.45314999553
0.453064890219
0.45296583673
0.452889149728
0.452894521402
0.452910756624
0.452822769518
0.452725681781
0.45264008827
0.45255581781
0.452455403122
0.452344404563
0.452238402013
0.452136768073
0.452038114292
0.451941543827
0.45184644605
0.451752341205
0.451658719977
0.451564543102
0.451468968756
0.451372309667
0.451277277109
0.45118642649
0.45110060559
0.451019116675
0.450940495312
0.450864243022
0.450790077655
0.45071779277
0.450647118901
0.450577784389
0.45050948905
0.450441921794
0.450374811046
0.450308024559
0.450241515209
0.450175242217
0.450109064959
0.450042673782
0.449975898757
0.449908664904
0.449841894595
0.449775550536
0.449708836759
0.449640857284
0.449572075239
0.449503865962
0.449437187456
0.449372415684
0.449309371755
0.449247828839
0.449187506109
0.449128280566
0.449069968094
0.449012654601
0.448956471763
0.448901622997
0.448848348257
0.44879708862
0.448748288317
0.448702594395
0.448660518172
0.448622673907
0.448589755268
0.448562203593
0.448539748257
0.44852164274
0.448505743633
0.448487206079
0.448462135001
0.448428082647
0.448379270239
0.44831002062
0.448216630064
0.448097588344
0.447956834315
0.447806849086
0.447658824256
0.447514753703
0.447381103022
0.447262722943
0.447147630357
0.475880641495
0.475842800338
0.475729704813
0.475564274322
0.475379274755
0.475199077964
0.475010798899
0.474808238713
0.474587819797
0.474348764128
0.474092456876
0.473821527374
0.473538696638
0.473246806308
0.472948371652
0.472645555156
0.472340121115
0.472033360462
0.471726198083
0.47141958935
0.471113633666
0.470808997712
0.470505962731
0.470205239264
0.469907007766
0.469612615685
0.469322360384
0.469037321285
0.468758096973
0.468485862761
0.468221029251
0.467964505525
0.46771674752
0.467478487715
0.467249452152
0.467030347411
0.466820907327
0.466621281057
0.466431145746
0.466250548963
0.466078908068
0.465915829846
0.465760564047
0.465612297552
0.465470063706
0.465332722157
0.465198848688
0.46506690568
0.464934850989
0.464800570746
0.464661818602
0.464517219774
0.464363821302
0.464199362229
0.46402178286
0.463829635371
0.463621928773
0.463399024905
0.463162650834
0.462913670966
0.462652976222
0.462381797883
0.462101092331
0.461812256784
0.461516410156
0.461214419366
0.460907459058
0.460596717412
0.460283417717
0.459968876927
0.459654306391
0.459341079379
0.459030652385
0.458723865023
0.458421597975
0.458125289449
0.457835634643
0.457552301695
0.457276975523
0.457011045767
0.456752607591
0.456498350794
0.456252257383
0.45601905715
0.455789016511
0.455553039579
0.455319466547
0.455116215653
0.454893461523
0.454639169541
0.454383927536
0.454137375458
0.453888366915
0.45362679364
0.453391292653
0.453184606937
0.453028457379
0.452931472493
0.452842541628
0.452776618359
0.452746295079
0.452732072342
0.452667101926
0.45253575435
0.452401517905
0.452279746783
0.452162945201
0.452042073934
0.451920650363
0.451806438269
0.451699578296
0.451598427897
0.451501502079
0.451407686813
0.451316204075
0.45122628054
0.451137080882
0.451047946261
0.450959748993
0.450874648963
0.450794394812
0.45071873667
0.450645834472
0.450574679984
0.450505207912
0.450437604543
0.450371893164
0.450307920239
0.450245405188
0.450183980661
0.450123240776
0.450062841007
0.450002573037
0.449942341605
0.449882076434
0.449821615481
0.449760867801
0.449700029171
0.449639826163
0.449581280046
0.449524499668
0.449467976479
0.449410148254
0.449351194585
0.449292249967
0.449234298653
0.44917773263
0.449122497627
0.449068423392
0.449015316261
0.448963059634
0.448911522651
0.448860713302
0.44881068811
0.448761545699
0.448713408781
0.448666498073
0.448621037361
0.448577384716
0.448535867692
0.448496546586
0.448459455674
0.448424482671
0.448390953244
0.448357840332
0.448323354371
0.448284229206
0.448238081547
0.448183160685
0.448115734993
0.448032945208
0.447933323263
0.447815575103
0.447681282226
0.44753502732
0.447381283621
0.447220300611
0.447048855377
0.446851459558
0.446584742479
0.475827157826
0.475542295558
0.475414908154
0.475298073889
0.475168580763
0.475043318353
0.474902341713
0.474738999824
0.47455000505
0.474336093392
0.474099285427
0.473842600532
0.473569295263
0.473282614458
0.472985418097
0.472680328345
0.472369410898
0.472054622429
0.471737165495
0.471418160433
0.47109845117
0.470779038251
0.47046004525
0.470142705688
0.469827536472
0.469515456122
0.469207133505
0.468903856599
0.468606250264
0.468315459396
0.468032137488
0.4677573813
0.46749140666
0.467235045981
0.466988487922
0.466752160777
0.466525828978
0.466310069812
0.46610450175
0.465909201388
0.465723731201
0.465547822288
0.465380777478
0.465221907286
0.46507025281
0.464924838684
0.464784174602
0.464646585812
0.464510118464
0.464372219404
0.464229317413
0.464079733655
0.463920653216
0.463749218791
0.463563420068
0.463361772761
0.463143029941
0.462907995548
0.462658819316
0.462396731973
0.462123025209
0.461839076878
0.461546112451
0.461245351197
0.460937967824
0.460625286951
0.460308551247
0.459988959481
0.459668196978
0.459347575423
0.459028482927
0.458712135994
0.458400572969
0.458093946761
0.457792827437
0.457498971514
0.457213982945
0.456935464318
0.456662323842
0.456400356574
0.456150323802
0.455900122887
0.455652599077
0.455419855522
0.45518640613
0.454935968006
0.454687763764
0.454457503678
0.454245900393
0.454020511744
0.453784182005
0.453557543059
0.453330105945
0.453123491455
0.452960087537
0.45283158979
0.452735570705
0.452650610083
0.452560400158
0.452484856885
0.452426229817
0.452364492657
0.452271058336
0.452145567111
0.452016470762
0.451893763668
0.451775890523
0.45165972261
0.451546615068
0.451439714717
0.451339318691
0.451244478535
0.451154008665
0.451066965096
0.450982600791
0.450900201654
0.450819132485
0.450739217296
0.450661581131
0.450587943988
0.450519155959
0.450453933132
0.450390197999
0.4503272566
0.450265373731
0.450204994353
0.450146306612
0.45008925469
0.45003357361
0.449978861436
0.449924651275
0.449870550195
0.449816285973
0.449761749404
0.449706816491
0.449651344988
0.449595464107
0.449539788804
0.449485760717
0.449434438354
0.449385860096
0.449337805866
0.449288388624
0.449237526964
0.449186148875
0.44913519233
0.449085020642
0.449035698842
0.448987123699
0.448939239337
0.448891983364
0.448845339865
0.448799327409
0.448754030465
0.448709540716
0.448666008154
0.448623625231
0.448582596336
0.448543193382
0.448505626851
0.44846984373
0.448435749013
0.448402993302
0.448370632954
0.448337444031
0.448301590995
0.448259997286
0.448210281181
0.448150440028
0.448076749088
0.447986750626
0.447879086917
0.447752009997
0.447606286831
0.44744611147
0.447272712937
0.447084549011
0.44687570872
0.446624451899
0.446287987244
0.475711428741
0.475204984845
0.475083840808
0.475007136831
0.474912153823
0.474821141547
0.474709619455
0.474572228061
0.474406325932
0.474212414262
0.47399255503
0.473750077674
0.473487977546
0.47320962033
0.472917770869
0.47261524914
0.472304217678
0.471986760846
0.471664379532
0.471338792636
0.471010662439
0.470681212097
0.470351314823
0.470021905169
0.46969354091
0.469367702931
0.469045055378
0.46872679957
0.468413798968
0.468107303054
0.467808009805
0.46751694684
0.467234722426
0.466962184813
0.466699321407
0.466446961515
0.466205071621
0.465974024767
0.465753661384
0.465544251844
0.465345347274
0.465156821483
0.464977981014
0.464808223298
0.464646568814
0.464492086307
0.46434327604
0.464198504188
0.464055468961
0.46391143604
0.463762516751
0.463606567478
0.463440122367
0.463260075094
0.463063800772
0.462849577483
0.462616655534
0.46236817773
0.462105316447
0.461829994462
0.461543950232
0.461248737962
0.460945391642
0.460635017021
0.46031867795
0.459997716725
0.459673211013
0.459346459573
0.459019440076
0.458694571326
0.458372108326
0.458053838742
0.457742424695
0.457439004226
0.457140784982
0.456850134131
0.456571165103
0.45630257173
0.456036310733
0.455774532851
0.455534012925
0.455276422726
0.455015597427
0.454763547523
0.454527732042
0.4543054368
0.454076946685
0.45385805654
0.453648007636
0.453437818096
0.45323573958
0.453047313315
0.452869597569
0.452714617046
0.452585856057
0.452477887103
0.452385886221
0.452297044088
0.452206335676
0.452122206173
0.452044146768
0.451961634527
0.451863236936
0.451749982261
0.451633590693
0.451520023203
0.451410138393
0.451303368766
0.451200393609
0.451102526672
0.451010037946
0.450922438985
0.450838967102
0.450758941137
0.45068175439
0.450606841628
0.450533720003
0.45046265125
0.450394683569
0.450331192731
0.450272237161
0.450215876167
0.450160289002
0.450104950406
0.450050250523
0.449996700821
0.449944595315
0.449893936625
0.449844487572
0.44979583039
0.449747489115
0.44969903893
0.449650206386
0.449600841561
0.449550796388
0.449499961134
0.44944865457
0.44939804635
0.449349773558
0.449305166779
0.449263700991
0.449222895434
0.4491808062
0.449137109435
0.449092583501
0.449047995225
0.449003722436
0.44895984898
0.448916367125
0.448873290866
0.448830647138
0.448788482159
0.448746855851
0.448705854283
0.448665569708
0.448626130596
0.448587694459
0.448550406031
0.448514447165
0.448479899772
0.448446590641
0.448414289091
0.448382484424
0.448350094682
0.448315767225
0.448277653976
0.448232881685
0.448179153086
0.448114465744
0.448035344195
0.447939700533
0.447826368853
0.447693415862
0.44754086045
0.447371681304
0.447185540739
0.44697971675
0.446746634183
0.446463116729
0.446093351941
0.475498204544
0.474814128526
0.474698741882
0.474649202236
0.474575835074
0.474509039789
0.474420159627
0.474304082411
0.474157392544
0.473981268957
0.473777468326
0.473549080184
0.473298940347
0.473030324331
0.472745835326
0.472448344058
0.472139947115
0.471823031486
0.471499085323
0.471169724375
0.470836242645
0.470500051773
0.470161699072
0.469822702671
0.469483935554
0.469146492089
0.468811337115
0.468479912418
0.468153065244
0.467832107547
0.467517886168
0.467211632734
0.466913800556
0.466625346032
0.466346707542
0.466078514393
0.465820818378
0.4655743662
0.465339005251
0.465115021591
0.464902108585
0.4647002016
0.464508647833
0.464326899839
0.464153982524
0.463989136246
0.463830853148
0.463677586643
0.46352731541
0.463377338139
0.463222509816
0.463061189404
0.46288916354
0.46270219586
0.462496885447
0.462270839511
0.462024610223
0.461763109862
0.461487231525
0.461199757094
0.460902447058
0.46059726456
0.46028533586
0.459967269989
0.459643391386
0.459315920229
0.45898559011
0.458653163557
0.458321543717
0.457994374296
0.457672232432
0.457353791439
0.457043912414
0.456746245912
0.456456188151
0.456172262636
0.455898094154
0.455631029046
0.455357432089
0.455087786731
0.454827453353
0.454586155867
0.454359082108
0.454122781123
0.453894927645
0.45367641465
0.453468609225
0.453272616072
0.453087539413
0.45291000652
0.452740683385
0.452580714996
0.452432973697
0.452302583271
0.452188221445
0.452086516091
0.451993468119
0.451903117876
0.451813454544
0.451727369379
0.451643649314
0.45155735908
0.451463477268
0.45136259492
0.451259548339
0.451157753841
0.451058573742
0.450962380924
0.450869734936
0.450781290734
0.450697302873
0.450617530084
0.450541571852
0.450468964717
0.450399269911
0.450331973208
0.450266853326
0.450204323011
0.450145424322
0.450091064648
0.450040654216
0.449992286456
0.449944359851
0.44989647878
0.449848998873
0.449802404337
0.449756993787
0.449712798796
0.44966960129
0.449627001813
0.449584535042
0.449541781341
0.449498476029
0.449454427937
0.449409456186
0.449363490073
0.449317073834
0.449271724005
0.449229287514
0.449191037333
0.449155988641
0.449121690524
0.449086172785
0.449049070323
0.449010986259
0.448972503735
0.44893393684
0.448895338854
0.448856777564
0.448818309109
0.448780059536
0.448742109228
0.448704574305
0.448667528326
0.448631074575
0.448595304517
0.448560346856
0.448526282056
0.448493208667
0.448461100562
0.448429669902
0.448398563313
0.448367122569
0.448334167745
0.448298231876
0.44825749874
0.448209230776
0.448151264436
0.44808164213
0.447997203858
0.447896056052
0.447777261984
0.447638743932
0.447479963504
0.44730272751
0.447105763534
0.446885431753
0.446633342825
0.446327166644
0.445938495424
0.475172319293
0.474351477201
0.474215356406
0.474181448362
0.47412473198
0.474079878877
0.474011669501
0.473915362868
0.47378739118
0.473628421414
0.473440199529
0.47322610581
0.472988592101
0.4727309379
0.47245549714
0.472165144983
0.471861900818
0.471548053692
0.471225208514
0.470895416412
0.470559601337
0.47021930421
0.469875718184
0.469530029625
0.469183081764
0.468836558291
0.468491325896
0.46814875624
0.467809891639
0.467476151029
0.467148404221
0.466827840061
0.46651525711
0.466211673958
0.465917382027
0.465633379144
0.465359933823
0.465097616402
0.464846516159
0.464607062181
0.464378948831
0.464162176013
0.463956154656
0.463760382333
0.463573997629
0.463396307195
0.463226388006
0.463063138387
0.462904869825
0.462749469387
0.462592377525
0.46242963008
0.462256743386
0.462067827842
0.461857237127
0.461620780186
0.461362230113
0.46108749155
0.460798324868
0.460498235457
0.460189650776
0.459874906153
0.459556120876
0.459232115867
0.458903056468
0.458571238691
0.458238536222
0.457904338494
0.457570234005
0.457242983184
0.456925627421
0.45661353061
0.456307212025
0.456018078141
0.455722146292
0.455427403362
0.455144298987
0.454874121298
0.454624355057
0.45438750258
0.454143722611
0.45390997298
0.453687025034
0.453474344299
0.453271003414
0.453076517398
0.452891838894
0.452718589744
0.452558249894
0.452407586658
0.45226289918
0.452124467235
0.451995530625
0.451878355731
0.451771919528
0.451674413378
0.451583306006
0.451495571921
0.451409962554
0.451326833574
0.451245157683
0.45116234878
0.451076121585
0.450986612887
0.450895924665
0.450805936425
0.450717840963
0.450632265858
0.450549726895
0.450470689243
0.4503953866
0.450323767559
0.450255643906
0.450190747809
0.450128711668
0.450069106722
0.450011877059
0.449957499407
0.44990691163
0.449860643975
0.449817842368
0.449776782719
0.449736153308
0.449695586713
0.449655318428
0.449615737409
0.449577098712
0.4495394364
0.449502549693
0.449466077269
0.44942958415
0.449392701778
0.449355160156
0.44931675276
0.449277216436
0.449236548695
0.449195534588
0.449155844989
0.449119451554
0.449087264914
0.449058120841
0.449029685757
0.449000173728
0.448969219135
0.448937210888
0.448904595138
0.448871557291
0.448838145139
0.448804421557
0.448770499364
0.448736545739
0.448702694776
0.448669086532
0.448635805659
0.448602946175
0.448570576493
0.448538786062