/*--------------------------------*- C++ -*----------------------------------*\
| =========                 |                                                 |
| \\      /  F ield         | OpenFOAM: The Open Source CFD Toolbox           |
|  \\    /   O peration     | Version:  v1806                                 |
|   \\  /    A nd           | Web:      www.OpenFOAM.com                      |
|    \\/     M anipulation  |                                                 |
\*---------------------------------------------------------------------------*/
FoamFile
{
    version     2.0;
    format      ascii;
    class       volScalarField;
    location    "3";
    object      pa;
}
// * * * * * * * * * * * * * * * * * * * * * * * * * * * * * * * * * * * * * //

dimensions      [0 2 -2 0 0 0 0];


internalField   nonuniform List<scalar> 
12225
(
-0.460821275006
4.11186293465
4.6215917738
4.23858893832
4.18964818157
4.06396970832
4.01105458929
4.02322394258
4.13975833514
4.41056534813
4.94184549593
5.86233864963
7.1606316416
9.05275242153
11.6464410215
14.7312868032
17.4927023282
15.4846786206
27.3110970695
19.5801425322
18.6984345307
17.9370637697
17.2092267842
16.5085521314
15.8668792865
15.3344369548
14.9466814249
14.7623521518
14.8872482781
15.4030628418
16.246971142
17.5322602216
19.1507374188
20.6324167873
20.7570133036
15.5118971331
13.2462427039
13.4891533008
12.6899735369
12.0930385339
11.6398918524
11.2331052641
10.9310346154
10.7353608627
10.6819443224
10.8307568109
11.2755560314
12.0834005547
13.2548562639
14.7144469145
16.3047523173
17.5243582579
17.1012216228
12.4625380346
16.0783009657
14.9290448741
14.3595385222
13.7930205066
13.3755745147
12.9781632647
12.6804801377
12.4726105081
12.3957128693
12.4962636442
12.8344082208
13.4407733071
14.3033416493
15.3035213398
16.2427056354
16.6275525312
15.4455339442
11.4488319462
15.582779438
14.7254609854
14.3400271042
13.9287946949
13.6917481196
13.471438719
13.3541440089
13.3136381361
13.3835039281
13.5908633948
13.9643465162
14.5044591843
15.1725817892
15.8392597258
16.2855240289
16.0801060993
14.5441031413
11.2442703468
15.5588351021
14.769519405
14.5428767548
14.2237704688
14.0925594254
13.9679408205
13.945922143
13.9900730812
14.1296003095
14.3745758773
14.732576435
15.1834040861
15.6701763806
16.0601796719
16.1407602081
15.5734695298
13.965667177
11.277353997
15.493300318
14.7669362421
14.6821034469
14.4416144175
14.3941971324
14.34051744
14.383111679
14.4793127206
14.6528956556
14.9010262101
15.2167290008
15.5681065147
15.8872006992
16.0477351017
15.8651888859
15.0999682715
13.5587243254
11.3361610288
15.4075723378
14.7344636618
14.7702638004
14.593070386
14.6082614773
14.6033274225
14.6855942863
14.808464823
14.9900008647
15.2186123381
15.4771593775
15.7278051272
15.89841843
15.8767283724
15.5159854082
14.6616704125
13.2366408727
11.3911247714
15.296775322
14.6692851783
14.8067438606
14.6785085673
14.7391202485
14.7658374739
14.8697489906
15.0003101583
15.1719706577
15.3660475252
15.5606653509
15.7146063679
15.7590527521
15.5988034041
15.1267727905
14.2504903436
12.9640708372
11.3978774123
15.1615744205
14.5674211288
14.7890660637
14.6987852174
14.7927632264
14.8403596814
14.9545624488
15.0816560402
15.2331649139
15.3858847158
15.514767166
15.5803165327
15.5214454283
15.260771699
14.7267394237
13.8699512051
12.7146771456
11.3858130943
15.000563919
14.4099089746
14.6855589005
14.6255338973
14.7421233435
14.8032861635
14.9211129897
15.0410493817
15.1706526566
15.2840491699
15.3535327908
15.3456918842
15.2069886147
14.8809485781
14.3210077249
13.5078253304
12.480511711
11.3344993632
14.7923808057
14.1797346425
14.4776852236
14.433699474
14.5594536217
14.6220269531
14.7335956464
14.839298061
14.945183312
15.0227706222
15.0450117138
14.9820284621
14.7957834823
14.4347627475
13.881712622
13.1225162569
12.2038039766
11.2091136278
14.558718211
13.9191636903
14.2326062685
14.1892613111
14.3141609435
14.3660932357
14.4602256757
14.5394611739
14.6109227495
14.6451178739
14.6176088797
14.5102210002
14.2792325762
13.9090356349
13.3679299125
12.6777973431
11.8630145482
11.0086144805
14.289096376
13.6155055626
13.9552446384
13.9065639319
14.0265424197
14.0646851835
14.1351756439
14.1818773192
14.2079593466
14.188485229
14.1071577978
13.9457669515
13.683516453
13.2979442947
12.791758626
12.1652728663
11.4730280897
10.7387827145
13.9865241438
13.2631460931
13.6299055364
13.5759613955
13.6950757454
13.7196745295
13.7733066598
13.7882092156
13.7759404575
13.7042721467
13.5784796591
13.3701284755
13.0850193094
12.6958301108
12.2260507904
11.6711206824
11.0829881377
10.478368334
13.6850740212
12.8836675387
13.2655333586
13.2030449367
13.3136355341
13.3264380671
13.3561138594
13.3461687997
13.2926071569
13.1922447271
13.0212013061
12.7995754276
12.4903651705
12.129269644
11.6865835936
11.2193626724
10.7086312015
10.2212935493
13.4239816276
12.5191062732
12.8997010158
12.8159592118
12.9123203446
12.9027467282
12.9075388448
12.8642490132
12.7831040706
12.6489146024
12.4646075689
12.2226566667
11.9288182138
11.5802082305
11.1968085962
10.7814142586
10.3664424592
9.94276823883
13.1689942102
12.1786047469
12.5514120762
12.4400203697
12.5160243619
12.4796076663
12.4565644511
12.3821201187
12.2760647596
12.1210443232
11.9276991892
11.6845599492
11.4074272056
11.0870100631
10.7509896684
10.3906895393
10.0434535136
9.68378276708
12.9877783918
11.9529071205
12.308901702
12.1651502919
12.2110905226
12.1426841235
12.087218051
11.9828956692
11.8521988398
11.6810805206
11.4808817126
11.2425165158
10.9820467264
10.69050262
10.393198194
10.0799283527
9.78359280756
9.47836039604
13.0605544714
12.0409549354
12.3473506631
12.1634908447
12.174295334
12.0610824821
11.9773492026
11.8347231036
11.6867527052
11.4877249539
11.2834297738
11.0333167649
10.7841093864
10.4958134276
10.2225189728
9.92447497025
9.65945890212
9.37598767156
13.1227384152
12.1671362484
12.4462472021
12.2520991652
12.2279101199
12.0995791795
11.9803866137
11.8319145274
11.649610335
11.4519903628
11.2205745595
10.9815394002
10.7128365604
10.4466309439
10.1612891937
9.89461016565
9.62150147895
9.37554624671
13.1709380824
12.2941312903
12.5657902979
12.3567334371
12.3200198823
12.1680590215
12.0404270547
11.8709102949
11.6827388371
11.4684589696
11.2319667975
10.9832557682
10.7172028483
10.4462956041
10.1706583977
9.90366793151
9.64465954672
9.3960259751
13.271293177
12.4529961114
12.702099094
12.4878323526
12.4326162636
12.268051639
12.1246936111
11.9444510945
11.7451869552
11.5189018729
11.281638275
11.0227006406
10.7599748881
10.4817999018
10.2176987606
9.94232544377
9.6966404164
9.44026676784
13.404591428
12.641181854
12.8587968267
12.6278310469
12.5569714877
12.3781840975
12.2229122736
12.0307488035
11.8229899306
11.5941466288
11.3491678406
11.0923397098
10.8252862238
10.5558390943
10.2842915716
10.0180275072
9.75927531095
9.51222714147
13.5596216691
12.8687141254
13.0251310247
12.7826990244
12.6956415981
12.5009871816
12.3330855126
12.1328813378
11.9170870501
11.6819067768
11.4351374643
11.1817439303
10.9154278805
10.6492394644
10.3809635691
10.1138040333
9.84767274599
9.60075662572
13.5982178268
13.0547133957
13.1311741654
12.8714173517
12.7649862431
12.5636419676
12.3881896338
12.1790668312
11.955583352
11.7143171135
11.4632744508
11.2099424762
10.9502272167
10.68448957
10.4176492538
10.1476536333
9.87335128427
9.61443373064
14.7045230621
13.9279053745
13.9031247334
13.6055870743
13.4575224524
13.2241778855
13.0204694927
12.7895806879
12.5482636497
12.292853147
12.0332346446
11.7941100514
11.5418647914
11.2881440239
11.0339708069
10.7702377032
10.4991028967
10.2441597262
9.86996212557
11.9519314897
11.6760465876
11.3904461079
11.2434813382
11.034302179
10.8603338301
10.6606698688
10.4450717186
10.2056118696
9.96493728592
9.73898742958
9.49765668165
9.24095711725
8.97503549019
8.68697744046
8.36502695313
8.0254760661
30.2965389483
21.7848236559
21.214855828
20.8910994812
20.5962686533
20.2398968175
19.8812023706
19.4824694243
19.059827428
18.6151620709
18.1763508015
17.7557558839
17.3292502368
16.9011749385
16.4827920071
16.0648097336
15.6383584857
15.3953824261
-3.30833644933
2.03946506065
2.82070098909
2.56406910855
2.62596218317
2.53471541084
2.48677234868
2.39773139231
2.29300201326
2.17405221345
2.06464197159
1.96969000393
1.88426323743
1.82126518486
1.79957663909
1.83696892818
1.95249471686
1.93625346019
-2.51496717954
-2.51670209996
-2.51963284572
-2.52187845311
-2.5204556056
-2.51702489148
-2.51120672602
-2.50627620899
-2.5004831292
-2.49654084014
-2.49196018971
-2.48941870982
-2.48610329477
-2.48486341291
-2.48280370776
-2.48296169067
-2.48236515484
-2.48417178764
-2.48532785319
-2.48889213665
-2.49162297592
-2.49644721195
-2.50013067348
-2.50502715299
-2.50819632935
-2.5117663967
-2.51299442818
-2.51393802853
-2.51206958379
-2.5094261008
-2.50363126647
-2.49695172647
-2.48707975977
-2.47618957803
-2.46221581151
-2.44753890996
-2.43014935081
-2.4120240736
-2.3916868045
-2.37079127628
-2.34824189689
-2.32540146459
-2.30153686511
-2.2777343636
-2.25354477779
-2.22975086795
-2.20617226314
-2.183351675
-2.16115938931
-2.14007744923
-2.12042081677
-2.10301557792
-2.08854728683
-2.07706034083
-2.06811689473
-2.06136398713
-2.05609512831
-2.05189213381
-2.04781499302
-2.04411169551
-2.04094339424
-2.03849122853
-2.03628754902
-2.03453016195
-2.03280378792
-2.03108780104
-2.0295381184
-2.02818015589
-2.02713668865
-2.02662107927
-2.02645600033
-2.02711569058
-2.02822899595
-2.0302464133
-2.03270480974
-2.03638794295
-2.04044534138
-2.04561403889
-2.05121129942
-2.05793509273
-2.06495212061
-2.07283420069
-2.08099034888
-2.08975016101
-2.09897471082
-2.10842286752
-2.11873585287
-2.13011260779
-2.14138109028
-2.15482115336
-2.16606836044
-2.17761957677
-2.18842635477
-2.20435270826
-2.23030596512
-2.26786166081
-2.30852534131
-2.35510371848
-2.41858561933
-2.50777357641
-2.60734727215
-2.679632595
-2.76175306383
-2.85792413453
-2.9600501051
-3.05213929462
-3.12384909451
-3.18007542161
-3.23092136767
-3.2823794951
-3.33366566725
-3.38401102613
-3.43300113414
-3.48053567318
-3.52658685726
-3.57129059222
-3.61458694463
-3.65649456454
-3.69702377371
-3.73636284822
-3.774773492
-3.81230058323
-3.84891586621
-3.88464697207
-3.91950335397
-3.95367461348
-3.98722437813
-4.02027278038
-4.05278835371
-4.08479677143
-4.11621168215
-4.14701192645
-4.17707746611
-4.20635936842
-4.23471986528
-4.2621668179
-4.2885803925
-4.31396030373
-4.33838761795
-4.36195611363
-4.38501845332
-4.40699185433
-4.42823323295
-4.44820579008
-4.46743862212
-4.48552440065
-4.50295712755
-4.51923728573
-4.53482396802
-4.54916689632
-4.5627598038
-4.57510936698
-4.58674669923
-4.59715328198
-4.60702389172
-4.61591551375
-4.62467535964
-4.63293992499
-4.6417287755
-4.65077213562
-4.66112680722
-4.67249887015
-4.68617271421
-4.70189072719
-4.72102547691
-4.74325524106
-4.76989059638
-4.80058202188
-4.83641638622
-4.87679857712
-4.92304090963
-4.97456212916
-5.0328740617
-5.09719752684
-5.17111753639
-5.25100466315
-5.33543303104
-5.41774182693
-5.49174628794
-5.55572395936
-2.48916303644
-2.50329576126
-2.51297258424
-2.51772979742
-2.51861764755
-2.51711402994
-2.51252089707
-2.50743967462
-2.50134128213
-2.49665740159
-2.49204625956
-2.48964516781
-2.48784001515
-2.48862144568
-2.49022226097
-2.4945929277
-2.49985911122
-2.50796819749
-2.51692315203
-2.52853295949
-2.5408261782
-2.55528844856
-2.56994730432
-2.58607087062
-2.60170161348
-2.61786902644
-2.63300860321
-2.64801435902
-2.66135043407
-2.67402949768
-2.68473180388
-2.69451484024
-2.70203502917
-2.70851320976
-2.71287374547
-2.71619062962
-2.7175960978
-2.71807455224
-2.71691669541
-2.71495441697
-2.71177999894
-2.708050231
-2.7035601995
-2.6988171404
-2.69374900231
-2.68870611393
-2.68368144469
-2.67885992695
-2.67427355341
-2.6696862296
-2.66470360955
-2.65834338509
-2.65094776001
-2.64274359772
-2.63387719206
-2.624394513
-2.61414807514
-2.6029517692
-2.5895521689
-2.57411548353
-2.5564600275
-2.53725765069
-2.51687866958
-2.49581635838
-2.47448651914
-2.45330994875
-2.43259759741
-2.41273401713
-2.39398481336
-2.37663285203
-2.3607966309
-2.34663755592
-2.33406063124
-2.32338009062
-2.31428946776
-2.30697149032
-2.30114393551
-2.29685773318
-2.29377428057
-2.29194000933
-2.29082096949
-2.29027768499
-2.29005554462
-2.29008280564
-2.28974713203
-2.28852542832
-2.28712693401
-2.28591435982
-2.28355562647
-2.27537724322
-2.2665863959
-2.2589303051
-2.24694510147
-2.22982052759
-2.21770377702
-2.21549150014
-2.22942439978
-2.25048277448
-2.26927222407
-2.29448001341
-2.32161612469
-2.34873893303
-2.36449910089
-2.37712371896
-2.35635023978
-2.30543352124
-2.2603104202
-2.25704829672
-2.27132345064
-2.27970149275
-2.28294752818
-2.28231684564
-2.27886676741
-2.27311148813
-2.26561565888
-2.25662085151
-2.24639275155
-2.23498053953
-2.22262621873
-2.20973784424
-2.19673015278
-2.18380045716
-2.17099924982
-2.15828804763
-2.14578491648
-2.13361828906
-2.12195807786
-2.11088123982
-2.10045840558
-2.09068376894
-2.08155706896
-2.07301716289
-2.06500328687
-2.0573960334
-2.05009455918
-2.04301036049
-2.03605128989
-2.02921204781
-2.02257122788
-2.01647076683
-2.01099284875
-2.00598635224
-2.00133348803
-1.99695114955
-1.99299695125
-1.98951362452
-1.98659108233
-1.9841550754
-1.98223502281
-1.98074386443
-1.97974557564
-1.97909003025
-1.97879042973
-1.97877261398
-1.9792153391
-1.98012122745
-1.98179134667
-1.98430578882
-1.98809471227
-1.99321050719
-2.00049841118
-2.01038960235
-2.02376491334
-2.0410524223
-2.06335054691
-2.09121894829
-2.1257237588
-2.16711367486
-2.21626740042
-2.27322611233
-2.3386039649
-2.41168188523
-2.4921870692
-2.57732957479
-2.66000419591
-2.73202147837
-2.78383865444
-2.79746303804
-2.74559563505
-2.56599115941
-2.46300957569
-2.51279388331
-2.55423572012
-2.58087662564
-2.59671137859
-2.60709448954
-2.61375949574
-2.62031605949
-2.62658235505
-2.63499187471
-2.64473799292
-2.65778856514
-2.67284503965
-2.69172497641
-2.71287801074
-2.7380455591
-2.76551147867
-2.7969247582
-2.83051301082
-2.86778300326
-2.90674449701
-2.94879299678
-2.99202968215
-3.03735993109
-3.08306072026
-3.12996081132
-3.17639672736
-3.22310876262
-3.26864458269
-3.3137467658
-3.35711959402
-3.39954730738
-3.43995502955
-3.47909378251
-3.51605355287
-3.55169334021
-3.58522953923
-3.61733887087
-3.64755077603
-3.67643034575
-3.70366988913
-3.72975978653
-3.75453699799
-3.77838895353
-3.80124700882
-3.82336154611
-3.84473674636
-3.86547500247
-3.8855046753
-3.90480630926
-3.92325764403
-3.94028788921
-3.95485746487
-3.96647788053
-3.9750582137
-3.98065930759
-3.98342723136
-3.98388588914
-3.98286078529
-3.97939939742
-3.97281530646
-3.96302081882
-3.95009598807
-3.93439362656
-3.91608266358
-3.89548235295
-3.87297042749
-3.84887841573
-3.8235615013
-3.79738387582
-3.77060224366
-3.74363016366
-3.7167049297
-3.69006070222
-3.66396702199
-3.63868379081
-3.61418451255
-3.59059273151
-3.56782786904
-3.54586497137
-3.52451749773
-3.50355816699
-3.48277797732
-3.46210770261
-3.44130613332
-3.41958349704
-3.39725099962
-3.37554768895
-3.35185734572
-3.32276399642
-3.29025801302
-3.26030770608
-3.23454412915
-3.20738371543
-3.17500105932
-3.14153000648
-3.13050495835
-3.16736961741
-3.22729051998
-3.27618934975
-3.31192140513
-3.35106053189
-3.35929963196
-3.35548042342
-3.34137060958
-3.31176117618
-3.26776975014
-3.22791096798
-3.20938160914
-3.20221289455
-3.20035103785
-3.20093104573
-3.20261324093
-3.20465707102
-3.20675304805
-3.20863862618
-3.21021958237
-3.21131442641
-3.21208087061
-3.21279545347
-3.21380501025
-3.21515112797
-3.21670921136
-3.21831457509
-3.22001145779
-3.22190108273
-3.22412196976
-3.22675311173
-3.22984504402
-3.23339869136
-3.23739078767
-3.24175992905
-3.24641466042
-3.25121641774
-3.25604096884
-3.26076130677
-3.26533447804
-3.26981722694
-3.27440544919
-3.27952386358
-3.28515313275
-3.29121132089
-3.2972151173
-3.30321270122
-3.30908822676
-3.31505337899
-3.32097305703
-3.32695784837
-3.33281983831
-3.33864623073
-3.34424732748
-3.34968472195
-3.35485374987
-3.35981255868
-3.36434743684
-3.36845012173
-3.37184240661
-3.37439459411
-3.37569719468
-3.37551368025
-3.37343782392
-3.36908136789
-3.3618053387
-3.35105037299
-3.33605507414
-3.31619100023
-3.29098666544
-3.26018294808
-3.22434392345
-3.18422018009
-3.1413890245
-3.0982338756
-3.05851300961
-3.02509878815
-2.99602774024
-2.97144723545
-2.949951559
-2.92320448508
-2.87173804663
-2.74813165377
-2.45482475906
-2.55144388433
-2.63636633447
-2.68271253556
-2.70354584754
-2.71157947324
-2.71233885535
-2.71088090108
-2.70817479602
-2.70699141156
-2.70661825898
-2.70909730076
-2.71329970304
-2.72098107388
-2.7307619115
-2.74428355368
-2.75997283673
-2.77941951242
-2.80083921278
-2.82569350487
-2.85227876132
-2.88172316341
-2.91223493464
-2.94491124476
-2.97794273742
-3.01211702026
-3.04595337595
-3.0801310413
-3.11326646402
-3.14604028304
-3.17728569995
-3.20769384677
-3.2362007952
-3.26358148895
-3.28903650924
-3.31316995125
-3.33544191414
-3.35645564069
-3.37576966267
-3.3939224588
-3.41067835182
-3.42649263439
-3.44125217088
-3.45534497538
-3.46872678987
-3.48171414419
-3.49428337808
-3.50666609757
-3.51895672618
-3.53127031838
-3.54383702964
-3.55720222333
-3.57128577796
-3.5857392358
-3.60031082613
-3.61473794117
-3.62882878292
-3.64255227092
-3.65645167734
-3.67103322661
-3.68578611616
-3.70025946884
-3.71392109487
-3.72632472107
-3.73719029898
-3.74628724643
-3.75336022204
-3.75830899549
-3.76100514599
-3.76144978947
-3.75968671957
-3.75579655641
-3.74994481553
-3.74248649991
-3.73362773438
-3.72366742416
-3.71288959919
-3.70151158496
-3.68967398278
-3.67747645696
-3.66501227308
-3.65229256983
-3.63922946877
-3.62577567421
-3.61203424945
-3.59756798333
-3.58248736771
-3.56728789394
-3.55282947491
-3.53872353856
-3.5254932542
-3.51303639392
-3.50706057013
-3.51476410332
-3.53354210636
-3.55830177583
-3.581206859
-3.59955268846
-3.63084774824
-3.66649941827
-3.69494155401
-3.69566168162
-3.6455471573
-3.58273911166
-3.51851682908
-3.44978665396
-3.37661911755
-3.31052984441
-3.26268040783
-3.2295091487
-3.20582757106
-3.1880783791
-3.17398167193
-3.16219696164
-3.15183855135
-3.14238829592
-3.13345001093
-3.12479742162
-3.11652047187
-3.10890435767
-3.10221833335
-3.09637981918
-3.09107885962
-3.08604787068
-3.08121946839
-3.07664957114
-3.07242762699
-3.06862520543
-3.06527023635
-3.06236054983
-3.05984783909
-3.05765708903
-3.0556585679
-3.05369505697
-3.0516036237
-3.04926513265
-3.04670621254
-3.04411080843
-3.04189258398
-3.04048173519
-3.04001474485
-3.04016294092
-3.04053363796
-3.04097555155
-3.04148060441
-3.04210828938
-3.04285088157
-3.04369329893
-3.04458698753
-3.04549953981
-3.0463896818
-3.04723092134
-3.0480512706
-3.04885582581
-3.04965108652
-3.05043455937
-3.0512143705
-3.05197697798
-3.05272414229
-3.05343728059
-3.05398785105
-3.05423716669
-3.05407545606
-3.05329035477
-3.05161886225
-3.0486919887
-3.04420250013
-3.03779715148
-3.02945609063
-3.01908737747
-3.00685366504
-2.99322686863
-2.97909485748
-2.96399326592
-2.94587544643
-2.92359804437
-2.89416247483
-2.84982093652
-2.77472269788
-2.64082190525
-2.46900824271
-2.62688866631
-2.76376706401
-2.81837475763
-2.83368382498
-2.83292589512
-2.82481292295
-2.81538102107
-2.80547696494
-2.79756940733
-2.79121156505
-2.7880977346
-2.78720704974
-2.79006091694
-2.79538074056
-2.80461302982
-2.81629809027
-2.83178862623
-2.84957075588
-2.87091344381
-2.89405026371
-2.92023899458
-2.94778163283
-2.97752402166
-3.00793010524
-3.03981588379
-3.07160982394
-3.1040324032
-3.1357474108
-3.16740806671
-3.19784188508
-3.22767575629
-3.25601486118
-3.28339417286
-3.30908454588
-3.33370433241
-3.35666399551
-3.37845749688
-3.39875023451
-3.41797754027
-3.43591077688
-3.45295800266
-3.46898308083
-3.48434821338
-3.49897019038
-3.51314627256
-3.52684166458
-3.54028692513
-3.5534283128
-3.56648876038
-3.57949134717
-3.59242821081
-3.60522516227
-3.6176942045
-3.62964202302
-3.64096517867
-3.65159956742
-3.66156707769
-3.67072278851
-3.67922943413
-3.68720464164
-3.69469117958
-3.70170447245
-3.70830885959
-3.71440274159
-3.71993571038
-3.72480553222
-3.72889791192
-3.73204106659
-3.73413031107
-3.73500371018
-3.7346758246
-3.7331380727
-3.73044067761
-3.72675373966
-3.72223412096
-3.71700189763
-3.7112344707
-3.70500980652
-3.69837721902
-3.69147489812
-3.68433784795
-3.67679309102
-3.66894760856
-3.66100425124
-3.65304535036
-3.64521712444
-3.63711098099
-3.6295881099
-3.62850365957
-3.6335931241
-3.64378465665
-3.65981536271
-3.68565073323
-3.72233449592
-3.76221939956
-3.78828154236
-3.79038349318
-3.78681814561
-3.78482117063
-3.77355130012
-3.73797503674
-3.67351560949
-3.60143169254
-3.52952201366
-3.45793044113
-3.38816040862
-3.32615444791
-3.27734151294
-3.24066206038
-3.21313619069
-3.19194683962
-3.17502694773
-3.16095250168
-3.14874033581
-3.13779476143
-3.12760574581
-3.11805676929
-3.10919808521
-3.1014601697
-3.09499635768
-3.08970337334
-3.08512456175
-3.08094511819
-3.07700416802
-3.07332496414
-3.06996426337
-3.06698896313
-3.0644257639
-3.06226677973
-3.06045892151
-3.05890510208
-3.05745127795
-3.05591830556
-3.05410379696
-3.05192533776
-3.04945291906
-3.04703316638
-3.04521893893
-3.0444667466
-3.04495419198
-3.04617776642
-3.04782581189
-3.04957585889
-3.05150688742
-3.05352588585
-3.05572716506
-3.05797919689
-3.06034145036
-3.06267706254
-3.0650480957
-3.06732604464
-3.06960708672
-3.07177360819
-3.07391413383
-3.07589489636
-3.0777962391
-3.07945705105
-3.08093923087
-3.08203426919
-3.08269071652
-3.08257035285
-3.08157512123
-3.07928273094
-3.07553697942
-3.06985488739
-3.06207380656
-3.05178933841
-3.03912631677
-3.02397713586
-3.00682264077
-2.98799222527
-2.96826551135
-2.9468301287
-2.92248848586
-2.89329845616
-2.85596123511
-2.80252261391
-2.71981238694
-2.59107976505
-2.51572032108
-2.74927695735
-2.94003197348
-2.98536825391
-2.98600274127
-2.9734110063
-2.95626017482
-2.93911234784
-2.92265751455
-2.90889809765
-2.89709742621
-2.88876179932
-2.88292899427
-2.88090950128
-2.88155309621
-2.886090399
-2.89321176295
-2.90413498803
-2.9173531105
-2.93401713323
-2.95270572336
-2.97432091681
-2.99733052151
-3.02271840348
-3.04889484387
-3.07658322255
-3.10445692538
-3.13313462799
-3.16137895736
-3.18976105983
-3.21724320337
-3.24435343432
-3.27018160309
-3.29528713877
-3.31899882826
-3.34173310948
-3.36304407201
-3.38336847054
-3.40233631614
-3.42035609976
-3.43720309916
-3.45324708868
-3.46834446239
-3.48284092907
-3.49663476843
-3.51004497609
-3.52298031716
-3.53571894948
-3.54823995294
-3.56073351736
-3.57322566061
-3.58592398473
-3.59866424148
-3.61126280345
-3.62350264888
-3.63520629367
-3.64625200868
-3.65666550522
-3.66642957344
-3.67544466735
-3.68365682279
-3.6911148148
-3.69785008103
-3.70386220093
-3.70919115528
-3.71386078324
-3.71781579613
-3.72106185786
-3.72350570488
-3.72514526081
-3.72593758612
-3.72589142663
-3.72502257303
-3.72348603635
-3.72136537898
-3.71875194176
-3.71575429749
-3.71251594453
-3.70909536367
-3.7054744614
-3.70171549878
-3.69805148069
-3.69449061056
-3.69085251131
-3.68708576003
-3.68409530799
-3.68263826386
-3.68251272123
-3.68464942023
-3.69029261483
-3.70342692831
-3.72329724942
-3.74901006877
-3.77797328251
-3.80705419145
-3.82994664564
-3.83733956552
-3.82538501047
-3.80535761122
-3.78142986916
-3.74892994009
-3.70153752898
-3.64044520267
-3.57538507632
-3.51075072079
-3.44769359651
-3.38773471466
-3.33404486867
-3.28936144301
-3.25363894112
-3.22540713529
-3.20280698235
-3.18429960353
-3.16861723898
-3.15492745769
-3.14256177767
-3.13111838712
-3.12045074666
-3.11078120186
-3.10248250084
-3.09574986514
-3.09034822509
-3.08581430227
-3.08175218028
-3.07796937995
-3.07442288706
-3.0711540921
-3.06820213526
-3.06559798113
-3.06331722025
-3.06130690415
-3.05944159968
-3.05756100941
-3.05544582117
-3.05290613747
-3.04986716976
-3.04650789682
-3.04329966512
-3.04086124519
-3.03973206599
-3.03992105958
-3.04101883852
-3.04260154721
-3.04442283111
-3.0464333558
-3.04859426854
-3.05089557879
-3.05327779345
-3.05571554364
-3.058157296
-3.06058407692
-3.06295773348
-3.06527511206
-3.06750503462
-3.06963847459
-3.07163309746
-3.07346809605
-3.0750763753
-3.0764107909
-3.07734980634
-3.07775591787
-3.07740450375
-3.07609126766
-3.07350341176
-3.06937071253
-3.06332080257
-3.0550722331
-3.04431485209
-3.03099654682
-3.01506556164
-2.9967916203
-2.97642675934
-2.95430101879
-2.92967626151
-2.90144065921
-2.86755859534
-2.82457359956
-2.76547003467
-2.67989792701
-2.55873128953
-2.60267703704
-2.92253689997
-3.15967928573
-3.17604163882
-3.15891239682
-3.13516292222
-3.1100053867
-3.08640977392
-3.06418183482
-3.04467992561
-3.02753018936
-3.0138391127
-3.00288900076
-2.99569497542
-2.99131599302
-2.99071723279
-2.99280241569
-2.99847917917
-3.0066057672
-3.01806009097
-3.03145660803
-3.04774151367
-3.06557496875
-3.08561375762
-3.1066267163
-3.12929070269
-3.15231255796
-3.1762926541
-3.20011982764
-3.22430832378
-3.24788365571
-3.27130386527
-3.2938285461
-3.31582529288
-3.33669418772
-3.35686484599
-3.37585364019
-3.3940183686
-3.41105898075
-3.42731053337
-3.44254833666
-3.45710665972
-3.47082831323
-3.48404134894
-3.49662956881
-3.50890516326
-3.52078614889
-3.53256223819
-3.54415566183
-3.55585552941
-3.56768168336
-3.57987029805
-3.59229891022
-3.60477904208
-3.61699518344
-3.6287300895
-3.6398519248
-3.65035880902
-3.66018820638
-3.66920609575
-3.67741379715
-3.68480509438
-3.69144686638
-3.6974023598
-3.70266509548
-3.70723914557
-3.71108160751
-3.71419182775
-3.71649920016
-3.71803134353
-3.71877760212
-3.71884956735
-3.71828620468
-3.71723463891
-3.71590309529
-3.71439009576
-3.71266381235
-3.71096122224
-3.70944853039
-3.70796357338
-3.7064589938
-3.7051989496
-3.70445502614
-3.70420037261
-3.70441449039
-3.70551030508
-3.7078216891
-3.7120553439
-3.71820739089
-3.72815077246
-3.74226687427
-3.76007103073
-3.78040805031
-3.7997815913
-3.8148002752
-3.82129679918
-3.81530730511
-3.79623305718
-3.76950722365
-3.73714447951
-3.69808736852
-3.65085912443
-3.59737504071
-3.54210378599
-3.48726825994
-3.43401811041
-3.3833849511
-3.33733594474
-3.2973093074
-3.26374271285
-3.23589396325
-3.21276992357
-3.19322254927
-3.17635090404
-3.16141031223
-3.14780321899
-3.13521180465
-3.12352508424
-3.11308356906
-3.10420949426
-3.09708958102
-3.09141682365
-3.08673024517
-3.08260048336
-3.07880025195
-3.07524768242
-3.07194445407
-3.06892205664
-3.06618495097
-3.06371608744
-3.06143336652
-3.05921388704
-3.05686762604
-3.05416987742
-3.05093910534
-3.04713932714
-3.04304977831
-3.03922411153
-3.03634037683
-3.0349037787
-3.03484084494
-3.03580121762
-3.03731465935
-3.03920445175
-3.04131900166
-3.04365555015
-3.04611292649
-3.0486786104
-3.05126801675
-3.05388127419
-3.0564555582
-3.05899854348
-3.0614582038
-3.06384139999
-3.06608960512
-3.06819793112
-3.07009095722
-3.07173885548
-3.07303112144
-3.07388553414
-3.07411056557
-3.0735403785
-3.07190710251
-3.06896451541
-3.06436934813
-3.05782395985
-3.04896326627
-3.03755796837
-3.02341580401
-3.00655618994
-2.98703253718
-2.9651029033
-2.94070876955
-2.91330833162
-2.88163014181
-2.84384959135
-2.79638577929
-2.73344067785
-2.64686251482
-2.53211443863
-2.73343473114
-3.14103792303
-3.40866456184
-3.38098322098
-3.34897396595
-3.31651371316
-3.28503959778
-3.255421597
-3.2276447753
-3.20270528691
-3.18024124262
-3.16119342874
-3.14504703281
-3.13255786235
-3.12300535053
-3.1170771465
-3.11389697473
-3.11416568935
-3.11683031265
-3.12257509709
-3.13041326265
-3.1408912093
-3.15291588659
-3.16716017021
-3.18246332499
-3.19934512192
-3.2168230416
-3.23535469689
-3.25400182026
-3.27317400368
-3.29206757755
-3.31104650049
-3.32939902328
-3.34749756956
-3.36479948976
-3.38159429935
-3.39749645679
-3.41281454887
-3.42722608744
-3.44102841637
-3.45399586038
-3.46641875408
-3.47813764036
-3.48944847774
-3.50023675794
-3.51080388946
-3.52106470896
-3.53131361497
-3.54151996451
-3.55195663331
-3.56267883823
-3.57402375956
-3.58591347759
-3.59812501314
-3.61025430764
-3.62197277709
-3.63314992909
-3.64370355058
-3.65349566654
-3.66239283649
-3.67041097542
-3.67760017732
-3.68406931551
-3.68988636046
-3.69509269391
-3.69967615729
-3.70358014466
-3.70679490373
-3.70922004602
-3.71087917975
-3.71182385228
-3.71221413707
-3.712052467
-3.7114971887
-3.7108717208
-3.71033072977
-3.70966574093
-3.70895249488
-3.70854866009
-3.70843572407
-3.70847634215
-3.70890077832
-3.70996276664
-3.71164704811
-3.71402671313
-3.71724994259
-3.72139803123
-3.72649724996
-3.73288447097
-3.74097724793
-3.7513221121
-3.76320238317
-3.77481222201
-3.78384940467
-3.78747671807
-3.78375491298
-3.77062161827
-3.74865984403
-3.71987800812
-3.68591458683
-3.64706445541
-3.60389887672
-3.55804495236
-3.51151529823
-3.46550224309
-3.42064505786
-3.37776481648
-3.33798518833
-3.30231050031
-3.27116546534
-3.24433020581
-3.22126082934
-3.20122851116
-3.18360076876
-3.16775109869
-3.15321268661
-3.13968637737
-3.127226688
-3.11613437198
-3.10679026664
-3.09926309511
-3.09325768805
-3.08830131916
-3.08398751593
-3.08006011132
-3.07641098165
-3.07300920809
-3.06986380763
-3.06696374072
-3.06427875181
-3.061714941
-3.05914049758
-3.05634758746
-3.05311914246
-3.04927738821
-3.04487057599
-3.04023634863
-3.03599902429
-3.03283465777
-3.03114675067
-3.03086300304
-3.03162508249
-3.03304738121
-3.03492726569
-3.0371243898
-3.03958244522
-3.04219458632
-3.04491369688
-3.04766073959
-3.05041804833
-3.05313755447
-3.05581144889
-3.05840024321
-3.06088978786
-3.06323302799
-3.06539973736
-3.06732422364
-3.06894692481
-3.07016623742
-3.0708700775
-3.07088790416
-3.07003165083
-3.06805826785
-3.06469895282
-3.05963795869
-3.05254929796
-3.04309553985
-3.03100200818
-3.01607860849
-2.99825809706
-2.97755241946
-2.9540525581
-2.92759964102
-2.89760189396
-2.86286287791
-2.82158311736
-2.77051191206
-2.70472992646
-2.61798333478
-2.50805912054
-2.90485066292
-3.38958413854
-3.66713581145
-3.58963332713
-3.54934238455
-3.50964502059
-3.4721444869
-3.43689177411
-3.40367321409
-3.37305149441
-3.34526172284
-3.32084720458