/*--------------------------------*- C++ -*----------------------------------*\
| =========                 |                                                 |
| \\      /  F ield         | OpenFOAM: The Open Source CFD Toolbox           |
|  \\    /   O peration     | Version:  v1806                                 |
|   \\  /    A nd           | Web:      www.OpenFOAM.com                      |
|    \\/     M anipulation  |                                                 |
\*---------------------------------------------------------------------------*/
FoamFile
{
    version     2.0;
    format      ascii;
    class       surfaceScalarField;
    location    "3";
    object      phia;
}
// * * * * * * * * * * * * * * * * * * * * * * * * * * * * * * * * * * * * * //

dimensions      [0 3 -1 0 0 0 0];
oriented        oriented;


internalField   nonuniform List<scalar> 
24170
(
-3.28789321856e-09
3.22124571493e-07
2.05758473492e-07
-2.05878339743e-07
2.11266281288e-07
-9.07227150771e-09
1.82506020081e-07
2.68021324427e-08
1.73495918745e-07
4.18428628176e-09
1.61853219634e-07
9.46343380555e-09
1.51997479137e-07
5.72425472756e-09
1.43835849081e-07
5.85902493001e-09
1.36387334715e-07
4.18391508512e-09
1.33792907684e-07
2.44643098229e-10
1.36494296744e-07
-5.28930620552e-09
1.53200898088e-07
-1.87258073394e-08
1.72853699391e-07
-2.10237660281e-08
2.13847504419e-07
-4.16907669843e-08
2.75306988489e-07
-6.08020170227e-08
3.62425544119e-07
-8.46362359745e-08
4.91411079493e-07
-1.23480854789e-07
-4.1343471556e-07
9.10293265857e-07
7.11628563128e-07
-1.41763719378e-08
3.46559364267e-07
1.82293961506e-07
3.33287757249e-07
1.82764751247e-08
3.22073709049e-07
5.10105586735e-08
2.99827443518e-07
3.59562002504e-08
2.82256264481e-07
3.69942180905e-08
2.64163088932e-07
3.15773336354e-08
2.51986728052e-07
2.59882532614e-08
2.45751235719e-07
1.70296467005e-08
2.47277283896e-07
5.03343623551e-09
2.56153030589e-07
-8.90037602382e-09
2.72289705362e-07
-3.03279396735e-08
2.91651510374e-07
-3.67175885331e-08
3.24868087814e-07
-7.2145948201e-08
3.6484251287e-07
-9.83554401643e-08
4.14424318019e-07
-1.31485539222e-07
5.04892166812e-07
-2.0941956436e-07
-5.34467119385e-07
6.27625818132e-07
2.93474323415e-07
5.32479805886e-08
3.48806746493e-07
1.21363264357e-07
3.18666358692e-07
4.21277985646e-08
3.01361203213e-07
6.41240594427e-08
2.83862596939e-07
4.78435855086e-08
2.70434694983e-07
4.66550152528e-08
2.5828332632e-07
3.89227754115e-08
2.50234202632e-07
3.04235538423e-08
2.45335550256e-07
1.79668162358e-08
2.44710014734e-07
2.37223131143e-09
2.49238526509e-07
-1.66068410046e-08
2.57212593362e-07
-4.08702032343e-08
2.75306981758e-07
-5.66946440885e-08
2.98346012923e-07
-9.63311526694e-08
3.30593521848e-07
-1.30754968605e-07
3.79610338404e-07
-1.79615616953e-07
4.59911508998e-07
-2.87739092219e-07
-5.58437881654e-07
4.82831835292e-07
4.212341054e-07
3.63942020631e-08
3.91329867347e-07
1.59072495894e-07
3.71326672417e-07
6.81753229344e-08
3.58385814263e-07
8.36359542852e-08
3.43646277784e-07
6.77508344027e-08
3.32011754858e-07
6.38626049536e-08
3.2115487436e-07
5.42804837906e-08
3.13275009951e-07
4.28218602503e-08
3.078943331e-07
2.70798589375e-08
3.05988814852e-07
7.6171188967e-09
3.08125893418e-07
-1.61490990541e-08
3.13541728954e-07
-4.42170741027e-08
3.28682896647e-07
-7.02897301943e-08
3.46773283133e-07
-1.13244120998e-07
3.74103574417e-07
-1.56997316315e-07
4.15863768748e-07
-2.20023134565e-07
4.67987805055e-07
-3.38151540716e-07
-5.38359187842e-07
4.48484295234e-07
4.34407771195e-07
1.62431278847e-08
4.25511305965e-07
1.61594312444e-07
4.05500781202e-07
8.27095092033e-08
3.95749294719e-07
8.97850292701e-08
3.84656531777e-07
7.45962739152e-08
3.76715858311e-07
6.86445096443e-08
3.69802528137e-07
5.74638088318e-08
3.65331710512e-07
4.42314497783e-08
3.62837365391e-07
2.63784193524e-08
3.63078780504e-07
4.61140543332e-09
3.66336659646e-07
-2.20100713184e-08
3.72656831396e-07
-5.26328884444e-08
3.85913091408e-07
-8.50971827335e-08
4.0163831263e-07
-1.29920638803e-07
4.24861398222e-07
-1.80553846651e-07
4.56594776398e-07
-2.51514816626e-07
4.82412527099e-07
-3.63300816414e-07
-5.06879064206e-07
4.49404557891e-07
4.68092992686e-07
-8.76341686113e-10
4.63229708751e-07
1.65981815782e-07
4.46479663473e-07
1.00289300587e-07
4.39250673007e-07
9.90778995448e-08
4.3117106258e-07
8.47109296172e-08
4.25858407828e-07
7.62384187178e-08
4.21682918697e-07
6.36189627326e-08
4.19506900193e-07
4.82381968478e-08
4.19049563624e-07
2.83350024856e-08
4.20750733328e-07
4.03094870963e-09
4.24763987705e-07
-2.52206995932e-08
4.31363479802e-07
-5.86990675045e-08
4.42673865179e-07
-9.59717858608e-08
4.56166991902e-07
-1.43033311393e-07
4.74351143894e-07
-1.98304942106e-07
4.94576550159e-07
-2.71165104675e-07
5.00637589739e-07
-3.68851121612e-07
-4.70678610099e-07
4.65504435696e-07
5.03444701003e-07
-2.64091252138e-08
5.0135961707e-07
1.62680652723e-07
4.88485819965e-07
1.09104339277e-07
4.83485203749e-07
1.01183746214e-07
4.7815743106e-07
8.71765159863e-08
4.75251913045e-07
7.66617515305e-08
4.73492039195e-07
6.28076080954e-08
4.73397928024e-07
4.59307117351e-08
4.74723356e-07
2.47080861349e-08
4.7767676964e-07
-1.06993264686e-09
4.82277302148e-07
-3.1687400817e-08
4.88805678181e-07
-6.67172979132e-08
4.98281171311e-07
-1.06491731561e-07
5.09127978401e-07
-1.54536880394e-07
5.21570471448e-07
-2.11065489418e-07
5.30969116722e-07
-2.80557730179e-07
5.24740041622e-07
-3.61789263584e-07
-4.38500617207e-07
4.89700114807e-07
5.40991680865e-07
-5.27848075768e-08
5.40450872412e-07
1.60214342299e-07
5.31803580549e-07
1.16347472226e-07
5.28767347264e-07
1.04052625758e-07
5.25887345641e-07
9.01876494902e-08
5.25017067235e-07
7.79605637086e-08
5.25239075924e-07
6.28325470463e-08
5.26857904867e-07
4.45658914252e-08
5.29589085127e-07
2.19453113509e-08
5.33518900126e-07
-5.06674327274e-09
5.38502636504e-07
-3.68786860141e-08
5.44704006314e-07
-7.30650505518e-08
5.52396222383e-07
-1.14278432454e-07
5.60267383985e-07
-1.62386553733e-07
5.66967989294e-07
-2.17745599178e-07
5.67897483125e-07
-2.81095266985e-07
5.53626254816e-07
-3.48566814199e-07
-4.05435567711e-07
5.20635157054e-07
5.8048084198e-07
-8.25266382146e-08
5.80689322702e-07
1.56164985007e-07
5.76486234697e-07
1.17639079051e-07
5.75156830451e-07
1.03171957534e-07
5.7447153525e-07
8.88243313544e-08
5.75317804182e-07
7.5231156322e-08
5.7718994974e-07
5.90705047357e-08
5.80158132596e-07
3.97685880357e-08
5.8399699241e-07
1.63594214344e-08
5.88608423146e-07
-1.12695457695e-08
5.93764329375e-07
-4.33177023186e-08
5.9936672716e-07
-7.96269396826e-08
6.05242745657e-07
-1.20807614775e-07
6.09949141364e-07
-1.67536811673e-07
6.11557837924e-07
-2.19597542391e-07
6.0586800151e-07
-2.75639593355e-07
5.87746361135e-07
-3.30261793348e-07
-3.76119037517e-07
5.55352619703e-07
6.21647243693e-07
-1.12161956917e-07
6.2176540892e-07
1.53466867779e-07
6.22125036985e-07
1.15857974374e-07
6.22310600684e-07
1.02345644021e-07
6.23699349546e-07
8.72573905343e-08
6.26129014609e-07
7.27434084173e-08
6.2948712911e-07
5.572532247e-08
6.33644025866e-07
3.54920903702e-08
6.38374236041e-07
1.15081244644e-08
6.43468666573e-07
-1.64589804503e-08
6.48563478614e-07
-4.84655886434e-08
6.53324586212e-07
-8.45519245332e-08
6.57322774182e-07
-1.24702578251e-07
6.58911962659e-07
-1.69152767984e-07
6.56156426531e-07
-2.16673282768e-07
6.46054054198e-07
-2.65242468353e-07
6.25076331486e-07
-3.10580150271e-07
-3.45918928391e-07
5.94383985401e-07
6.64254510573e-07
-1.42238168863e-07
6.64349119046e-07
1.50588179211e-07
6.679472836e-07
1.10254603568e-07
6.69820878652e-07
9.90076665305e-08
6.7299301057e-07
8.28143571134e-08
6.77005211879e-07
6.76887031498e-08
6.817146745e-07
4.99605099231e-08
6.86990835951e-07
2.93102617226e-08
6.92506220099e-07
5.16754698804e-09
6.98058083345e-07
-2.25549418385e-08
7.02968237719e-07
-5.38941155919e-08
7.06806887836e-07
-8.83728460222e-08
7.08842886308e-07
-1.26879811961e-07
7.0759911605e-07
-1.67645503168e-07
7.0135893173e-07
-2.10283356833e-07
6.87957009036e-07
-2.51639686548e-07
6.66161776015e-07
-2.88391872203e-07
-3.17777233519e-07
6.36023570217e-07
5.90120462517e-07
-1.60475848802e-07
5.94101596517e-07
1.44647644799e-07
5.97467395612e-07
1.0537057141e-07
6.00973989068e-07
9.45410936771e-08
6.04730963315e-07
7.81742484476e-08
6.09136046724e-07
6.26411564024e-08
6.13897126326e-07
4.44200703927e-08
6.19074821502e-07
2.34976242632e-08
6.2426421318e-07
-6.41077125764e-10
6.29119229942e-07
-2.77914362851e-08
6.33032289213e-07
-5.77339967765e-08
6.35229816234e-07
-9.16537080999e-08
6.35717820135e-07
-1.27175710957e-07
6.32676371244e-07
-1.65442645415e-07
6.25554751461e-07
-2.02916101181e-07
6.12787756795e-07
-2.39254709922e-07
5.93607711258e-07
-2.70628484985e-07
-2.9485320716e-07
5.69536197183e-07
7.09776974671e-07
-1.72696490593e-07
7.16208581845e-07
1.36552640345e-07
7.20880277387e-07
9.97477157842e-08
7.25855972949e-07
8.8691370159e-08
7.3105629204e-07
7.25244046364e-08
7.36864689931e-07
5.62386598698e-08
7.43009367339e-07
3.79919294453e-08
7.49264143726e-07
1.68420830392e-08
7.55368538849e-07
-6.76073534374e-09
7.60986958296e-07
-3.30456364518e-08
7.64563761841e-07
-6.26568019837e-08
7.66705466842e-07
-9.37585844266e-08
7.65437685695e-07
-1.27444207224e-07
7.60984332483e-07
-1.60963709767e-07
7.51056862015e-07
-1.9439938396e-07
7.35967686799e-07
-2.24740018661e-07
7.1444105071e-07
-2.50891854178e-07
-2.70397166794e-07
6.8872327207e-07
8.53440662145e-07
-1.74372839196e-07
8.62674489893e-07
1.26368227737e-07
8.70002863457e-07
9.10176931378e-08
8.76811959432e-07
8.1296183701e-08
8.83518876785e-07
6.47001158445e-08
8.90563620203e-07
4.8814519709e-08
8.97533709439e-07
3.01293637753e-08
9.04576207708e-07
9.68025301334e-09
9.11147109869e-07
-1.35424240252e-08
9.16088204347e-07
-3.89565896407e-08
9.19227640164e-07
-6.65259694474e-08
9.19417863698e-07
-9.54964566664e-08
9.16676072486e-07
-1.25534249894e-07
9.0931936616e-07
-1.54933108842e-07
8.97411882538e-07
-1.83124265257e-07
8.79411732619e-07
-2.08270367355e-07
8.56712844003e-07
-2.29300524396e-07
-2.45199205291e-07
8.29080450796e-07
1.02346006312e-06
-1.58846935655e-07
1.03734623719e-06
1.10811313606e-07
1.04775764776e-06
7.99595422622e-08
1.05676000026e-06
7.06743039925e-08
1.06591251354e-06
5.50262833821e-08
1.07431951476e-06
3.88180680248e-08
1.08291992824e-06
2.11874193696e-08
1.09032796251e-06
9.59164490725e-10
1.09698105129e-06
-2.06545301453e-08
1.10093864058e-06
-4.46976538132e-08
1.10279155263e-06
-6.93724326015e-08
1.10062560994e-06
-9.56297058102e-08
1.09584184515e-06
-1.2085517047e-07
1.08548522596e-06
-1.46187074884e-07
1.07123190951e-06
-1.6876769853e-07
1.05092995848e-06
-1.89355420966e-07
1.02664808657e-06
-2.05421232736e-07
-2.17977922764e-07
9.98927914444e-07
1.22813049838e-06
-1.21099977284e-07
1.24677220174e-06
9.12350600719e-08
1.25946886619e-06
6.54288960945e-08
1.27178801267e-06
5.74618848216e-08
1.28277514017e-06
4.2300426729e-08
1.29351698656e-06
2.73898531593e-08
1.30261441497e-06
1.03471377799e-08
1.3111220421e-06
-7.95544034483e-09
1.3165542762e-06
-2.81009343872e-08
1.32026358872e-06
-4.89815648212e-08
1.31904243475e-06
-7.09668358507e-08
1.31632246978e-06
-9.23450628924e-08
1.30726320328e-06
-1.13935666518e-07
1.29605603264e-06
-1.33637967712e-07
1.27773957498e-06
-1.52096260797e-07
1.25744004203e-06
-1.67403196301e-07
1.23052687563e-06
-1.80183067479e-07
-1.89349075164e-07
1.20368540327e-06
1.48091516722e-06
-5.80282819587e-08
1.49992676826e-06
7.01802374133e-08
1.5145865417e-06
4.92675026768e-08
1.52907133379e-06
4.15734028285e-08
1.54223720067e-06
2.7962411e-08
1.55404803418e-06
1.44561825913e-08
1.56417314403e-06
-6.78601312012e-10
1.57204636255e-06
-1.68301171556e-08
1.57709806871e-06
-3.4003840264e-08
1.5784531212e-06
-5.16800292011e-08
1.57644443618e-06
-6.94398576544e-08
1.57002468295e-06
-8.68894125082e-08
1.55988557731e-06
-1.0360135401e-07
1.54473436311e-06
-1.190522436e-07
1.52604645644e-06
-1.32756248172e-07
1.50271014834e-06
-1.44387405005e-07
1.47715762453e-06
-1.53620615454e-07
-1.60597154577e-07
1.44782506283e-06
1.78522777553e-06
3.81832627889e-08
1.80777253098e-06
4.59697902635e-08
1.82339244906e-06
3.23375101336e-08
1.83952798862e-06
2.40670747139e-08
1.85404701459e-06
1.2674413287e-08
1.86622681604e-06
1.15805324561e-09
1.87650643063e-06
-1.13298298604e-08
1.88316183142e-06
-2.45018452433e-08
1.88717811054e-06
-3.81157875068e-08
1.88630102426e-06
-5.19628913732e-08
1.8826138237e-06
-6.5575776806e-08
1.87338201578e-06
-7.87824232525e-08
1.86145036885e-06
-9.1158434935e-08
1.84380051148e-06
-1.02468069676e-07
1.8241134217e-06
-1.12320981896e-07
1.79923049625e-06
-1.206273775e-07
1.77382341971e-06
-1.2716582603e-07
-1.32105029977e-07
1.74381465695e-06
2.1670680628e-06
1.66210534044e-07
2.1956469344e-06
1.61481492488e-08
2.21127306848e-06
1.52702446862e-08
2.22796328249e-06
6.25533405048e-09
2.24194236038e-06
-2.38884175e-09
2.25303272358e-06
-1.11185399514e-08
2.26166834816e-06
-2.06840646555e-08
2.26584532479e-06
-2.9955862788e-08
2.26717677017e-06
-3.9912688156e-08
2.26322596978e-06
-4.92727562108e-08
2.25653386006e-06
-5.88989937763e-08
2.24413366872e-06
-6.76203402472e-08
2.22944861225e-06
-7.61242678737e-08
2.2092612605e-06
-8.33828239158e-08
2.18761115467e-06
-9.00278449622e-08
2.16111784228e-06
-9.52129553475e-08
2.13468592937e-06
-9.95546211374e-08
-1.02434571374e-07
2.10374637164e-06
1.61763176648e-06
2.31486949448e-07
1.62697536641e-06
6.91887720169e-09
1.63593699245e-06
7.50883358542e-09
1.64279024035e-06
-2.29197061743e-09
1.64986130737e-06
-8.9892997226e-09
1.65334085925e-06
-1.68444412907e-08
1.65702074232e-06
-2.38243072219e-08
1.65577089514e-06
-3.16269989086e-08
1.65521577771e-06
-3.82479640385e-08
1.64875570942e-06
-4.57939446308e-08
1.64326845059e-06
-5.21778137131e-08
1.63195797231e-06
-5.90693394572e-08
1.62182794163e-06
-6.46247472238e-08
1.6060304107e-06
-7.03797166268e-08
1.59194503009e-06
-7.46023753916e-08
1.57271865776e-06
-7.87828036795e-08
1.55598369929e-06
-8.13797987131e-08
-8.38215629202e-08
1.53474950431e-06
1.42718482257e-06
2.69294359151e-07
1.43493415432e-06
7.46520409207e-10
1.44082572508e-06
1.04395712784e-09
1.44566375332e-06
-6.78934562033e-09
1.448055187e-06
-1.2967070993e-08
1.45009267538e-06
-1.84229297813e-08
1.4493797355e-06
-2.44764069279e-08
1.44839566799e-06
-2.96505656839e-08
1.44389134851e-06
-3.52401625064e-08
1.43894987866e-06
-4.01955166975e-08
1.43066452045e-06
-4.52555547945e-08
1.42224106131e-06
-4.98556360024e-08
1.41039566257e-06
-5.43930312778e-08
1.39899813229e-06
-5.80929538416e-08
1.38408700206e-06
-6.15459362405e-08
1.3704522704e-06
-6.40989591359e-08
1.35354348906e-06
-6.62095830284e-08
-6.74267390104e-08
1.33869277058e-06
1.25392334387e-06
2.91390678138e-07
1.26420734244e-06
-8.57634807104e-09
1.26900539362e-06
-3.92182013367e-09
1.27125194711e-06
-1.06067735612e-08
1.27252428525e-06
-1.44800155557e-08
1.27182525832e-06
-1.88860726692e-08
1.27050669469e-06
-2.25620929813e-08
1.26761984624e-06
-2.6568705882e-08
1.26317958303e-06
-3.02663384036e-08
1.25730167357e-06
-3.38695003442e-08
1.24955455493e-06
-3.788047569e-08
1.24102027134e-06
-4.1304058437e-08
1.23107507457e-06
-4.46581141075e-08
1.22016265462e-06
-4.73554010256e-08
1.20798877394e-06
-4.99723291137e-08
1.19553742133e-06
-5.1528889109e-08
1.18213256456e-06
-5.32191758097e-08
-5.36959368329e-08
1.16838187822e-06
1.10491916319e-06
2.97482211131e-07
1.11503764424e-06
-1.81626220886e-08
1.11761816951e-06
-7.69754470078e-09
1.11898655218e-06
-1.31830455144e-08
1.11851229418e-06
-1.50314430881e-08
1.11710590728e-06
-1.74003443838e-08
1.11457606606e-06
-2.01341506108e-08
1.11110801504e-06
-2.24114293455e-08
1.10652231509e-06
-2.50724126909e-08
1.09993387995e-06
-2.82532498415e-08
1.09315839545e-06
-3.08535660691e-08
1.08483204415e-06
-3.35744253513e-08
1.07648965662e-06
-3.58410215232e-08
1.06619281482e-06
-3.82200695099e-08
1.0568051111e-06
-3.96523481319e-08
1.044825658e-06
-4.12306564817e-08
1.0350547404e-06
-4.17722121352e-08
-4.25297520117e-08
1.02187628829e-06
9.73914658273e-07
2.86985416746e-07
9.84305073141e-07
-3.25821230974e-08
9.84106191459e-07
-9.69273910662e-09
9.84799170509e-07
-1.58577118787e-08
9.83470886978e-07
-1.54950223254e-08
9.81097450131e-07
-1.65876640131e-08
9.78309696519e-07
-1.72485499695e-08
9.74394635307e-07
-1.89734622779e-08
9.6938419764e-07
-2.07515264065e-08
9.63614403079e-07
-2.24458917127e-08
9.56953791859e-07
-2.48721930079e-08
9.49830694691e-07
-2.68723928306e-08
9.41870054662e-07
-2.8520559221e-08
9.33623017691e-07
-2.98232267192e-08
9.24715220561e-07
-3.10781912756e-08
9.15522839459e-07
-3.19862276336e-08
9.05999015233e-07
-3.2415269306e-08
-3.29295869339e-08
8.96256050701e-07
8.5714074008e-07
2.70883501377e-07
8.70369492563e-07
-4.67299560251e-08
8.66188566458e-07
-8.34171541355e-09
8.6665838698e-07
-1.67398873258e-08
8.64638086022e-07
-1.24949694036e-08
8.62000664033e-07
-1.36607177745e-08
8.58548879161e-07
-1.45556206246e-08
8.54629559101e-07
-1.50953377535e-08
8.49898527577e-07
-1.60337677242e-08
8.44129615854e-07
-1.7989329417e-08
8.38150179328e-07
-1.93275026565e-08
8.31925873916e-07
-2.05014529891e-08
8.25029084306e-07
-2.1669155296e-08
8.17756856868e-07
-2.28155853877e-08
8.09980457411e-07
-2.36993759163e-08
8.02515248317e-07
-2.41764269524e-08
7.93699584245e-07
-2.47290684323e-08
-2.42890909859e-08
7.86064722813e-07
7.46698592458e-07
2.53688262865e-07
7.70161542991e-07
-7.52104289084e-08
7.62076312589e-07
-1.3662046206e-09
7.62426743841e-07
-1.89637532937e-08
7.59489654291e-07
-9.69185992328e-09
7.56705973472e-07
-1.18668438883e-08
7.53600552603e-07
-1.14708272541e-08
7.49834179721e-07
-1.19857098704e-08
7.45179509212e-07
-1.26006211919e-08
7.40419318153e-07
-1.31217335278e-08
7.35015150233e-07
-1.430580018e-08
7.29488800409e-07
-1.54319577297e-08
7.23495183896e-07
-1.61137372295e-08
7.17108577692e-07
-1.67116967257e-08
7.10516863329e-07
-1.73529639407e-08
7.03867978025e-07
-1.79277611839e-08
6.97098446127e-07
-1.84986692047e-08
-2.08115445915e-08
6.9266753488e-07
7.0738176809e-07
1.8578645313e-07
6.84313726927e-07
-5.55004148368e-08
6.76737271912e-07
3.89682414473e-09
6.76969987543e-07
-1.59815106162e-08
6.71807763268e-07
-5.71740716913e-09
6.68140956669e-07
-7.7856610123e-09
6.63849851617e-07
-7.37252920493e-09
6.59184034103e-07
-7.78032922447e-09
6.54052414434e-07
-7.9715830319e-09
6.48711369676e-07
-8.65963996036e-09
6.43043600307e-07
-9.01239800575e-09
6.37857885957e-07
-9.7464390127e-09
6.32352134084e-07
-1.0458040041e-08
6.26480535607e-07
-1.12120345631e-08
6.2066322592e-07
-1.19420575968e-08
6.14889023644e-07
-1.25174535501e-08
6.08940013744e-07
-1.27596553782e-08
-4.3816636078e-09
5.92132739804e-07
3.65979965524e-07
3.76835787931e-07
6.1555840122e-07
-3.08716731976e-07
5.91785002311e-07
2.78316906652e-08
5.89580933648e-07
-1.38863775859e-08
5.85925204965e-07
-3.00986822577e-09
5.83710787718e-07
-6.67828260586e-09
5.81914214567e-07
-5.89829360193e-09
5.79910814095e-07
-6.40578179115e-09
5.77382970311e-07
-6.41849312203e-09
5.74822018562e-07
-6.52390194429e-09
5.71844141495e-07
-6.71521949195e-09
5.69296960023e-07
-7.02641979729e-09
5.66189012691e-07
-7.35039634817e-09
5.62497274395e-07
-7.86219534983e-09
5.58950469171e-07
-8.78391720492e-09
5.56223543007e-07
-1.00854616849e-08
5.5252322805e-07
-9.47274833466e-09
-3.99433508166e-08
5.8757578952e-07
1.18115883997e-06
-3.19129451907e-07
5.67305995442e-07
3.01928568548e-07
5.58941016707e-07
3.53269155201e-08
5.67317299252e-07
-2.25643261232e-08
5.56964530231e-07
5.84115105878e-09
5.50735458748e-07
-1.75268516823e-09
5.42972905477e-07
1.30133574328e-09
5.34854648728e-07
9.03032516976e-10
5.26759573681e-07
7.37193094944e-10
5.18270888499e-07
9.55059008498e-10
5.08980730337e-07
1.61395857608e-09
5.00213193216e-07
1.70540791864e-09
4.91561171047e-07
1.1986415835e-09
4.8219585791e-07
1.02058044225e-09
4.71398683792e-07
1.45137994036e-09
4.60180815432e-07
5.89978556199e-10
4.56870149817e-07
-6.72708716777e-09
3.40424556111e-08
3.8218323959e-07
1.00875848752e-07
4.02725309473e-07
4.38036620059e-07
4.15328785289e-07
4.21022287335e-07
4.1920863112e-07
4.20418370612e-07
4.21190061785e-07
4.21792695018e-07
4.22569804372e-07
4.24172363657e-07
4.25871415083e-07
4.26982733602e-07
4.27882383963e-07
4.29215942824e-07
4.29681412005e-07
4.22783264055e-07
4.56340390957e-07
-3.54953615699e-09
-1.07778929605e-07
-4.96428561232e-08
-5.3371543417e-08
-4.63069463674e-08
-4.66002632082e-08
-4.09725310649e-08
-4.36898188846e-08
-1.92641956072e-08
-4.05364522835e-08
-4.47392198323e-09
-3.79239831871e-08
2.05305743189e-08
-3.56019828156e-08
3.81280086028e-08
-3.39872955946e-08
6.27594786192e-08
-3.23300178648e-08
8.14008648444e-08
-3.09262051072e-08
1.05543169064e-07
-2.93834819891e-08
1.24222041595e-07
-2.80520425292e-08
1.47438959921e-07
-2.6543884821e-08
1.65555392936e-07
-2.52464961515e-08
1.87519365182e-07
-2.37903215174e-08
2.0459067181e-07
-2.25648760939e-08
2.25002812531e-07
-2.12013829512e-08
2.40711554161e-07
-2.00835519494e-08
2.59167489652e-07
-1.88497372801e-08
2.73151266635e-07
-1.78664612986e-08
2.89416195803e-07
-1.67434097727e-08
3.01658713993e-07
-1.58744942904e-08
3.1544901593e-07
-1.48943644979e-08
3.25901010071e-07
-1.40988513704e-08
3.37546185688e-07
-1.32177951252e-08
3.46467194053e-07
-1.25208217703e-08
3.56423677684e-07
-1.17226167449e-08
3.64127179158e-07
-1.10866159135e-08
3.72740381548e-07
-1.03828502496e-08
3.79457415403e-07
-9.82343060692e-09
3.87145104671e-07
-9.17565899273e-09
3.93176448738e-07
-8.67531522557e-09
4.00049383247e-07
-8.12253699161e-09
4.05519809554e-07
-7.68690282759e-09
4.1191131118e-07
-7.16583640822e-09
4.16987999975e-07
-6.80261476503e-09
4.22741379609e-07
-6.36289727816e-09
4.27493813934e-07
-6.02731935027e-09
4.32759600652e-07
-5.64023948973e-09
4.37206637804e-07
-5.35066473539e-09
4.42043933343e-07
-5.01286551283e-09
4.46196722569e-07
-4.75869919003e-09
4.50653643372e-07
-4.46436285711e-09
4.54504947542e-07
-4.24693740887e-09
4.585937556e-07
-3.99588880648e-09
4.62152611211e-07
-3.81573439339e-09
4.65894684071e-07
-3.61288455308e-09
4.69141369243e-07
-3.48753118175e-09
4.72538988084e-07
-3.3360589058e-09
4.75606627881e-07
-3.30366436192e-09
4.78837376405e-07
-3.38190528054e-09
4.81997843301e-07
-3.49186905026e-09
4.85268353303e-07
-3.5158882458e-09
4.88280517802e-07
-3.48021376246e-09
4.91236048663e-07
-3.31692559769e-09
4.93770581625e-07
-3.0895058672e-09
4.9612575113e-07
-2.75460392323e-09
4.97927279396e-07
-2.4096613626e-09
4.99783452396e-07
-2.22445850497e-09
5.01513536179e-07
-2.27971027494e-09
5.03238193687e-07
-2.06810336121e-09
5.04565602944e-07
-1.81046188151e-09
5.05882830817e-07
-1.49796393259e-09
5.06812818175e-07
-1.27276809299e-09
5.07635348055e-07
-1.03691723414e-09
5.08284449583e-07
-8.27104120977e-10
5.08850283948e-07
-6.49841112336e-10
5.09257849971e-07
-5.14594865429e-10
5.09685106857e-07
-3.98701495518e-10
5.09861473427e-07
-3.5069515674e-10
5.10204070867e-07
-2.73327900868e-10
5.10233551725e-07
-3.0157479235e-10
5.10461524659e-07
-3.13386801958e-10
5.10329793962e-07
-3.73463029163e-10
5.10585992869e-07
-3.51357089347e-10
5.10274911211e-07
-4.79475034836e-10
5.10370641819e-07
-4.42541151119e-10
5.09972317601e-07
-4.98162001298e-10
5.10081755009e-07
-3.75293377616e-10
5.09552278905e-07
-4.06002407325e-10
5.0953792413e-07
-2.37807119206e-10
5.08994929133e-07
-1.8246514222e-10
5.08870052724e-07
8.43186003297e-11
5.08724834268e-07
1.66247173895e-10
5.08591965056e-07
1.73886028317e-10
5.09034394284e-07
2.78624090618e-10
5.10205564102e-07
-3.55207509076e-10
5.10798291983e-07
-2.7819012069e-09
5.15173248962e-07
-3.24607025042e-09
5.11658089301e-07
-8.39131593538e-09
5.09917150858e-07
-1.18555489548e-08
5.09005919977e-07
-1.9524049217e-08
5.14512013004e-07
-2.70886927741e-08
5.23929224415e-07
-3.52967426235e-08
5.44030538198e-07
-4.49849742618e-08
5.81476450627e-07
-6.61748702015e-08
6.46515369737e-07
-9.03597784847e-08
6.96524039233e-07
-8.02086200441e-08
7.47003128766e-07
-7.92857747668e-08
7.71383721716e-07
-6.31971186745e-08
6.47667726382e-07
8.04350484573e-08
6.94226427852e-07
-9.84275438899e-08
8.77996894979e-07
-2.27159884833e-07
1.06512015535e-06
-2.2398724353e-07
1.22964372496e-06
-1.96395991526e-07
1.21172175213e-06
-7.25615878131e-09
9.97058392104e-07
1.92859327067e-07
8.34707755841e-07
1.47681567598e-07
7.73610003693e-07
4.95559347837e-08
7.269713834e-07
3.68399785498e-08
6.88721111691e-07
3.01532683954e-08
6.57373105842e-07
2.43547747999e-08
6.3221874678e-07
2.00573970899e-08
6.11681461191e-07
1.62805761384e-08
5.95340381939e-07
1.3665110585e-08
5.81827174665e-07
1.12122224843e-08
5.71003171503e-07
9.55139931662e-09
5.61255821723e-07
7.66365367557e-09
5.52964701104e-07
6.35353839739e-09
5.44908817773e-07
4.67734200581e-09
5.38236764644e-07
3.7498170443e-09
5.31743657264e-07
2.83136490977e-09
5.26226718504e-07
2.57963803491e-09
5.21248590152e-07
2.48177182968e-09
5.1707863478e-07
2.66299451741e-09
5.13271765719e-07
2.72529907804e-09
5.09946368923e-07
2.88575170637e-09
5.06731756508e-07
2.88380428808e-09
5.03769492555e-07
2.95665471371e-09
5.0080094451e-07
2.89962669818e-09
4.97976430983e-07
2.92248899005e-09
4.95099049207e-07
2.84843048447e-09
4.92314198014e-07
2.85725165506e-09
4.89466250753e-07
2.78184035009e-09
4.86735357072e-07
2.78972220407e-09
4.83988474382e-07
2.69858956361e-09
4.81441532567e-07
2.69565390029e-09
4.78926168034e-07
2.56587630602e-09
4.76642044092e-07
2.54383172098e-09
4.74359126157e-07
2.38376287982e-09
4.72183466685e-07
2.35982716075e-09
4.69835529594e-07
2.23505499107e-09
4.67443162677e-07
2.25098224738e-09
4.64912481464e-07
2.20990745176e-09
4.62400060918e-07
2.27887632699e-09
4.59848154248e-07
2.30201122495e-09
4.57343044539e-07
2.41021052338e-09
4.54826990161e-07
2.48839271814e-09
4.52324334103e-07
2.63124809348e-09
4.49794280234e-07
2.76573774625e-09
4.47205901166e-07
2.95671806925e-09
4.44517664813e-07
3.19014243581e-09
4.41609295618e-07
3.51233685524e-09
4.38426595258e-07
3.94019553622e-09
4.34738672752e-07
4.51076218428e-09
4.30429305342e-07
5.29688542649e-09
4.25126555609e-07
6.31086711308e-09
4.18641356243e-07
7.65724197702e-09
4.10476172165e-07
9.30528971394e-09
4.00419070077e-07
1.13460331803e-08
3.87951230537e-07
1.36683567456e-08
3.72911425733e-07
1.6358715384e-08
3.54807325268e-07
1.92829652663e-08
3.33642441226e-07
2.24192931877e-08
3.09166945209e-07
2.5557983202e-08
2.81711105814e-07
2.85694956479e-08
2.51571132184e-07
3.10900498248e-08
2.19038932827e-07
3.34879433758e-08
1.84624334405e-07
3.52725799696e-08
1.49391464021e-07
3.61144111709e-08
1.1439552621e-07
3.58914887773e-08
8.11884833412e-08
3.41946221638e-08
5.10351655601e-08
3.12485542508e-08
2.4706562143e-08
2.76424135899e-08
6.12687239904e-10
2.55244068105e-08
-1.98792496415e-08
2.23808208029e-08
-3.60816392524e-08
1.81267589871e-08
-4.94834598156e-08
1.59654430174e-08
-6.78511342156e-08
2.08803959154e-08
4.99980604679e-09
-6.99741412229e-08
-4.07935487923e-08
-1.08967494948e-07
-5.07930383973e-08
-7.27100460775e-08
-5.15017904873e-08
-6.2574124687e-08
-5.37514237579e-08
-5.96743242386e-08
-4.57578520704e-08
-5.96598860938e-08
-3.68485287709e-08
-6.04056143715e-08
-2.04611578222e-08
-6.07342871081e-08
-5.10769026299e-09
-6.02960916177e-08
1.50925907882e-08
-5.92038185436e-08
3.2807386413e-08
-5.76778861569e-08
5.38720838965e-08
-5.57217559794e-08
7.22583509129e-08
-5.35603809638e-08
9.31555368582e-08
-5.12222934718e-08
1.11295966619e-07
-4.88546568985e-08
1.31464613956e-07
-4.64543873457e-08
1.48851904916e-07
-4.41291217985e-08
1.67958787439e-07
-4.18444257187e-08
1.84287769863e-07
-3.97023098017e-08
2.01966705101e-07
-3.76197785805e-08
2.17052636458e-07
-3.56813145216e-08
2.33062893738e-07
-3.3846145291e-08
2.46706263563e-07
-3.21387128497e-08
2.60970764521e-07
-3.04961607573e-08
2.73120625547e-07
-2.89931821209e-08
2.85662858768e-07
-2.75338962626e-08
2.96607431733e-07
-2.61510569019e-08
3.07813296676e-07
-2.48345697712e-08
3.17628548863e-07
-2.35983537601e-08
3.27735735275e-07
-2.23997407054e-08
3.36731049009e-07
-2.12688578656e-08
3.46002710858e-07
-2.01853659529e-08
3.54243844418e-07
-1.91749945013e-08
3.62820355002e-07
-1.81719402808e-08
3.70569033674e-07
-1.72434849572e-08
3.78538941406e-07
-1.6348503089e-08
3.85810398822e-07
-1.55031486296e-08
3.93244325282e-07
-1.46853698813e-08
4.00055616155e-07
-1.39361830982e-08
4.06957814742e-07
-1.31992930979e-08
4.13366068557e-07
-1.25142670885e-08
4.19795866333e-07
-1.18511403883e-08
4.25790501399e-07
-1.12337752023e-08
4.31761752196e-07
-1.06401921383e-08
4.37323048285e-07
-1.00903550252e-08
4.42825071488e-07
-9.56499177293e-09
4.47932746043e-07
-9.08602020491e-09
4.52936830658e-07
-8.6281775828e-09
4.5758823831e-07
-8.21482339869e-09
4.62031421484e-07
-7.84200945825e-09
4.66075609714e-07
-7.49816368861e-09
4.69757134061e-07
-7.18283586296e-09
4.72987428427e-07
-6.97325315221e-09
4.75940455284e-07
-6.7534480135e-09
4.78630147916e-07
-6.50437138225e-09
4.81152556078e-07
-6.19863107373e-09
4.83413560937e-07
-5.80259215135e-09
4.85460305343e-07
-5.21337521753e-09
4.86844826304e-07
-4.27332642738e-09
4.88252887679e-07
-4.05750029815e-09
4.89539755678e-07
-4.07305400268e-09
4.91064553844e-07
-3.95912070369e-09
4.92688651808e-07
-3.81033816569e-09
4.94467876025e-07
-3.62758515619e-09
4.96328298203e-07
-3.42040354958e-09
4.98286833004e-07
-3.21199212727e-09
5.00263370178e-07
-3.02925818149e-09
5.02311820426e-07
-2.84438176387e-09
5.04352902794e-07
-2.69274156821e-09
5.06436824792e-07
-2.56079064151e-09
5.08456515406e-07
-2.47311995844e-09
5.10479216705e-07
-2.42384873653e-09
5.12344237418e-07
-2.4057947781e-09
5.14294811856e-07
-2.36162791699e-09
5.15994477811e-07
-2.40776959917e-09
5.17720746784e-07
-2.39882531282e-09
5.19199952831e-07
-2.37974484149e-09
5.20674761824e-07
-2.30411293527e-09
5.21892243744e-07
-2.22217229006e-09
5.23154047777e-07
-2.03473965338e-09
5.24064405203e-07
-1.83373862307e-09
5.24963663953e-07
-1.48092291181e-09
5.25614840868e-07
-1.13651377008e-09
5.26227625363e-07
-6.96974392033e-10
5.26541706489e-07
-1.8609445137e-10
5.26514296533e-07
3.79480654225e-10
5.26726511383e-07
3.19609096067e-10
5.27190466986e-07