/*--------------------------------*- C++ -*----------------------------------*\
| =========                 |                                                 |
| \\      /  F ield         | OpenFOAM: The Open Source CFD Toolbox           |
|  \\    /   O peration     | Version:  v1806                                 |
|   \\  /    A nd           | Web:      www.OpenFOAM.com                      |
|    \\/     M anipulation  |                                                 |
\*---------------------------------------------------------------------------*/
FoamFile
{
    version     2.0;
    format      ascii;
    class       volScalarField;
    location    "3";
    object      rho;
}
// * * * * * * * * * * * * * * * * * * * * * * * * * * * * * * * * * * * * * //

dimensions      [0 0 0 0 0 0 0];


internalField   nonuniform List<scalar> 
12225
(
0.606482653653
0.600295239979
0.597791081455
0.596491264069
0.585608746684
0.580988594856
0.574566345681
0.569556153452
0.566146505922
0.565307355717
0.568286806287
0.573882217991
0.576891479768
0.582951418536
0.596802428114
0.611573472399
0.629518462607
0.653488512045
0.622884768063
0.63661667076
0.609612184134
0.61450893395
0.606813481908
0.604328920543
0.60018382142
0.596704084392
0.59357785381
0.591203621568
0.590616545109
0.591757232696
0.591891561073
0.593270555385
0.598969672508
0.605803023848
0.614649009841
0.620678690944
0.604823950879
0.628765451231
0.609195588965
0.613079732634
0.604535580405
0.601626870734
0.597261992529
0.593809398265
0.590861958841
0.58863130853
0.587566829016
0.587661041929
0.588067513904
0.589814803512
0.594150608522
0.599013868764
0.603885448819
0.603000455114
0.596459143981
0.629924520241
0.608215555462
0.614055202356
0.606471943651
0.604843128285
0.601682735217
0.599279004286
0.5971820381
0.595565562998
0.594640522433
0.594437223463
0.594773471915
0.596188150079
0.599038687443
0.601920196993
0.603706487157
0.600387801099
0.591041551805
0.630421618645
0.608129161077
0.615129270545
0.608096153324
0.60727072159
0.604895821813
0.603324385799
0.602101860893
0.601321522133
0.601052895226
0.601264222615
0.601942698951
0.603306013627
0.605228762044
0.606637574128
0.606380014877
0.602269534559
0.587600990882
0.630996897002
0.608453939719
0.616427164606
0.609900694453
0.609748692586
0.607982429296
0.607024195029
0.606420621585
0.606212286638
0.60641310746
0.606945210735
0.607801250103
0.609007803554
0.610227857662
0.610580673382
0.60914123827
0.604879738751
0.585581087692
0.631431614908
0.608952617292
0.617688780675
0.611620285441
0.612013059272
0.610713785047
0.610205800014
0.610026052042
0.610184445835
0.610668648318
0.611375797692
0.612248983636
0.613209872293
0.6138577229
0.613481830606
0.61140507278
0.607185619175
0.584486081856
0.631660701998
0.609477395014
0.618788944361
0.613146159415
0.613986279375
0.613054467209
0.61287835683
0.612963490225
0.613317999203
0.613930265349
0.614680405669
0.615462912497
0.616145089316
0.616320893475
0.615440948803
0.613012688911
0.608952016222
0.583951573538
0.631653014846
0.60992369605
0.619646231005
0.614400547529
0.615620917124
0.614988182159
0.615046635762
0.615276472553
0.615708461804
0.616339834296
0.617030246278
0.617643219445
0.618019934304
0.617799676599
0.616539529645
0.613930394624
0.610029875536
0.583660142955
0.631377403817
0.610136932861
0.620123653071
0.615214458043
0.616740161766
0.616322220386
0.61652366573
0.616825110965
0.617277589552
0.61786227568
0.618416580139
0.618792517095
0.61884305764
0.618268441576
0.61672711084
0.614034134904
0.610358057364
0.582859729458
0.631003849559
0.609859272031
0.620067396903
0.615327617462
0.617001316896
0.616639380598
0.616876715968
0.61718109174
0.617587929167
0.618059391379
0.618447585652
0.618620194561
0.618455689855
0.617704624235
0.616109106811
0.61358278011
0.610294262773
0.579452231559
0.630528873367
0.608357113894
0.618927593798
0.614116686031
0.615829789202
0.615477892182
0.615727660575
0.615988197555
0.616330913011
0.616790282831
0.617205476397
0.617437208883
0.61734859799
0.616731938369
0.615386692123
0.613240738214
0.610466646568
0.577151389024
0.629770930607
0.607158838938
0.617962845558
0.613333388781
0.615176835475
0.614929768615
0.615280267999
0.615686755387
0.616204510616
0.616814373282
0.617359331017
0.617657309573
0.617615351259
0.617037409597
0.615788579614
0.613857452353
0.611397726487
0.574345329342
0.628901646868
0.605929435115
0.617076301864
0.612717790513
0.614896621611
0.61498767401
0.61560467631
0.616202788754
0.616838138972
0.617490030832
0.617983557487
0.61815805791
0.61795100284
0.617262077591
0.615990597593
0.614212709216
0.611986094348
0.570618452942
0.627945840734
0.604380172502
0.616011260399
0.611956424184
0.614537897325
0.615019725227
0.615950497087
0.616763035924
0.617476929007
0.618105255524
0.618456425072
0.618412541765
0.618003478466
0.617172898757
0.615888246724
0.614230712879
0.612273179547
0.566684712191
0.626992367455
0.602627731141
0.614737637698
0.610900057527
0.613837196664
0.614632896375
0.615816669647
0.616771207396
0.617544247244
0.618102686378
0.61832974227
0.618107409416
0.617562996167
0.616655862707
0.615409827908
0.613892692848
0.612146438732
0.563042752452
0.626212238075
0.600885528803
0.613383741603
0.609629029855
0.612794340054
0.613769118781
0.615084787161
0.616104954076
0.616861509404
0.617373863977
0.617503171092
0.617191381555
0.616578953202
0.615679728034
0.614492707786
0.61312860739
0.611539919058
0.559748414613
0.625706668857
0.599288057639
0.612101708032
0.608290998509
0.611551892236
0.612565615692
0.613917176419
0.614934286122
0.615658365455
0.616120520833
0.616189808328
0.615832212823
0.61521078412
0.614345580245
0.613232433491
0.611987023662
0.610542241568
0.557974926169
0.625844287917
0.598549304458
0.611512808225
0.607519448516
0.610695339494
0.611569681682
0.612797413463
0.613680553118
0.614270894203
0.614609443096
0.61457971544
0.614155779814
0.613511347076
0.612659587919
0.611588229759
0.610410876873
0.609057688883
0.561825225117
0.626757682485
0.599808694889
0.612253058609
0.607778191328
0.610395624371
0.610701044317
0.611351666357
0.61171043527
0.611832243699
0.611782049176
0.611458601314
0.610830288463
0.610056871631
0.609146606163
0.608081673446
0.606962964765
0.605736160376
0.564746976153
0.627854529602
0.601212016671
0.613277493433
0.608423629765
0.610589685457
0.610438712705
0.610667124192
0.610620716704
0.610406218773
0.61008209414
0.60956789723
0.608798394974
0.60795601815
0.607014056143
0.605972466465
0.604894881505
0.603755053047
0.567081492894
0.628924256507
0.602523372931
0.614254964159
0.609081278659
0.610841179319
0.610313259433
0.61017009279
0.609799483696
0.609311598169
0.608760207854
0.608086157255
0.607211733965
0.606299659196
0.605334079464
0.604293425654
0.603250907022
0.602143621715
0.569427514747
0.630053696419
0.603775117061
0.615198357715
0.609708143864
0.611071917013
0.610178044307
0.609687194116
0.609016519312
0.608259002266
0.607512073563
0.606673750946
0.605686417374
0.604687372347
0.60368759162
0.602624007507
0.601589604786
0.60052040038
0.571839434114
0.631212905948
0.60503677543
0.616082863818
0.610252139923
0.611236355237
0.609992301257
0.609171302811
0.608217892
0.607231788782
0.606283726326
0.605299214739
0.604197164404
0.603123602709
0.602048279951
0.60094283227
0.59987182472
0.598812624969
0.574474101483
0.632328320548
0.606307296514
0.616902227524
0.610796149437
0.611402495229
0.609832979914
0.608723958875
0.60751585064
0.606304575914
0.605168875464
0.604047740564
0.602833832599
0.601666088959
0.600523736586
0.599349568331
0.598213029189
0.597133947719
0.578026365108
0.633437064993
0.607894583251
0.617875496039
0.611535436781
0.611809695753
0.609975985561
0.608608194128
0.607172435919
0.605750565591
0.604432671468
0.603175371877
0.601871020903
0.600610597685
0.59937568493
0.598121588568
0.596890958833
0.59575755251
0.583844321944
0.634796921496
0.610044531595
0.619240504387
0.612837864951
0.612832041243
0.610789103566
0.609231959734
0.607603834681
0.605975524951
0.604436418325
0.603038121949
0.601614078774
0.600210445569
0.598860741236
0.597475805985
0.596118977619
0.594764587772
0.592482896498
0.635353639138
0.614769698948
0.622354577058
0.615896198003
0.615527260543
0.613287591168
0.611584195139
0.609866431381
0.608151000434
0.606589429627
0.605195996352
0.603785349056
0.602421084272
0.601112654301
0.59975439507
0.598376621806
0.597552271876
0.625559574167
0.650089862767
0.619629869217
0.628153105974
0.622381864961
0.621890540937
0.619626894069
0.617628474125
0.615367605995
0.612880920582
0.610287532927
0.60788448557
0.605470556623
0.602950938953
0.600380568353
0.597720654215
0.594955016412
0.591731371356
0.625507357321
0.616148542214
0.616930574646
0.620404890047
0.613122130882
0.613002574509
0.611192678363
0.609904265865
0.608724140732
0.607797018173
0.607315210325
0.606974591878
0.60659475363
0.60655946859
0.606834147562
0.607124650341
0.607440499535
0.607394584095
0.50012903777
0.499797346712
0.499604108968
0.499620732685
0.499806010248
0.500109381922
0.500472557185
0.500866647681
0.501272429517
0.501676993635
0.502071985529
0.502452465892
0.50281571435
0.503160888886
0.503488022267
0.503798365556
0.504093149856
0.504374746363
0.504644742413
0.504904927723
0.50515682411
0.505401727567
0.505641099437
0.505874574617
0.50610277962
0.506324494875
0.506540378368
0.506749668036
0.506952514859
0.507147651864
0.507335063539
0.507514114629
0.507685025845
0.507846645491
0.507999220989
0.508142974653
0.508278551334
0.508405166181
0.508523807685
0.508634413361
0.50873798741
0.508834946867
0.508926353839
0.509013147931
0.509096435061
0.509177607672
0.50925789998
0.509338839255
0.509421873694
0.509508282357
0.50959934484
0.509695239908
0.509797630857
0.509908016648
0.510028501172
0.510160411646
0.510304941684
0.510462595634
0.510633525485
0.510817140931
0.511013288011
0.511221427202
0.511441105036
0.511672003588
0.511913668433
0.512164562457
0.512423795003
0.512690224891
0.51296224285
0.513238797779
0.513518087108
0.51379887385
0.51407957859
0.514358943632
0.514635533293
0.514908436186
0.515176271449
0.515437256601
0.515690391971
0.515935211854
0.516171297319
0.516397579227
0.51661347652
0.516817754427
0.517012554156
0.517197692502
0.517375429284
0.517550681544
0.517722953112
0.517903379964
0.518091269711
0.518281549549
0.51847599222
0.518653783036
0.5187996941
0.518945605339
0.519132632701
0.519360340956
0.519616202955
0.519881240865
0.520190077308
0.52050927269
0.520185541683
0.519928429767
0.519864231105
0.519897236457
0.519927752061
0.519976674682
0.520064051996
0.520150137242
0.520229460293
0.520302454656
0.520370552769
0.520434784045
0.520496036867
0.520554945619
0.520612679824
0.520670964416
0.520729528305
0.520786566122
0.520838258844
0.52088286177
0.520921059385
0.520953345075
0.520982164727
0.521008531692
0.52103305266
0.521055993844
0.521077611495
0.521098083549
0.521117722408
0.521136716459
0.521155249593
0.521173188002
0.521190470743
0.521206916081
0.521222470974
0.521237501035
0.521251723227
0.521265268204
0.521276741741
0.52128755205
0.521297157942
0.521304468099
0.521308507561
0.521308400087
0.52130416686
0.52129619969
0.521285070613
0.521271464369
0.521255784243
0.521238088524
0.521218232422
0.521195920833
0.521170453079
0.521140725115
0.521104969783
0.521060720151
0.521004144317
0.52093032118
0.520831691429
0.520699738358
0.520522520287
0.520284606869
0.519965871787
0.519544375766
0.518994266798
0.51829359409
0.517423464342
0.516355649259
0.515074727655
0.513583498739
0.511904804177
0.510094104429
0.50821301635
0.506228219691
0.504218157012
0.502290628975
0.500566531877
0.499385562523
0.500076477234
0.499769236208
0.49977975762
0.50001177827
0.500340579184
0.500702657033
0.501074068044
0.501444037026
0.5018087893
0.502166771229
0.502517370814
0.502859727464
0.50319377497
0.503519170291
0.503836031905
0.504144536017
0.504445106847
0.504738525345
0.505025662752
0.505307004488
0.505583471688
0.505855310603
0.506123435218
0.506387170119
0.506646643978
0.506900540045
0.507149314778
0.50739191938
0.507628030511
0.507856512367
0.50807751831
0.508290236177
0.508494335334
0.508689154827
0.508875292268
0.509052331913
0.509220819148
0.509380726954
0.509532608116
0.509676539959
0.509813444106
0.509943957225
0.510069131192
0.51019008807
0.510308096585
0.510424688822
0.510541546943
0.510660436801
0.510783571598
0.510913237395
0.511053201219
0.511204406262
0.511366619148
0.511539861924
0.511725012191
0.511922468327
0.512132521866
0.512355550126
0.51259066389
0.512835824891
0.513090115413
0.513352662172
0.513623260298
0.513901240194
0.514186031191
0.514476984535
0.514773045094
0.51507322292
0.515376390129
0.515681585091
0.515987639095
0.51629352647
0.516597917293
0.516899944721
0.517198705878
0.517493049943
0.517781942386
0.51806434185
0.518339152198
0.518606170553
0.51886562134
0.519116808565
0.519358589672
0.519591313158
0.519817655087
0.520034596914
0.520238827892
0.520441602915
0.520663370053
0.520889425282
0.521101481932
0.521335868069
0.521623463028
0.52193857726
0.522207817252
0.522440719012
0.52272821648
0.522857693664
0.523006935154
0.523228016086
0.523488750802
0.523674919883
0.523573881152
0.523561910316
0.523600365732
0.523662868329
0.523730430033
0.523786065702
0.523850588386
0.523921672684
0.524000729551
0.52408421088
0.524170187568
0.52425765488
0.524346287413
0.524436066399
0.524527919241
0.5246230867
0.524721696549
0.524820918885
0.524916966825
0.525007911132
0.525093175431
0.525173813284
0.525251240736
0.52532616996
0.525399123499
0.525470379748
0.525540148838
0.525608561955
0.525675759783
0.525741839
0.52580682033
0.525870632283
0.525933318562
0.52599500513
0.526056148218
0.526117487426
0.52617970669
0.526242584722
0.526305784142
0.526370070153
0.526435194905
0.526500238291
0.526563744752
0.52662463396
0.526682615547
0.526737874197
0.526790720924
0.526841351091
0.526889989117
0.526936978251
0.526982791078
0.527027956658
0.527072957155
0.527118418329
0.527165004948
0.527213713172
0.527265497948
0.527322263968
0.527385405135
0.527456241666
0.527536485311
0.52762846127
0.527733852692
0.527853653925
0.527993252369
0.528143673701
0.528303573052
0.528469846188
0.52863357485
0.528780816316
0.528892146176
0.528972935317
0.528939752351
0.528889496381
0.528806950713
0.52869753223
0.528572116808
0.528320770775
0.500235081495
0.500052512511
0.500129795351
0.500346714368
0.500611876562
0.500880972182
0.501151295956
0.501424663342
0.501703963632
0.501989949022
0.502282555635
0.502580526423
0.502882253968
0.503185998674
0.503490179628
0.503793540773
0.504095113138
0.504394327273
0.50469099606
0.50498504084
0.505276469379
0.50556497606
0.505851156035
0.506134103585
0.506413698656
0.50668898919
0.506959854746
0.507225126324
0.507484482111
0.507736833053
0.507981854308
0.508218547469
0.508446890016
0.508666074298
0.508876097013
0.509076754899
0.509268415818
0.509450584433
0.509623755308
0.509787988795
0.509943786313
0.510091583435
0.510232068552
0.510366022774
0.510494328465
0.510617999343
0.510738329485
0.510856702773
0.510974659867
0.511093914212
0.51121731288
0.511347035755
0.511485807698
0.511634894572
0.511795440277
0.511968355459
0.512154421558
0.512353717781
0.512566635942
0.512793827215
0.513034633887
0.51328800645
0.513552978936
0.513828747447
0.514114407668
0.514408671053
0.514710324388
0.515018058603
0.515330276133
0.515645597636
0.515962382204
0.516279183113
0.516594596044
0.516907225603
0.517215959999
0.517519698458
0.517817523147
0.518108420288
0.518391739608
0.518666558494
0.518934074349
0.519194240673
0.51944583686
0.519688518429
0.51992680082
0.520163826095
0.520389572894
0.520603820816
0.520827837469
0.521078097592
0.521330596121
0.521563034208
0.521843707305
0.522145492072
0.522444688926
0.522762175517
0.523045282624
0.523143751365
0.523229427236
0.523329146552
0.523406350333
0.523400942424
0.523384597718
0.523473178782
0.523570923642
0.523657097984
0.523741941677
0.523843041203
0.523954799041
0.524061528913
0.524163862231
0.524263196788
0.524360435468
0.524456193026
0.524550952479
0.524645226643
0.524740062035
0.524836306415
0.524933644934
0.525029347243
0.525120839769
0.5252072685
0.525289335877
0.525368516559
0.525445312454
0.525520007621
0.525592809895
0.525663990595
0.525733823267
0.525802610208
0.525870664708
0.52593826028
0.52600553011
0.526072521652
0.52613927597
0.526205934705
0.526272809762
0.526340072324
0.526407797931
0.526475057465
0.526541888479
0.526609092779
0.526677572968
0.526746862543
0.526815576026
0.526882748289
0.526948000519
0.527011512866
0.527073513788
0.527134286151
0.527193953832
0.527252702286
0.527310444932
0.527367049071
0.52742230972
0.52747598508
0.527527630701
0.527576798939
0.527622837791
0.527665231991
0.527703362544
0.527736530434
0.527764290883
0.527786916483
0.527805159354
0.527821179128
0.527839857436
0.527865118981
0.527899430228
0.527948614136
0.528018391586
0.528112495445
0.528232448826
0.528374284323
0.528525426153
0.528674596721
0.528819786464
0.528954478972
0.529073784718
0.529189779857
0.500310553303
0.500348482844
0.500461844153
0.500627667829
0.500813113296
0.500993750707
0.501182496794
0.501385567004
0.501606549832
0.501846227608
0.502103214014
0.502374875089
0.502658484529
0.502951194569
0.503250484181
0.503554185621
0.503860530048
0.504168223029
0.504476337018
0.504783913673
0.505090853173
0.505396486521
0.505700531299
0.506002274259
0.50630153392
0.506596957649
0.506888246368
0.507174316033
0.507454564991
0.507727812591
0.507993645578
0.508251150245
0.508499867652
0.508739061185
0.508969004591
0.50918898723
0.509399275097
0.50959971726
0.509790636782
0.509971984857
0.510144345588
0.510308112974
0.510464039664
0.510612941576
0.51075578895
0.510893726609
0.51102818462
0.511160707107
0.511293345113
0.511428221934
0.511567594161
0.511712843133
0.511866935702
0.512032143938
0.512210538067
0.512403573978
0.51261224891
0.51283620118
0.513073697432
0.513323870932
0.51358582823
0.513858333748
0.514140427986
0.514430708241
0.514728051263
0.51503158687
0.515340135376
0.515652503229
0.515967461307
0.516283686028
0.516599959677
0.51691490143
0.517227046448
0.517535549897
0.517839525447
0.51813752585
0.518428850864
0.518713833181
0.518990776907
0.519258282858
0.519518265861
0.519774055033
0.520021643465
0.520256271148
0.520487730151
0.520725172632
0.520960206837
0.521164737762
0.521388903884
0.521644819446
0.521901703617
0.522149853863
0.522400488377
0.522663782528
0.522900844134
0.523108908317
0.523266104753
0.523363742223
0.52345327307
0.523519642081
0.523550170674
0.523564489771
0.523629900863
0.523762141817
0.523897294722
0.524019900204
0.52413750478
0.524259209786
0.52438147374
0.524496478899
0.524604083161
0.524705940109
0.524803544816
0.524898018908
0.524990145726
0.525080703934
0.525170534696
0.525260301493
0.525349125796
0.525434832262
0.525515659596
0.525591859232
0.525665284243
0.525736949999
0.525806922192
0.525875013122
0.52594119926
0.526005635185
0.526068603447
0.526130474012
0.526191655679
0.526252495462
0.526313203187
0.526373874806
0.526434581112
0.526495485335
0.526556679098
0.526617965191
0.52667861169
0.526737589763
0.5267947897
0.526851731166
0.526909987961
0.526969379206
0.527028762003
0.527087144764
0.527144132545
0.527199779979
0.527254258547
0.527307763327
0.527360411767
0.527412335682
0.527463527003
0.527513928758
0.527563441555
0.527611941734
0.527659206879
0.527705011477
0.527748994706
0.527790826482
0.527830445998
0.52786781867
0.527903057586
0.527936842172
0.527970207286
0.528004956131
0.528044379823
0.52809087997
0.528146220867
0.528214163028
0.528297588166
0.528397976392
0.528516632727
0.528651964651
0.528799355113
0.528954296963
0.529116539427
0.529289331466
0.529488284971
0.529757118705
0.500364161972
0.500649699225
0.500777393501
0.500894511946
0.501024323095
0.501149896192
0.501291226086
0.501454982029
0.501644462259
0.501858931622
0.502096367206
0.502353744525
0.50262780092
0.502915284981
0.503213330678
0.50351930992
0.503831152189
0.504146895859
0.504465335317
0.504785347143
0.505106084956
0.505426545031
0.505746603324
0.506065022008
0.506381282071
0.506694461338
0.507003887977
0.507308268618
0.507606975194
0.507898857512
0.508183258434
0.508459075718
0.508726091331
0.5089834682
0.509231015487
0.509468301758
0.509695562162
0.509912215707
0.510118644212
0.510314769552
0.510501029969
0.510677694474
0.5108454623
0.511005025094
0.511157345235
0.511303401781
0.51144469116
0.511582895252
0.511719976475
0.511858499483
0.512002051911
0.51215232072
0.512312134415
0.512484364479
0.512671031881
0.512873629465
0.513093411958
0.513329573697
0.513579956695
0.513843326202
0.514118386058
0.514403753322
0.514698197974
0.515000496004
0.515309467949
0.515623783402
0.515942194041
0.516263495391
0.516585993484
0.516908369632
0.517229227979
0.517547344894
0.517860669946
0.518169048487
0.518471906274
0.518767475541
0.519054141619
0.519334314769
0.519609092315
0.519872643173
0.520124199708
0.520375937454
0.520624993506
0.520859188567
0.521094104341
0.521346127223
0.521595914001
0.521827652817
0.52204062402
0.522267479185
0.522505357134
0.52273349091
0.522962438062
0.523170432979
0.523334934448
0.523464298901
0.523560967703
0.523646504696
0.523737328123
0.523813386361
0.523872413836
0.52393457336
0.524028648292
0.524155002565
0.524284989923
0.524408546905
0.524527239189
0.524644217008
0.524758115621
0.524865765895
0.524966868219
0.525062377373
0.525153487028
0.525241147641
0.52532611139
0.525409097332
0.525490745111
0.525571231914
0.525649424571
0.525723590615
0.52579287366
0.525858566689
0.525922762092
0.525986158796
0.526048490058
0.526109307646
0.526168421995
0.526225889268
0.526281976326
0.526337087995
0.526391694554
0.526446191801
0.52650085395
0.526555791016
0.526611127915
0.526667007957
0.526723300991
0.526779387529
0.526833815256
0.526885517767
0.526934456313
0.526982867394
0.527032652073
0.527083892401
0.52713565351
0.527186990435
0.527237537133
0.527287228063
0.527336167208
0.52738441084
0.527432021802
0.527479016111
0.527525375043
0.527571013473
0.527615839008
0.527659700501
0.527702404021
0.527743743599
0.52778344523
0.527821296796
0.527857351675
0.527891705556
0.527924710464
0.527957317205
0.527990759039
0.528026885526
0.528068796782
0.528118892881
0.528179192049
0.528253447958
0.528344137834
0.528452630723
0.528580689213
0.528727541812
0.528888963343
0.529063716503
0.529253356969
0.529463844049
0.529717093283
0.530056245111
0.500480163405
0.500987829284
0.501109272901
0.501186168013
0.501281389266
0.501372631448
0.501484437417
0.50162218181
0.501788515007
0.501982937203
0.502203383983
0.502446520062
0.502709344884
0.502988486147
0.503281173594
0.50358458117
0.503896541675
0.50421496585
0.504538349272
0.50486496845
0.505194159544
0.505524695807
0.505855701318
0.506186238385
0.50651574718
0.50684274132
0.507166553771
0.507485978175
0.50780014702
0.508107805104
0.508408250599
0.508700450604
0.508983793046
0.509257424816
0.50952135704
0.509774755516
0.510017652374
0.510249671538
0.510470971816
0.510681280316
0.510881046544
0.511070396041
0.511250024205
0.511420535291
0.511582912326
0.511738090015
0.511887574271
0.512033005901
0.512176696944
0.512321394225
0.512471004601
0.512627682149
0.512794909703
0.512975809352
0.513173019965
0.513388273612
0.513622325856
0.513872020932
0.514136182861
0.514412881381
0.51470037118
0.514997091837
0.51530200555
0.515614002184
0.515932013489
0.516254691041
0.516580952166
0.516909491623
0.517238321158
0.517565008401
0.5178892965
0.518209387057
0.518522601712
0.518827794513
0.519127772964
0.519420154841
0.51970080061
0.51997102251
0.520238911596
0.520502303454
0.520744317918
0.521003521075
0.521265992603
0.521519645791
0.521756972364
0.521980701866
0.522210676125
0.522430997487
0.522642428475
0.522854009529
0.523057433884
0.523247122151
0.523426034431
0.523582063382
0.523711698944
0.52382040371
0.523913033352
0.524002484206
0.524093815695
0.524178524501
0.52425712263
0.524340205603
0.52443928552
0.524553327854
0.524670531472
0.524784893826
0.52489555009
0.525003071529
0.525106773862
0.525205333796
0.525298479132
0.525386701509
0.525470768813
0.525551366879
0.5256291066
0.525704557142
0.525778204733
0.525849785673
0.525918244102
0.525982194169
0.52604157686
0.526098346804
0.526154337905
0.526210079221
0.526265177757
0.526319118288
0.526371604613
0.52642263405
0.526472445473
0.526521459684
0.526570156121
0.526618962721
0.52666815495
0.526717883848
0.526768298592
0.526819509745
0.5268711962
0.526922179635
0.526970810789
0.527015749113
0.527057523444
0.527098632956
0.527141036044
0.527185059009
0.527229917714
0.527274839609
0.527319444036
0.527363646511
0.527407454816
0.527450854838
0.527493819431
0.527536302017
0.527578242211
0.527619553282
0.527660142262
0.527699879695
0.527738606853
0.527776177886
0.527812409534
0.527847219237
0.527880781493
0.527913328717
0.527945375474
0.52797801196
0.528012601144
0.528051005252
0.528096119576
0.528150259139
0.528215442007
0.52829517075
0.528391550012
0.528505755615
0.528639736991
0.528793476615
0.528963974263
0.5291515719
0.529359014822
0.529593940598
0.529879714229
0.530252444843
0.500693896101
0.50137966225
0.501495342806
0.501545009421
0.501618565484
0.501685533645
0.501774645167
0.501891026816
0.502038105092
0.502214700466
0.502419054436
0.502648072124
0.502898912926
0.503168295025
0.50345361045
0.503751982489
0.504061310387
0.504379201667
0.504704165012
0.505034580758
0.505369151662
0.505706462128
0.506045963494
0.506386132751
0.506726093937
0.507064748678
0.507401128324
0.507733785243
0.508061868249
0.508384059448
0.50869950758
0.509006974884
0.509306004811
0.509595635594
0.509875425474
0.510144740921
0.510403528311
0.510651036166
0.510887416165
0.511112379489
0.511326232666
0.51152903926
0.511721453741
0.511904024902
0.512077731276
0.512243335127
0.512402350547
0.512556330749
0.512707306111
0.512857990457
0.513013553256
0.51317564384
0.513348496493
0.51353636922
0.513742681207
0.513969839236
0.514217291085
0.514480102584
0.514757378391
0.515046324592
0.515345173458
0.515651953201
0.515965532953
0.516285301618
0.516610934118
0.51694019913
0.517272359655
0.517606649413
0.517940149111
0.518269193888
0.518593202406
0.518913508227
0.519225220669
0.51952466573
0.519816472987
0.520102126691
0.520377978698
0.520646697621
0.520922003077
0.521193346357
0.5214553323
0.521698173165
0.521926709565
0.522164543167
0.522393884653
0.522613834051
0.522823014022
0.523020311209
0.523206626062
0.523385352879
0.523555820383
0.523716874991
0.523865623863
0.523996907026
0.524112054542
0.524214460751
0.524308151665
0.524399127806
0.524489413831
0.524576098299
0.52466040257
0.52474729636
0.524841836455
0.524943428067
0.525047201152
0.525149715335
0.525249598557
0.525346475131
0.525439781349
0.525528857382
0.525613446634
0.525693791891
0.525770296356
0.525843426666
0.525913624617
0.525981408043
0.526046999733
0.526109983864
0.526169310703
0.526224066124
0.526274844062
0.526323564895
0.526371841798
0.526420073278
0.526467901094
0.526514837473
0.526560581583
0.526605101587
0.526648617134
0.526691530603
0.526734310734
0.526777380264
0.52682100584
0.526865380059
0.526910685163
0.526956992401
0.52700375352
0.527049440707
0.527092193242
0.527130728587
0.527166038823
0.527200593113
0.527236376373
0.527273756463
0.527312125776
0.527350896816
0.527389753148
0.527428641092
0.527467492349
0.52750625036
0.527544788125
0.527583024649
0.527620842927
0.527658168837
0.527694898302
0.527730939153
0.527766161694
0.527800484837
0.527833809263
0.527866161281
0.5278978309
0.527929174171
0.52796085433
0.527994060303
0.528030270278
0.528071314413
0.52811995132
0.528178361327
0.528248517369
0.528333604215
0.528435530751
0.528555241926
0.528694832796
0.528854847527
0.529033467034
0.529231975632
0.529454044159
0.529708131646
0.530016751681
0.530408551278
0.501020575338
0.501843507413
0.501979987259
0.502013985295
0.502070852696
0.502115825665
0.502184218063
0.502280784627
0.502409104456
0.50256851106
0.502757256422
0.502971953819
0.503210147514
0.503468551579
0.50374480803
0.504036035771
0.504340211638
0.504655041594
0.504978917472
0.505309783074
0.505646712672
0.505988161244
0.506332932362
0.506679836103
0.507028026607
0.50737581424
0.50772232898
0.508066193683
0.508406361467
0.508741407082
0.509070456251
0.509392314166
0.509706177645
0.510011022403
0.51030655421
0.510591769378
0.510866396547
0.511129861208
0.511382072006
0.511622596306
0.511851739524
0.512069500269
0.512276468915
0.512473148955
0.512660404687
0.512838931731
0.513009656613
0.513173685522
0.513332714484
0.513488866223
0.513646722278
0.513810266429
0.513984005036
0.514173858042
0.514385501861
0.514623151409
0.514883017816
0.515159169209
0.515449838584
0.515751504443
0.51606172825
0.516378163576
0.516698680673
0.517024465879
0.517355353904
0.517689036721
0.518023630461
0.518359749393
0.518695796025
0.519024969964
0.519344210374
0.519658179501
0.519966353963
0.520257256172
0.520555014583
0.520851593491
0.521136477091
0.521408367153
0.5216597289
0.521898105485
0.52214346542
0.522378740756
0.522603153707
0.522817240902
0.523021934628
0.523217722024
0.523403643026
0.523578063751
0.52373949303
0.523891184461
0.524036863469
0.524176247852
0.524306074889
0.524424061764
0.524531237825
0.524629423675
0.524721167798
0.524809516569
0.524895727165
0.524979441307
0.525061693428
0.525145087868
0.525231926174
0.525322070755
0.525413404815
0.525504035475
0.525592761356
0.525678950277
0.525762082615
0.525841689702
0.525917535991
0.525989673098
0.526058290451
0.526123657688
0.526186144967
0.526246184068
0.526303831231
0.526358606161
0.52640956404
0.526456170622
0.526499286133
0.526540647244
0.526581575278
0.526622440351
0.526663005233
0.526702878092
0.526741801972
0.526779742538
0.526816902033
0.526853644441
0.526890407952
0.526927563861
0.52696538418
0.527004076981
0.527043907396
0.527084877958
0.527126197789
0.527166183548
0.527202848813
0.527235276075
0.527264638198
0.527293286183
0.527323019343
0.527354206056
0.527386454518
0.527419315246
0.527452601449
0.527486264987
0.527520242515
0.527554420372
0.52758863012
0.527622736652
0.527656598851
0.527690131421
0.527723239624
0.527755854521
0.527787885976