/*--------------------------------*- C++ -*----------------------------------*\
| =========                 |                                                 |
| \\      /  F ield         | OpenFOAM: The Open Source CFD Toolbox           |
|  \\    /   O peration     | Version:  v1806                                 |
|   \\  /    A nd           | Web:      www.OpenFOAM.com                      |
|    \\/     M anipulation  |                                                 |
\*---------------------------------------------------------------------------*/
FoamFile
{
    version     2.0;
    format      ascii;
    class       volScalarField;
    location    "12";
    object      alpha;
}
// * * * * * * * * * * * * * * * * * * * * * * * * * * * * * * * * * * * * * //

dimensions      [0 0 -1 0 0 0 0];


internalField   nonuniform List<scalar> 
12225
(
0.393455495397
0.334446711674
0.353207241428
0.353461436817
0.364970675027
0.369258198907
0.375115630388
0.379166482559
0.381392296927
0.380635953526
0.375421035265
0.367047327234
0.360203198955
0.348534101332
0.325748248297
0.296924715912
0.260737132786
0.229798764048
0.23433929259
0.286695011637
0.319167252295
0.314485658906
0.323622313959
0.326136706974
0.330050592642
0.332606529136
0.334168598182
0.334046699184
0.330889457792
0.324880077777
0.318484332278
0.308938288585
0.292189929451
0.27124169096
0.248818182719
0.246396949676
0.365785692964
0.306826362456
0.322161312515
0.321267627145
0.330527344488
0.33393397978
0.338411515654
0.341502073252
0.343670942947
0.344417054551
0.343027956908
0.33933667381
0.3338267548
0.325051977825
0.311047431703
0.294137686645
0.279032351246
0.28382839985
0.320300439551
0.292411555054
0.319203789667
0.313313188449
0.322018032256
0.323810293964
0.327062945454
0.329097940892
0.330528719709
0.330927863055
0.32993985934
0.327358690992
0.323045753599
0.316193075833
0.306168023866
0.295184930813
0.288350206484
0.297200082666
0.337491367547
0.293743276907
0.317140268064
0.310704923209
0.318397832966
0.319275138906
0.321613343693
0.32272469629
0.323219553812
0.322770336462
0.32121831148
0.318446442116
0.314245153638
0.30827738035
0.300758224478
0.293928778299
0.292206569891
0.30180533189
0.333809649797
0.290055355884
0.31430443962
0.306431717902
0.313593857577
0.31373399631
0.315502287314
0.316072257924
0.316075867682
0.315247461368
0.313518548099
0.310837895544
0.307076471166
0.302215400658
0.296910721071
0.293258772192
0.294520791049
0.303620227153
0.333766245934
0.28841909285
0.311831568692
0.303056126517
0.309594083747
0.309090896873
0.310356169633
0.310482819296
0.310127702704
0.309072830816
0.307305938257
0.304829023967
0.30164098052
0.297928116032
0.294519001522
0.29318392853
0.296093795763
0.304433045429
0.332772486744
0.287081231652
0.309746632947
0.300232539846
0.306219698346
0.305183664428
0.306049145154
0.305847453651
0.305281725873
0.304153217959
0.302478260655
0.300306947784
0.297753469994
0.295125119585
0.293268897697
0.29355550396
0.297335126093
0.304895368669
0.331888600816
0.286289196681
0.308088113186
0.298025960878
0.303504071976
0.30201203102
0.302546450866
0.302112134536
0.301450179043
0.300356692393
0.298863703602
0.297072372205
0.295177827704
0.29354178695
0.29291822544
0.294327606728
0.298524286052
0.30542052142
0.331247549284
0.285963598067
0.306967429172
0.296505306924
0.301552271802
0.299684686727
0.299973490263
0.299398307668
0.298711788547
0.297704444752
0.296445452851
0.295083341782
0.293854659868
0.293107187309
0.293455446711
0.295616849175
0.29996921525
0.3062394609
0.331494050124
0.285886423454
0.306670695135
0.295842411465
0.300642318659
0.298555509042
0.298753934581
0.298139108644
0.297488013562
0.296620053854
0.29564196003
0.29470579144
0.294044154769
0.293955697345
0.294920421023
0.297419949874
0.30159918528
0.307164063148
0.335536528722
0.286004692683
0.308156081424
0.296740411448
0.301599267162
0.299408570649
0.299581213467
0.298955841492
0.298385822896
0.297663094547
0.296839130301
0.296085007179
0.29563983217
0.295785328004
0.296888372051
0.299280486649
0.303020642927
0.307821895273
0.338860670334
0.286675749477
0.309642814711
0.297809655365
0.302494413199
0.300128958052
0.300195644614
0.299485440077
0.298817765437
0.29800687729
0.297162421446
0.296458803776
0.296165608278
0.296485086476
0.297718898307
0.300064576985
0.303490283829
0.307743597763
0.342874264636
0.287512252221
0.311328866285
0.298956266979
0.303429788331
0.30071116932
0.300470752555
0.29953579672
0.298750060473
0.297925887489
0.297179321373
0.296698277582
0.296715736664
0.297370847072
0.298821467123
0.301186784804
0.304329139486
0.308109175637
0.348078265578
0.288428538796
0.313440960278
0.300346220985
0.304600978422
0.301465959611
0.300877102339
0.299677970439
0.298756326672
0.297958939099
0.297368223318
0.297180242305
0.297566816779
0.298546553966
0.300195706453
0.302537368724
0.305421201778
0.308714489297
0.353538812898
0.289414039057
0.315849169332
0.302044301785
0.30618256418
0.30268860883
0.301838823769
0.300443638617
0.299458949778
0.298699035537
0.298288241545
0.298338407401
0.299004830557
0.300183428084
0.301913760291
0.304145330311
0.30674816116
0.309631075745
0.358456937936
0.290314961566
0.31828558859
0.303905649032
0.308073483201
0.304363095637
0.303400442616
0.30193982158
0.300972364944
0.300317433515
0.300042531958
0.300270165969
0.301080230472
0.302342052066
0.304026739173
0.306104782942
0.308413433031
0.310960310492
0.363088603132
0.291008892345
0.320602443467
0.305756906454
0.310094336534
0.306311885848
0.305380624044
0.30395215292
0.303064658064
0.302516985763
0.302358243334
0.302692832819
0.303567049662
0.304819365119
0.306409686562
0.308313126917
0.310371817391
0.312623851564
0.365629633693
0.291113228056
0.321825960528
0.306800562945
0.311417191741
0.307771147653
0.307054659335
0.30582040365
0.305137071561
0.30478339192
0.304793417512
0.305250076528
0.306186144752
0.307425834381
0.308935751403
0.310702683929
0.312579475925
0.314612499279
0.360277512676
0.290465418775
0.320259797188
0.306075008699
0.311155478126
0.30816162932
0.30806633786
0.307467060858
0.307355566835
0.30751073631
0.307937009276
0.308700676273
0.309838569241
0.311188508395
0.312721810953
0.314434959978
0.316195714908
0.318040728133
0.356144775232
0.289447753574
0.318411814332
0.304839058814
0.310276583168
0.307803187532
0.308199356358
0.308059861931
0.308386085337
0.308901710889
0.309618918043
0.310581071291
0.311858020134
0.313264021026
0.314808691423
0.316469373112
0.318155875935
0.31987951822
0.352872346348
0.288369707369
0.31663648529
0.303583292683
0.309301485411
0.307282422987
0.308078404053
0.308338849836
0.30900710688
0.309812294361
0.310766269679
0.311889168059
0.313263755165
0.314726785957
0.316275770026
0.317911887014
0.319539356976
0.321201364414
0.349078806619
0.287123569423
0.314839224704
0.302278225722
0.308277591146
0.306699798737
0.30787976557
0.308505486713
0.30949150097
0.310576775113
0.311730238049
0.313016234638
0.314498988438
0.316036424516
0.317603309563
0.319248614077
0.320853485272
0.322476774212
0.346081788352
0.286087497643
0.312862517544
0.30090880366
0.307177009568
0.306026173216
0.307568081742
0.308546164092
0.309822787177
0.311140718734
0.312490894501
0.313912852515
0.315491656076
0.317080092752
0.318695609568
0.32035006737
0.321960530319
0.323521396681
0.339313891177
0.284145582313
0.311288591341
0.299836245711
0.306381451708
0.30566505849
0.3075517488
0.308833555779
0.310378500147
0.311930679201
0.313477346582
0.315037561377
0.316727335616
0.318405237781
0.320079784968
0.321805986676
0.323503959628
0.325186258228
0.346334050199
0.285262772199
0.307872198969
0.29780747315
0.304318468095
0.303999059817
0.306102722553
0.307628298614
0.309375187578
0.311114399764
0.312802751049
0.314466477682
0.316213284953
0.317938418991
0.319646417107
0.321378008095
0.323066687152
0.324554524267
0.303427694641
0.277928126001
0.307159815629
0.296837340195
0.303941103335
0.304068810567
0.30656967952
0.308449317175
0.310536050862
0.312617583977
0.314670637098
0.316563486513
0.318472186866
0.32036105654
0.322184450995
0.324036941427
0.325912005189
0.327981738347
0.391744053739
0.289869360629
0.296851629694
0.291700218716
0.297648288891
0.29816532154
0.300444505563
0.302130675665
0.303933868934
0.305729084108
0.307381274959
0.308917031777
0.310523255226
0.312119072855
0.313696700765
0.315401790795
0.317204715362
0.318604399358
0.173815095872
0.264570226221
0.292781507518
0.285335540973
0.291892124296
0.292793897147
0.295745599078
0.298348605996
0.301331662557
0.304552738452
0.307908502573
0.311048144797
0.31422728168
0.317535793634
0.320887922554
0.324294008184
0.327792726713
0.331198037808
0.330867213778
0.302114548834
0.305602042228
0.304178025345
0.311554246096
0.312463723171
0.314947424721
0.316852883142
0.318789838246
0.320483195393
0.321836936372
0.323098921412
0.324425174774
0.325433672436
0.326125617036
0.326695556958
0.326970806526
0.327689718928
0.476037848002
0.476395757953
0.476578126636
0.476559763539
0.476352554693
0.475995235784
0.475576237809
0.47513609337
0.474700431614
0.474286254005
0.473904465427
0.473561490834
0.473260595316
0.473002779947
0.472787473763
0.472612793955
0.472476292198
0.472374595445
0.472304593237
0.472263199071
0.472247056244
0.472253849281
0.472280217889
0.472325392972
0.472387370317
0.472466560401
0.472561256922
0.472671735753
0.472797249169
0.472938603893
0.473095434726
0.473268242043
0.473456524128
0.47366103568
0.473881471978
0.474117629125
0.474368308802
0.474634146909
0.47491389608
0.475207377672
0.475513162765
0.475830366014
0.476157261598
0.476492078148
0.476832691213
0.477176491078
0.4775209028
0.477862828413
0.478199078038
0.47852678464
0.478843200275
0.479147111991
0.479435464679
0.479704255749
0.479948262033
0.480162550192
0.480341860359
0.480481007992
0.480574637016
0.480617698342
0.480606305909
0.480539516218
0.480416750833
0.480236074844
0.479997606205
0.479703841906
0.479356545307
0.478957659816
0.478510400424
0.478017602098
0.477483606968
0.476912436502
0.476309018933
0.475677784406
0.475023622806
0.474350743684
0.473663383501
0.472966287527
0.472263454095
0.471557675822
0.470851185026
0.470147357832
0.469448306928
0.468756668013
0.468071565304
0.467395489667
0.466728229299
0.466063374991
0.465404376675
0.464747404419
0.464091746936
0.463437308983
0.462782478546
0.462154560194
0.461569248627
0.460989845225
0.460385826906
0.459773226595
0.459155539043
0.458539402004
0.457819275428
0.457015865149
0.456949044092
0.456989079312
0.456873053108
0.456537701765
0.456015732978
0.455782962689
0.455469389397
0.455175300763
0.454918415274
0.454694811504
0.454495507659
0.454314910962
0.454148799264
0.453994370058
0.453848734196
0.453708739755
0.453573557666
0.453444256978
0.453324267447
0.453214894114
0.453114857556
0.453023064999
0.45293666819
0.452854412389
0.452775535025
0.452699519146
0.452625965341
0.452554474859
0.452484672028
0.452416337715
0.452349329122
0.452283713358
0.452219514442
0.452156914771
0.452096007115
0.452036481724
0.451978884084
0.451923507478
0.45187230986
0.451824024272
0.45177950684
0.451740218133
0.451707799246
0.451684024275
0.451669977533
0.45166645446
0.451674159226
0.451693647843
0.451726015695
0.451772798804
0.451835731167
0.451916467057
0.452016791115
0.452138522579
0.452283701827
0.452454557114
0.452654010604
0.452885609998
0.453154661388
0.453466825999
0.45383010451
0.454255747567
0.454759126065
0.455357097904
0.456070402238
0.456915367335
0.457904986599
0.45906181499
0.460398663311
0.461912187761
0.463584856566
0.465376703881
0.467229659735
0.469199852309
0.471235880089
0.473260188434
0.475163427185
0.476646473971
0.476139880001
0.476373754571
0.47627699966
0.475991459415
0.475644062288
0.475288598955
0.474946430693
0.474627471822
0.474335297259
0.474071404532
0.47383598323
0.473629896702
0.473452744085
0.473304596834
0.473184513829
0.473091657577
0.473024414888
0.472981059468
0.472959153414
0.472957142952
0.472972408468
0.47300341535
0.473047665474
0.473104805142
0.473173243193
0.47325366149
0.473344972553
0.473447834199
0.473562192548
0.473689170733
0.473828683221
0.473981542776
0.474148113306
0.474329418134
0.474524972633
0.474735379995
0.474960248201
0.475199796011
0.475453502263
0.475721480461
0.476002804177
0.476296740186
0.476601914338
0.476916673387
0.477238926385
0.477566066646
0.4778949353
0.478222137726
0.478543294815
0.478853542172
0.479145549839
0.479414583835
0.479658015712
0.479873190435
0.480056493078
0.480204388092
0.480313348253
0.480377983457
0.480392639931
0.48035551307
0.480265389339
0.480120136993
0.479919918163
0.479667565626
0.479362417678
0.479003912447
0.47859307424
0.478131030292
0.477619325749
0.477059468707
0.476453733782
0.475804469183
0.475115096819
0.474389160546
0.473630684164
0.472844180905
0.472034619873
0.471207184551
0.470367345467
0.469519223024
0.468666220874
0.467812643091
0.466963325807
0.466120885904
0.465284469803
0.464460011539
0.463654632088
0.462858776986
0.462051074762
0.461248552866
0.460479834485
0.459709512217
0.458895500531
0.458065874303
0.45730411882
0.45661467677
0.455888713348
0.455307462804
0.454728512195
0.454114408719
0.453526724778
0.452808320235
0.452304678332
0.451754094541
0.451250159089
0.450779830637
0.450540926703
0.450375813154
0.450228898975
0.450053717814
0.449853776271
0.44964784146
0.44943933307
0.449230461665
0.44902150437
0.44881243376
0.448601974382
0.44838845356
0.448171381575
0.447953669923
0.44773932844
0.447530351501
0.447326942245
0.447127515053
0.446930234444
0.446734252998
0.446538959195
0.446344011717
0.446149022954
0.445953871924
0.445758489591
0.445562888014
0.445366976799
0.445170752029
0.444974021001
0.44477651079
0.444577565262
0.444376331185
0.444172140093
0.443965455258
0.443756706619
0.443544812183
0.443329438312
0.443110866706
0.44288995771
0.442667153694
0.442442095846
0.442213855823
0.441981272322
0.441743393072
0.441499173758
0.441247490897
0.440987220051
0.440717756016
0.440439301893
0.440152740922
0.439860083214
0.439563936842
0.439267868683
0.438975138496
0.438690695151
0.438420041096
0.43816854085
0.437940209358
0.437738716234
0.437567007482
0.437421412732
0.437309508638
0.437230342247
0.437182205333
0.437166625756
0.437190758765
0.437264864268
0.437393416156
0.437645194958
0.437929081118
0.438265243878
0.438643733087
0.439020130343
0.439414313421
0.475775128218
0.475850635918
0.475811747706
0.47568616868
0.475550275102
0.47543596879
0.475335103058
0.475240019019
0.475145585813
0.475051156207
0.474957543597
0.474866915224
0.474781492432
0.474703576844
0.474634862501
0.474576719436
0.47452976299
0.474494369294
0.474470174293
0.474456748583
0.474453187642
0.474459472916
0.474474047356
0.474497271058
0.474528714119
0.474569100944
0.474618180748
0.474677167402
0.474746397454
0.474827152322
0.474919889844
0.47502597002
0.475145642079
0.475279860627
0.475428859056
0.475593086018
0.475772035768
0.475966227625
0.476175075612
0.476398286394
0.476634969192
0.47688412974
0.477144274742
0.477413584581
0.477689830802
0.477970416524
0.478252216877
0.478531831871
0.478805417007
0.479068842585
0.479316157485
0.479541178216
0.479737164645
0.479899803806
0.480025757505
0.480112389881
0.480157504696
0.480161312843
0.480124812821
0.480046585061
0.479924073685
0.479755242962
0.479535420912
0.479260890219
0.478931342048
0.478544693716
0.478099270747
0.477594635953
0.477032025951
0.476413630225
0.475743055665
0.475024754071
0.474263981436
0.473466412041
0.472637941998
0.47178457473
0.470912192662
0.4700267089
0.469133802814
0.468239037098
0.467345486613
0.466457090232
0.465579333439
0.464716104295
0.46386472378
0.463024688421
0.462211147117
0.46142781183
0.460651282224
0.459871563504
0.459121778312
0.458428921699
0.45771691614
0.457007873981
0.456334964833
0.455694469796
0.455110831268
0.454680050541
0.454173229475
0.453476711231
0.452707758593
0.452178758144
0.451929355548
0.45166883911
0.451559123663
0.451398566224
0.451078737324
0.450598331946
0.450132171534
0.44972468409
0.449359045398
0.449026097215
0.448715954241
0.44842301471
0.44814327449
0.447873945127
0.447612247641
0.4473559494
0.447104384363
0.446859859007
0.446624814791
0.446399847228
0.446183628833
0.445973921959
0.445769608873
0.445570015877
0.445374744476
0.445183519499
0.444996119843
0.444812167195
0.444631108753
0.444452385484
0.444275614611
0.444100509095
0.443926753132
0.443753895577
0.443581335287
0.443408718816
0.443236043517
0.443064692896
0.442894964516
0.442726009219
0.442556624454
0.442387041686
0.442218635007
0.442052465176
0.441888957896
0.441728028786
0.441569700965
0.441414031528
0.441261121643
0.441110886168
0.440963393088
0.440818575349
0.440676161641
0.440535622087
0.440396222195
0.440256809659
0.440116225957
0.43997283008
0.439824989398
0.439671105794
0.439509599571
0.439338748467
0.439157331724
0.438963853583
0.438755694656
0.438532352577
0.438296870653
0.438052114798
0.437803055017
0.437560026691
0.437336190957
0.43715758177
0.437051021247
0.437034263014
0.437124254513
0.437323109452
0.43758112861
0.437746922377
0.475322343425
0.475427584386
0.475661572175
0.475775436738
0.475827047314
0.47586668433
0.475888102282
0.475888284166
0.475866655358
0.475825281148
0.475767509425
0.475697804161
0.475619967306
0.47553782778
0.475454343373
0.47537213408
0.475293006748
0.475218387878
0.475148836043
0.475085399931
0.475027753676
0.474976244522
0.474930718162
0.474891831245
0.474859206728
0.474834237373
0.474817218736
0.474809439489
0.474811645702
0.474825441559
0.474851653605
0.474891581817
0.474946033388
0.475016325725
0.475102376882
0.475205116515
0.475324477028
0.475460614131
0.475612978993
0.475781329588
0.475964536415
0.476161401978
0.476370098694
0.476588425168
0.476813721713
0.477042879165
0.477272234266
0.477498042834
0.477715940742
0.477921234034
0.478109356439
0.478276838016
0.47841804697
0.478528173191
0.47860274539
0.47863802121
0.47863054352
0.478578623271
0.478483607796
0.47834817704
0.478172883853
0.477956547223
0.477696046011
0.477387182598
0.477025127735
0.476606697269
0.476130072559
0.475594380526
0.475000012375
0.474348809204
0.473643998214
0.472890340513
0.472093950007
0.471261307741
0.470399342635
0.469515918782
0.468618050244
0.467711087283
0.466802035376
0.465897673774
0.465000474145
0.464110172967
0.463235404177
0.462386170885
0.461555079723
0.460735141071
0.459941187729
0.459207044199
0.458486954195
0.457770617935
0.457092022958
0.456467847666
0.455885578051
0.45532341485
0.454811194772
0.454298072918
0.453723332424
0.453093412981
0.452359587286
0.451662187059
0.451189812969
0.451017634342
0.450912169224
0.450763861962
0.45062218992
0.450331717794
0.449849449973
0.449243118156
0.448658015452
0.448151412543
0.447715586568
0.447335167729
0.446995017976
0.446684959635
0.446397833694
0.446128423463
0.445872522994
0.445626864721
0.44539051041
0.445164597903
0.444950287563
0.444746640624
0.444550754424
0.444360466903
0.444174763776
0.443993167308
0.443815265429
0.443640632512
0.443468762998
0.443299154124
0.443131043035
0.442963880372
0.442797418575
0.442631324195
0.442465173549
0.442298376539
0.44213046712
0.44196146361
0.441792304796
0.441624565039
0.4414588025
0.441293535595
0.441126912144
0.440958925076
0.440790675875
0.440623088969
0.440456446491
0.440290605691
0.440125328291
0.439960341307
0.43979544241
0.439630422411
0.439465397788
0.439300474098
0.439135745639
0.438971341014
0.438807543696
0.43864486473
0.438483955382
0.43832552466
0.438170004491
0.438017902244
0.437869686724
0.437725234776
0.437583972524
0.437444529106
0.437303458631
0.437158407782
0.437007317153
0.43684685634
0.43667535129
0.436494773183
0.436309382426
0.43612820091
0.435970243686
0.435842873746
0.435757445754
0.435710376112
0.435645214795
0.435433764974
0.474802176253
0.475379209489
0.475983038812
0.476205589959
0.476278492017
0.476325918434
0.476353368753
0.476360390425
0.476344424913
0.476306623993
0.476248774276
0.476174109561
0.47608585819
0.475987709083
0.475882594845
0.475773546205
0.475662560005
0.475551882916
0.475442642964
0.475335964475
0.475232361928
0.475133048496
0.475037699054
0.474947506584
0.47486292755
0.474785015605
0.474714368709
0.474652651365
0.474600767733
0.47456033768
0.474532356992
0.474518550691
0.474519552406
0.474536543249
0.474570085834
0.474620946353
0.474688851269
0.474774408667
0.4748770855
0.474996575543
0.475131861238
0.475281866453
0.475444838956
0.475618786355
0.475801166855
0.475989223207
0.476179561796
0.476368626186
0.476552580394
0.476726993637
0.476885906568
0.477025146175
0.47713951407
0.477223978314
0.477274564608
0.477287819152
0.477259932585
0.47718838736
0.477072703318
0.476911403755
0.476703305133
0.476447919378
0.476144440567
0.475791918359
0.475388203592
0.474930204124
0.474415303032
0.47384179411
0.473209893329
0.47252106861
0.471778512401
0.470987003424
0.470153863455
0.469285323818
0.468388464637
0.46747220609
0.466545568138
0.465612297702
0.464676494583
0.463751335656
0.462843596854
0.46194382123
0.46105902612
0.460208196051
0.459380528234
0.458562562746
0.457775150511
0.457038199455
0.456360169891
0.455705931041
0.455057982583
0.454467773914
0.453895841753
0.453357973416
0.452799949752
0.452136426622
0.451416297589
0.450715351226
0.450114418837
0.449745249969
0.449623372555
0.449628399565
0.449561333851
0.449394948953
0.449145764535
0.44876474246
0.448273903191
0.447733376883
0.447217932115
0.446759276142
0.446358038636
0.446005602526
0.445690874161
0.445404981892
0.4451410891
0.444893971633
0.444659498884
0.444434902586
0.44421963832
0.444014662747
0.443820490256
0.443635328094
0.443456213468
0.443281436658
0.443110495938
0.442943323156
0.442779831595
0.44261981683
0.442462928353
0.442308760865
0.442156964034
0.442007202745
0.44185906657
0.441712177642
0.441565968994
0.441419764824
0.441273249505
0.441126900778
0.440982479235
0.440841611416
0.440704734647
0.440569458734
0.440433474586
0.440296311974
0.440158639828
0.440021246243
0.439884360576
0.439747893424
0.439611595166
0.439475179914
0.439338466415
0.439201308347
0.439063550754
0.438925100121
0.438785876879
0.438645939847
0.438505328969
0.438364075662
0.438222332565
0.438080274731
0.437937803438
0.437794853277
0.437651285913
0.437506593179
0.437360276994
0.437211343661
0.437057504841
0.436897604614
0.436731154378
0.436556623993
0.436374615197
0.436188275452
0.43600105984
0.435819746889
0.435655221677
0.435510192888
0.435382327333
0.435252895842
0.435056092159
0.434679272002
0.474317867264
0.475914474437
0.476748859184
0.476781057241
0.476694057157
0.476652200125
0.476630950594
0.47661168903
0.476580822552
0.476532880275
0.47646582128
0.476381550984
0.476281878922
0.47617014093
0.476048710522
0.475920632456
0.475787834081
0.475652570013
0.475515962646
0.475379959959
0.475244889082
0.475111872825
0.474981584986
0.474855121266
0.474732702386
0.474616062175
0.474505994999
0.474404078418
0.474311445529
0.474229901899
0.474160615066
0.474105105058
0.47406439358
0.474039906266
0.474031802502
0.474041077315
0.474067763313
0.474112061204
0.474173374871
0.47425141544
0.474344903381
0.474452660501
0.474572719058
0.474703003426
0.474840866473
0.474983572085
0.475127750297
0.475270215061
0.475407196078
0.475534341474
0.475645862885
0.475737577748
0.475803761244
0.475839162099
0.475839042769
0.475799170405
0.475715642926
0.475588996101
0.475420555673
0.475211039059
0.474960180813
0.474667617316
0.474331698505
0.473951181059
0.473521681111
0.473039473954
0.472500723808
0.471902840877
0.47124570689
0.470531760851
0.469763025283
0.468945037747
0.468086509124
0.467195862889
0.466277122457
0.465340141662
0.464398745818
0.463458630737
0.462516353682
0.46158173298
0.460679880062
0.459776320382
0.458888549196
0.458030919335
0.457215837195
0.456448485188
0.45570735229
0.454999287301
0.454324030393
0.453662805127
0.453056749341
0.452461329448
0.451800689289
0.451133750816
0.450452981396
0.449789808398
0.449207201357
0.44874729921
0.448433771842
0.448303168689
0.448286250531
0.448255385324
0.448120426014
0.447890424881
0.447579500533
0.447187881107
0.446745232359
0.44628772743
0.445850081698
0.445448375998
0.445086203365
0.444760800608
0.444466433677
0.444197393039
0.443948683281
0.443716113409
0.443496230642
0.443287068994
0.443088331912
0.442900845648
0.442724452152
0.442556710645
0.44239491128
0.442237537567
0.442084186293
0.44193481952
0.44178939992
0.441647734342
0.441509483852
0.441374194997
0.441241364962
0.441110322675
0.440980484239
0.440851311002
0.440722101216
0.440592136469
0.440461275765
0.440330638945
0.440202295877
0.440078280934
0.439958524698
0.439840490161
0.439721886824
0.439602021698
0.439481434143
0.439360744041
0.439240234995
0.439119896942
0.438999586313
0.438879303609
0.43875897012
0.438638522995
0.438517890619
0.438396930916
0.438275569602
0.438153708368
0.43803129661
0.437908268674
0.437784653426
0.437660436588
0.4375353876
0.437409304533
0.437281826707
0.437152247227
0.437019702566
0.436882962938
0.436739804591
0.436588951496
0.436429696118
0.436260473705
0.436082025741
0.435897220694
0.435708610139
0.435521105551
0.435343402149
0.435175781781
0.435012205777
0.434829420008
0.434564876338
0.434131100563
0.474027163251
0.477080241549
0.477738058772
0.477272031113
0.476966502558
0.4768283462
0.476754414142
0.476698084521
0.476634368882
0.476556107478
0.476459906816
0.476347282742
0.476219462327
0.476079611499
0.475929559052
0.475772285737
0.475609269458
0.475443010309
0.475274498957
0.475105198241
0.474935887936
0.474768122527
0.474601928275
0.474438806345
0.474279491516
0.474125191306
0.473976769598
0.473836016527
0.473703980204
0.473582402677
0.473472409693
0.473375768808
0.473293232994
0.473225999749
0.473174697484
0.473140040238
0.473121801545
0.473120434979
0.473135252789
0.473165783586
0.473210753057
0.473268978227
0.473338533618
0.47341753548
0.473503581014
0.473594500474
0.473687455305
0.473779897947
0.473869115954
0.473951795336
0.474021434226
0.474074502689
0.474104599709
0.474104392057
0.474067336311
0.473987384908
0.473861165047
0.473691757921
0.473480735675
0.473229831796
0.472939920662
0.472613173183
0.472248893565
0.47184473931
0.471393462492
0.470890961635
0.47033170722
0.469711383411
0.4690303119
0.468292514262
0.467501015389
0.466658540751
0.46577772802
0.464872507684
0.463945707947
0.463003111027
0.462059630015
0.461121122525
0.460178200081
0.459248357814
0.458340857663
0.457470549187
0.456641972016
0.455830327048
0.455046516577
0.454302488844
0.453600094118
0.452938921004
0.452281678498
0.451603697419
0.45094735439
0.450278774589
0.44960730915
0.448977493888
0.44839059606
0.447892089762
0.447507273266
0.447244624334
0.447083859548
0.447009095554
0.446944598766
0.44681972725
0.446613238824
0.446343581264
0.446023162031
0.445661501332
0.445277398
0.444889874449
0.444516101798
0.444165673845
0.443842764514
0.443547468174
0.443277454998
0.443029448518
0.442800040042
0.442585870247
0.442384229843
0.442193597016
0.442013902486
0.441845611456
0.441687908835
0.441538379569
0.441394536507
0.441255051511
0.441119485296
0.440987767931
0.440859821124
0.440735447868
0.440614284235
0.440495840999
0.440379587089
0.440265015167
0.440151656289
0.440038899156
0.439925972694
0.439812159171
0.439697570946
0.439583731719
0.439472982931
0.439367304618
0.439266107439
0.439166896695
0.439067393659
0.438966920004
0.438865836771
0.438764550998
0.43866321015
0.438561678408
0.438459924199
0.438357857327
0.438255460939
0.438152664514
0.438049401087
0.437945615148
0.437841203211
0.437736032851
0.437630017559
0.437523066475
0.437415161364
0.437306189047
0.437195850316
0.437083828998
0.436969709097
0.436852625845
0.436731568324
0.436605286579
0.436471672104
0.436329499055
0.436177973935
0.436015609197
0.435842974877
0.435662514221
0.435475769321
0.435285841315
0.435098764057
0.434912750466
0.434719041141
0.434492461522
0.434177248799
0.433708331278
0.474042584073
0.478707195178
0.478644220316
0.477544307116
0.477103133015
0.476900047576
0.476772379394
0.476661597139
0.476543478735
0.476413128559
0.476267333661
0.476108568282
0.47593710423
0.475756025596
0.475566288962
0.475370672498
0.475170157241
0.474966937779
0.474761594817
0.474556096958
0.474350669594
0.47414668915
0.473944830888
0.473746190224
0.473551013903
0.473361004772
0.473176820008
0.472999930458
0.472831316025
0.472672631446
0.472524841404
0.472389294611
0.472266841109
0.472158651062
0.472064819752
0.471986140373
0.471922515207
0.471873961016
0.471839787158
0.471819568966
0.471811951472
0.471815831635
0.471829473974
0.471851324527
0.471879588018
0.471912812886
0.471949477197
0.471988329856
0.472027928921
0.472066573021
0.472099026223
0.472119158505
0.472118875204
0.472086439157
0.472010025629
0.471879273424
0.471693693621
0.471459962055
0.471182213216
0.470865497119
0.470516770582
0.470143555983
0.469750604105
0.469328305744
0.468867921217
0.468361524851
0.467801318123
0.467178388967
0.46648946058
0.465742679207
0.464945627248
0.464097540911
0.463208674292
0.462305338385
0.461372883443
0.460425126275
0.459484487235
0.458558632708
0.457659209215
0.456791339034
0.455934517431
0.455101551945
0.454305211446
0.453545902127
0.452827724761
0.452146424387
0.451480041521
0.4508086371
0.450128957731
0.449456038954
0.448820882247
0.448201384798
0.447632612975
0.447127513067
0.446685964194
0.446332346917
0.446070224938
0.445892278643
0.445765720078
0.44565966476
0.445523750945
0.445333911724
0.445095286729
0.444822452497
0.444523313843
0.444204285654
0.44387486407
0.443545079665
0.443224580743
0.442920022448
0.442635275573
0.44237161114
0.44212842845
0.441904036432
0.441696108253
0.441502067703
0.441319851083
0.441148396901
0.440987775018
0.440838208461
0.440698604237
0.440566718404
0.440440430405
0.440318524832
0.4402005036
0.440086220249
0.43997555953
0.439868328191
0.439764190254
0.439662709642
0.439563403144
0.439465796044
0.439369345483
0.439273376257
0.43917699315
0.439079552995
0.438981463025
0.438884479124
0.438791104233
0.438702884132
0.438618988633
0.438537037847
0.438454993878
0.438372244542
0.438288975829
0.438205457226
0.438121663622
0.438037498725
0.437952859518
0.437867708431
0.437782069957
0.437695913971
0.437609202241
0.43752184574
0.437433725464