/*--------------------------------*- C++ -*----------------------------------*\
| =========                 |                                                 |
| \\      /  F ield         | OpenFOAM: The Open Source CFD Toolbox           |
|  \\    /   O peration     | Version:  v1806                                 |
|   \\  /    A nd           | Web:      www.OpenFOAM.com                      |
|    \\/     M anipulation  |                                                 |
\*---------------------------------------------------------------------------*/
FoamFile
{
    version     2.0;
    format      ascii;
    class       volScalarField;
    location    "4";
    object      alpha;
}
// * * * * * * * * * * * * * * * * * * * * * * * * * * * * * * * * * * * * * //

dimensions      [0 0 -1 0 0 0 0];


internalField   nonuniform List<scalar> 
12225
(
0.372021887384
0.370266335463
0.372079371085
0.374678229925
0.385973996773
0.391078970509
0.397878259557
0.40315304635
0.406618507577
0.407048672829
0.403208920898
0.396396279483
0.391761772441
0.383973664216
0.367920154357
0.35007188747
0.329171803643
0.304759450426
0.332380319459
0.326536526736
0.356950818624
0.351973988455
0.360350799057
0.363147464452
0.367448450534
0.370838568452
0.373569668811
0.375163791701
0.374646527948
0.372182333053
0.370508290133
0.367504971951
0.359839892102
0.350693873778
0.340067246713
0.335056180127
0.361407517558
0.338538239213
0.357111454311
0.354073869841
0.362973764414
0.366120215702
0.370631032737
0.374044091864
0.376780807714
0.378535748047
0.378866118527
0.377786080254
0.376096194742
0.372843384872
0.366689577121
0.359827936989
0.353613192582
0.355560768804
0.367707802251
0.335028875044
0.357351658062
0.351822909505
0.359759154059
0.361573039173
0.364877324494
0.367250941524
0.369187414
0.370427692729
0.370764068648
0.370162028105
0.36876810316
0.366117439587
0.361875136219
0.357638326232
0.355232873146
0.359764419623
0.373273602108
0.334310773703
0.357043501116
0.3502402101
0.357531662446
0.358434904666
0.360866438923
0.362333212975
0.363356350863
0.363763932959
0.363494943222
0.362582908086
0.361026245379
0.358676609012
0.355730368103
0.353476692639
0.35360446405
0.358885631306
0.376504126754
0.3332815886
0.356288749667
0.348382923539
0.355108680199
0.355268093927
0.3570393255
0.357853716697
0.358245813938
0.358103282567
0.357428916509
0.356308056056
0.354747754466
0.352789517099
0.350864339851
0.350056514921
0.351657579734
0.35696503218
0.378334271371
0.332544811688
0.355443221234
0.346671606381
0.352886596088
0.352441845437
0.353702572147
0.354037227441
0.354000645975
0.353518097384
0.352625483757
0.351436398487
0.350017334783
0.348513619085
0.347422951952
0.347624075808
0.350019883253
0.355146761888
0.379272845757
0.332097442006
0.354639892943
0.345210464088
0.350957060218
0.350020749593
0.35088294339
0.350868261792
0.350570272801
0.349922212577
0.348964123048
0.347828824744
0.346638036074
0.345588640603
0.345173959541
0.346068743459
0.348886026931
0.353726179509
0.379694848875
0.331950275387
0.353976726016
0.344069849409
0.349385689832
0.348037019344
0.348579074262
0.348322023099
0.347889516204
0.347197117911
0.346278902181
0.345288947762
0.344384586667
0.343783118091
0.343916251689
0.345310242428
0.348329156149
0.352898433571
0.379932066033
0.332119609384
0.35360807184
0.343380425084
0.348331706136
0.3466522619
0.346963781025
0.346561476172
0.346071482744
0.345391854247
0.344573680778
0.343793799151
0.343223316216
0.343059686111
0.343654529465
0.345399577354
0.348494804826
0.352743684939
0.380738979939
0.332416415285
0.353798162503
0.343295747561
0.348055237026
0.346206311934
0.346448758175
0.346008910639
0.345527272802
0.344920098736
0.34425999122
0.343709094216
0.343421261924
0.343558289162
0.344404018943
0.346242193646
0.349154614549
0.352943687114
0.384395368255
0.332819013467
0.355309434873
0.344376204727
0.349201853018
0.347300256023
0.347530238775
0.347080328203
0.346655134507
0.346138299399
0.345531551137
0.345006093766
0.344720140677
0.344842827195
0.34560230487
0.347211281069
0.349725730919
0.352944883025
0.38698245879
0.333592513658
0.356596024878
0.345382120321
0.350024829545
0.347984565824
0.348115409236
0.347578871563
0.347030409505
0.346369717523
0.345651271713
0.34504169697
0.344737387878
0.344853419623
0.345597623832
0.347106151959
0.349371417109
0.352220517764
0.390110287979
0.334461063345
0.357927101813
0.346323999895
0.350712141865
0.348343480246
0.348156182223
0.347378537097
0.346672852374
0.345936623667
0.345220818613
0.344706143044
0.344563996296
0.344872360459
0.345735018141
0.347248201069
0.34931810716
0.351872550523
0.394226515973
0.335414205012
0.35961142494
0.347466761372
0.351571894447
0.348807868402
0.348252249321
0.347189128986
0.346304683946
0.345528503444
0.344875267641
0.34453900857
0.344643325786
0.345170137086
0.346172152917
0.347674948593
0.34958041833
0.351810302165
0.39854371296
0.336368930742
0.361517668465
0.348838545958
0.352752670823
0.349643150842
0.348798372592
0.34751035629
0.346514895613
0.345711954972
0.345158998323
0.344971430279
0.345272178279
0.34593940846
0.347007496585
0.348444229991
0.350169568052
0.35213822388
0.402493726452
0.337150191699
0.363415172761
0.350301789838
0.354163784835
0.350838764454
0.349840591456
0.348447246822
0.347413963795
0.346653357055
0.346168894314
0.346096273814
0.346494898664
0.347227860294
0.348272561563
0.349622373403
0.351158786681
0.352926530657
0.406071993413
0.337668438115
0.365156997939
0.35169541825
0.355645077155
0.352238021327
0.35122557067
0.349820188566
0.348812336393
0.34810344979
0.347684200602
0.347680245247
0.348125501231
0.34885928065
0.349852314192
0.351102550952
0.352489563492
0.35408019991
0.407931080717
0.337532965062
0.365956869156
0.352341521268
0.356503697492
0.353199805015
0.35235190517
0.35109385032
0.350241185274
0.349683073712
0.349399645881
0.349500552645
0.350011132176
0.35075959718
0.351723844205
0.352911136081
0.354205201863
0.355676226855
0.403597768162
0.336612645105
0.364560961669
0.351544516551
0.356187854345
0.35346210014
0.353194721689
0.352523600347
0.352203440758
0.352120535669
0.352229544329
0.352625291237
0.353338771228
0.354212361239
0.355228679277
0.356401532126
0.357627581022
0.358963306291
0.400302043715
0.335494661384
0.363009836734
0.350427301794
0.355446532807
0.353184528778
0.353380412788
0.353137496379
0.353229359243
0.353488119704
0.353875951893
0.354465901576
0.355322437761
0.356264836332
0.357311513581
0.358457796441
0.359638502287
0.360882753581
0.397676077658
0.334401171
0.361557695786
0.34935407
0.354687280337
0.352838170704
0.353414745328
0.353546978079
0.353966545502
0.354502850406
0.355121819043
0.355873737263
0.356835983405
0.357848110424
0.358917066029
0.360060015723
0.361203723056
0.362411224708
0.394992695593
0.333231657926
0.360155874473
0.34830238333
0.353944688049
0.352496318889
0.35344083904
0.353922775933
0.354645070372
0.355453243953
0.356268292143
0.357184407169
0.358259309997
0.359356437415
0.36045683307
0.361621233455
0.362753861608
0.363921660628
0.392222928993
0.332027063499
0.358737136837
0.347305384101
0.353277539987
0.35221287341
0.353508693173
0.354321968652
0.355327503795
0.356363564958
0.357379191636
0.358440713462
0.359627614355
0.360796195745
0.361969675197
0.363173096199
0.364341454509
0.36549827333
0.389229320002
0.330857659092
0.357303241666
0.346370669805
0.352604665678
0.35192519743
0.353548058144
0.354650231984
0.355910987422
0.35717283239
0.358374181485
0.359568801002
0.36086520285
0.362124986422
0.363361842358
0.364632088618
0.365864616042
0.367044420967
0.385391278044
0.329796599774
0.355532765981
0.345287155413
0.351733062987
0.351390481995
0.353272999219
0.354632473487
0.356118803423
0.357588121562
0.358967983376
0.360295077383
0.361677142654
0.36302496255
0.364349074965
0.365693186679
0.367012092581
0.368216190376
0.378354902658
0.328017019246
0.353201691899
0.34377016075
0.350293022803
0.350272035127
0.3523872609
0.353961139672
0.355660017242
0.357354814257
0.358973294529
0.360450039472
0.361957343315
0.363454509237
0.364900990239
0.366386287846
0.367850411329
0.369365465166
0.373187467907
0.329515224544
0.347747333204
0.340528566409
0.346949003103
0.347278529134
0.349538979119
0.351210035405
0.352947816132
0.354674867627
0.356240796674
0.357645944732
0.359084216544
0.360481576178
0.361816415034
0.363200174329
0.36459551125
0.365330342304
0.321940382054
0.310022383673
0.34344812298
0.334268254108
0.340338159135
0.340882822623
0.343291514908
0.345406153726
0.347836426908
0.350515983292
0.353345820242
0.35596996016
0.358603789808
0.361379038907
0.364236617949
0.367185694881
0.370206563849
0.373523247225
0.3456695595
0.35018923453
0.34674715297
0.34436181745
0.351474738584
0.351734739767
0.353705718239
0.355087254058
0.356418216455
0.357465416512
0.358058245695
0.35852947475
0.35904907655
0.359210130169
0.35903421254
0.358826748247
0.358605316855
0.358935245914
0.476047294829
0.476385979781
0.476599523008
0.476589632692
0.476402826741
0.476095988212
0.475731576606
0.475340847272
0.474944518361
0.47455638952
0.474185377655
0.473836626753
0.473512863823
0.473214819235
0.472942159187
0.47269331486
0.472466548048
0.472259049224
0.472068509131
0.471892485756
0.471728568129
0.471574881499
0.471428874905
0.471290261772
0.471157585311
0.471031613833
0.470911187361
0.47079689696
0.470688312129
0.470586637757
0.470491887668
0.470404865631
0.470325313025
0.470254492321
0.470192364412
0.470138991581
0.470093593945
0.470057165515
0.470028685302
0.470008369863
0.469995132292
0.469988645693
0.469987700246
0.469991336056
0.469998192215
0.470006710851
0.470015312225
0.470022124366
0.47002517013
0.470022747588
0.470013044705
0.469995701133
0.469968811857
0.469930114423
0.469876328339
0.469804628136
0.469712193201
0.469596728743
0.469456408488
0.469291263686
0.469101777091
0.468887993451
0.468649457898
0.468386112194
0.468098125752
0.467787305086
0.467455210526
0.467103853404
0.466736064698
0.466354140961
0.465961345643
0.465560419815
0.465154432234
0.464745997333
0.464338039416
0.46393272525
0.463532402818
0.463139856425
0.462757011547
0.462385034131
0.462024783151
0.461677858076
0.461344950865
0.461027698221
0.460724113448
0.460434765214
0.460157737482
0.459887135682
0.459625312243
0.459360897896
0.459091702095
0.458822560537
0.458552816341
0.458304281771
0.458094506912
0.457897153277
0.45767192988
0.457405220652
0.45709898344
0.456782206322
0.456408324477
0.45599627483
0.456243476325
0.456466060301
0.456498261646
0.456387557012
0.456234460721
0.456175746508
0.45605134917
0.45591901941
0.455798560063
0.455689648403
0.455589689439
0.455496594907
0.455408619098
0.455324559346
0.455242794343
0.455161293267
0.455080088004
0.455000845285
0.454927296624
0.454861076514
0.454801351656
0.454747463597
0.4546969041
0.45464868584
0.454602265514
0.454557429491
0.454513966149
0.454471715462
0.454430382144
0.454389772535
0.454349697087
0.45431026112
0.454271496649
0.454233566059
0.454196510632
0.454159995412
0.454124424988
0.454089850605
0.454057859208
0.45402703627
0.453997968857
0.453971754969
0.453949453971
0.453932058706
0.453919694601
0.453912140472
0.453909034032
0.453909945097
0.453914843105
0.453924147774
0.453938596415
0.453959176569
0.453987440526
0.454025408173
0.454075805567
0.45414200165
0.454228623353
0.454341132092
0.454487311504
0.454675646281
0.454917494933
0.455227207574
0.455623461052
0.456126203684
0.456758803683
0.45754104019
0.458489298448
0.459628178321
0.460970918465
0.462512597908
0.46422956556
0.466071194545
0.467979253095
0.469983900974
0.472005511016
0.473944414659
0.475682136235
0.476883249912
0.476109186253
0.47640344037
0.476387396129
0.476158106399
0.475834263436
0.47547676866
0.475110085884
0.474746468372
0.474391178751
0.474047011319
0.473715376792
0.473397867111
0.47309484256
0.472806930201
0.472533938731
0.472275675021
0.472031404966
0.471800145913
0.47158046319
0.471371541078
0.471171727242
0.470980279745
0.470795528054
0.470617615692
0.470445618052
0.470280558672
0.470121554981
0.469969380142
0.469824065227
0.46968673031
0.469557145495
0.469436086674
0.469323818966
0.46922119847
0.469127600032
0.469043563958
0.46896853538
0.468902632965
0.46884521298
0.468796300996
0.468754897303
0.468720387313
0.468691574721
0.468667239927
0.468645854414
0.468625637231
0.468604467958
0.468580173842
0.468549882119
0.468510595918
0.468457394706
0.468387825706
0.468300949084
0.468195943127
0.468071307987
0.467925845987
0.467758487614
0.467567184308
0.467351048582
0.467112295001
0.466852807775
0.466574398665
0.46627798148
0.465964358718
0.465634060482
0.465287660681
0.46492623091
0.464550966465
0.46416340898
0.463765091852
0.463357954311
0.462943817853
0.462525078431
0.462103711586
0.461681701797
0.461261279738
0.460844536345
0.460433479582
0.460030174235
0.459635607654
0.459250060251
0.458874748919
0.458511326843
0.458159759401
0.457816975746
0.457486203689
0.457171771012
0.456863084325
0.456536854931
0.456205781356
0.455893126774
0.455564582811
0.455182064225
0.454765450344
0.454397728008
0.454091802788
0.453736832635
0.45351801617
0.453285069479
0.452993947115
0.452649378807
0.452236517251
0.452216646921
0.452140419499
0.452047338962
0.451944976439
0.451874151142
0.451847862981
0.451795669911
0.45172279156
0.451628845927
0.45152386593
0.451412381604
0.451296758512
0.451178047088
0.451056716217
0.450932088546
0.450803097497
0.450669730913
0.450535007528
0.450402888094
0.450275439103
0.4501532345
0.450035162567
0.449919808536
0.449806555265
0.449694997064
0.449584980053
0.449476374645
0.449369116086
0.449263089005
0.449158213224
0.44905444804
0.448951831432
0.448850258131
0.448749555232
0.448649216019
0.448548518774
0.448446878621
0.448344725554
0.448242533148
0.448139535733
0.448035940232
0.447932633854
0.447831084559
0.447732377651
0.44763675889
0.447543959019
0.447453530381
0.447365061035
0.447277984016
0.447191438344
0.447104284102
0.447015250613
0.446923044081
0.446826168477
0.446723151907
0.446612374195
0.446492603419
0.446362166861
0.446220615432
0.446068122304
0.445905388732
0.445733379936
0.445554328547
0.445371921682
0.445184500535
0.445003972606
0.444835293166
0.444684762779
0.444561849019
0.444479552027
0.444452245442
0.444463694833
0.444593031597
0.444745107292
0.444924976335
0.445114512049
0.44528762786
0.445542080815
0.47595510487
0.476131563789
0.476082061524
0.475906455228
0.475681113235
0.475446191876
0.475205246514
0.474958371176
0.474704547294
0.474444778267
0.474180453075
0.473913821234
0.473647169801
0.473382757482
0.473122412167
0.47286757896
0.472619148954
0.472377665816
0.472143043194
0.471915049951
0.471693162661
0.471477402747
0.471266470646
0.471060815536
0.470860029414
0.470664698129
0.47047449838
0.470290403043
0.470112480557
0.469941738891
0.469778375351
0.469623455149
0.469476955968
0.469339735664
0.469211865805
0.469093705455
0.468984824748
0.468885863966
0.468796356377
0.468716340773
0.468645321803
0.468582931434
0.468528426452
0.468480999199
0.468439595751
0.468403038867
0.468369746038
0.468337990049
0.468305737842
0.468270764492
0.468229289489
0.468177824856
0.468112315283
0.468030405832
0.467930174666
0.467810141598
0.467669168898
0.467507505915
0.467324732317
0.467118457006
0.466887063339
0.46663076909
0.466350281867
0.466046302234
0.465719570882
0.465371378976
0.465003146311
0.464616582629
0.464213987917
0.463797655159
0.463370405654
0.462935073601
0.462494511987
0.462051578914
0.461608951414
0.461169075773
0.460734101291
0.46030609758
0.459886719948
0.45947759098
0.459078057532
0.458688526058
0.458310623903
0.457944714552
0.457585851311
0.457231359775
0.456891975082
0.456567555122
0.456234764615
0.455878005653
0.455521138424
0.455190451922
0.454816201094
0.454422776258
0.454042945329
0.453652087679
0.453275809175
0.453050782695
0.452827099051
0.452586664824
0.452379668881
0.452336797113
0.452371830883
0.452285198924
0.452224950057
0.452172028366
0.452083782445
0.451933513318
0.45175892534
0.451599240365
0.451448506606
0.451303754758
0.451163103544
0.451025356354
0.450889649274
0.450755210029
0.450620804711
0.450485419684
0.45034926555
0.450215080522
0.450085505485
0.449961449036
0.449842113583
0.449725886794
0.449612163549
0.449500665444
0.44939122707
0.449283633121
0.449177641543
0.449072966173
0.448969285137
0.448866300454
0.448763830774
0.448661752727
0.44855993333
0.448458132271
0.448355974863
0.44825329579
0.448150128596
0.448047594638
0.44794574021
0.447843716627
0.44774048304
0.447636415902
0.447532870063
0.447430805782
0.447330607823
0.447232106117
0.447135101401
0.447039363457
0.446944843792
0.446851455575
0.44675942891
0.446669041846
0.446580632371
0.446494581178
0.446411459891
0.446331802313
0.446256300647
0.446185465007
0.446119796306
0.446059596614
0.446004693672
0.445954032971
0.445905964327
0.445857641957
0.445803341877
0.445738121057
0.445659624436
0.44556372491
0.445447286698
0.445310369304
0.445155065945
0.444987707618
0.444825303566
0.444684013644
0.444568266802
0.444480033512
0.444412219774
0.44432153893
0.4759099196
0.475924735846
0.475885844915
0.475792081811
0.475662744274
0.475524543394
0.475369007855
0.475193722558
0.474997941816
0.474782903735
0.474551386296
0.474307202034
0.474053828896
0.473794754685
0.473532833234
0.473270511349
0.473009596489
0.472751396648
0.472496583035
0.472246045311
0.471999460642
0.471757132933
0.471518902337
0.471285155532
0.471055478742
0.470830983749
0.470611631474
0.470398305559
0.470191370451
0.469991967538
0.469800431292
0.469617669147
0.469444121788
0.469280699755
0.469127097054
0.468984145449
0.46885165569
0.468729874411
0.468618466768
0.468517569288
0.46842655402
0.4683449967
0.468271979415
0.46820647994
0.468147169578
0.468092477702
0.4680403831
0.467988775033
0.467934874273
0.467875658387
0.467808057468
0.467729978068
0.467637465327
0.467527265365
0.467396126584
0.46724163524
0.467061857723
0.46685670967
0.466628607165
0.466380212011
0.466111336695
0.465821977693
0.465512322087
0.465183303556
0.464835808304
0.464470582244
0.464088818019
0.463691965012
0.463281742097
0.462860251904
0.462429727241
0.461992772937
0.461552310308
0.461110734416
0.460670365056
0.460234158022
0.459804097473
0.459380851718
0.458966963428
0.458564768649
0.45817287354
0.457787883617
0.4574146265
0.457058277421
0.456709099255
0.456357646565
0.456012131502
0.45570101318
0.455377711717
0.455027376326
0.454676122592
0.454347771605
0.454025409463
0.453672414864
0.453316660936
0.452966652691
0.452678270413
0.452482277657
0.452321703355
0.45222792463
0.452206867743
0.452221856664
0.452153319463
0.451993739968
0.451849639458
0.451708268139
0.451539533614
0.451335081143
0.451124398943
0.450933072375
0.45075967195
0.450599827344
0.450449761086
0.450306766088
0.450168982044
0.450034904843
0.449903164977
0.449772685652
0.449644081534
0.449519463534
0.449400640224
0.449287396511
0.449177755399
0.449070487446
0.448965349423
0.448862466901
0.448761861155
0.44866340252
0.448566821662
0.448471749482
0.448377755778
0.448284453677
0.448191566224
0.448098899946
0.44800626476
0.447913383016
0.447820110177
0.447726690218
0.447634022583
0.447543355636
0.447454900708
0.447367063172
0.447278115656
0.447188131269
0.447098195202
0.447009263307
0.44692170215
0.446835424664
0.446750235695
0.446665915266
0.446582325287
0.446499311209
0.446416879626
0.446335068144
0.446253931869
0.44617354469
0.446094087686
0.446015742506
0.445938837524
0.445863688813
0.445790327527
0.445718781035
0.445649044603
0.445580620397
0.445512726273
0.445443992256
0.445371388031
0.44529264429
0.445206612602
0.445110662291
0.445002957853
0.444883155941
0.444750261627
0.444604365461
0.444452928403
0.444301654879
0.44414966037
0.443989207855
0.44379462216
0.443503363718
0.475903422428
0.475784078482
0.475786313546
0.475758456626
0.475683015304
0.475591558895
0.475473341592
0.475327062934
0.475152275293
0.474951782882
0.474728851788
0.474487529674
0.474231740508
0.473965374576
0.473691628625
0.473413483083
0.473133053709
0.472852451834
0.472572775431
0.472295014711
0.472019720978
0.471747796477
0.471478865156
0.471213910003
0.470953117865
0.470697149972
0.470446315711
0.470201799082
0.469964021237
0.46973408264
0.469512515325
0.469300509962
0.469098245042
0.468906607434
0.468725853324
0.468556545228
0.468398418575
0.468252182752
0.468117480529
0.467994425427
0.467882525019
0.467781444777
0.46769029023
0.467608122277
0.467533572385
0.467465204497
0.467400952494
0.467338536664
0.467275309598
0.467208026301
0.467132096385
0.467044813027
0.466942463818
0.466821437886
0.466678959515
0.46651285763
0.466321112291
0.466103666497
0.465863461323
0.46560178931
0.465319739462
0.465017846807
0.464696365081
0.464355599954
0.463995947305
0.4636182811
0.463223771174
0.462813949576
0.462391239778
0.461958018562
0.461516988685
0.461070907551
0.460623541606
0.46017661314
0.459732170665
0.459293453961
0.458863530062
0.458440864495
0.458024844769
0.457623285814
0.45723761315
0.456855655167
0.45648050346
0.456124963329
0.455774742192
0.455414199512
0.455058128228
0.454723634319
0.454421678144
0.454107345582
0.453760187002
0.453424561237
0.453067981943
0.452726561095
0.452444759468
0.452225663222
0.452079489317
0.451970509586
0.451872441453
0.451813012684
0.451777914975
0.451721657245
0.451597836872
0.45142596271
0.451256643652
0.45108654134
0.450903793855
0.450707794003
0.450513356352
0.450333208719
0.450168328281
0.450016405597
0.449874541728
0.449740361985
0.449612027433
0.449488044862
0.449367150146
0.44924869907
0.449133545971
0.449023393501
0.448919230154
0.44881981966
0.448722967616
0.44862770613
0.448534093789
0.448442464626
0.448352986573
0.448265604891
0.448180063622
0.448095950639
0.448012773511
0.447930087178
0.447847538013
0.447764901154
0.447681906471
0.447598288969
0.447514129262
0.447430131248
0.447347956368
0.447268899297
0.44719310501
0.447118229712
0.447042218798
0.446964867182
0.446887037486
0.446809624462
0.446732952568
0.446657052096
0.446581793448
0.446507099286
0.446432891869
0.446359140646
0.446285860568
0.446213118469
0.446140974051
0.446069533127
0.445998945093
0.445929366755
0.445861030963
0.445794119619
0.44572852384
0.445664082875
0.44560044063
0.445536708616
0.44547178678
0.445404085121
0.445330652677
0.445249213769
0.445158280451
0.44505509785
0.444938287186
0.444807595638
0.444661717058
0.444500676703
0.44433046223
0.444153057642
0.443964938114
0.443755143556
0.443491805973
0.443117826152
0.475851646336
0.475683508011
0.475741038575
0.475741354916
0.475677715982
0.475600382531
0.475495218822
0.475361374274
0.475198079128
0.475007029263
0.474790866334
0.474553721687
0.474298992095
0.474030612488
0.473751566294
0.473465021478
0.473173195194
0.472878313373
0.472581726
0.472285244962
0.471989257916
0.471694819873
0.471402555762
0.471113251715
0.47082704469
0.470545316728
0.470268482111
0.469997638461
0.469733460804
0.469477199144
0.469229469563
0.468991315155
0.4687633301
0.468546508488
0.468340800992
0.468147141764
0.467965557689
0.467796479991
0.46763971495
0.467495542618
0.467363390495
0.467242978041
0.467133320458
0.467033453447
0.466941895719
0.466857150907
0.466777064416
0.466699457336
0.466621393369
0.466539487143
0.46644905167
0.466347148221
0.466229524616
0.466092388294
0.46593245266
0.465747281503
0.46553537488
0.465299563589
0.465042835401
0.464766538158
0.464471753655
0.464159052078
0.463828182943
0.463478851572
0.463110857425
0.462724575412
0.462320606724
0.461900352156
0.461466614801
0.461023227521
0.460572005776
0.460116552318
0.459661678125
0.459210482751
0.458761547835
0.458318761856
0.457889069023
0.457471749192
0.457059194426
0.456655382498
0.456278207078
0.45588956565
0.455504685117
0.455132344108
0.454781682282
0.454455914166
0.45412697159
0.453802059469
0.453482377906
0.453143349198
0.452808122993
0.452489130395
0.452184440614
0.45193076087
0.451742683426
0.451609942056
0.451519077652
0.451436806869
0.451351221548
0.4512739305
0.451194654529
0.451091447525
0.450951298203
0.450788378079
0.450623705599
0.450457501342
0.45028608964
0.450110580466
0.449938231185
0.449775587771
0.449624337264
0.449483728287
0.449352099541
0.449227784884
0.44910932672
0.448995457613
0.448885086795
0.448778004053
0.448675045579
0.448577635775
0.448486033135
0.44839838586
0.448312732939
0.448228266828
0.448145144151
0.448063739755
0.447984298801
0.4479068085
0.447831028734
0.447756526412
0.44768279395
0.447609346827
0.447535818839
0.4474619258
0.447387361133
0.447311888939
0.44723580402
0.447160401415
0.44708756411
0.447018865741
0.446953853539
0.446889925166
0.446824973516
0.446758549515
0.446691356602
0.446624105261
0.446557122207
0.446490450817
0.446424050083
0.446357913062
0.446292046698
0.446226482668
0.446161264303
0.446096453483
0.446032102042
0.445968289566
0.445905121068
0.445842687792
0.445781121658
0.44572046392
0.445660487803
0.445600911032
0.445541217748
0.445480371045
0.445417122558
0.445349820049
0.445275726154
0.445192706465
0.44509922547
0.444992598399
0.444871658248
0.444736100572
0.444584326456
0.444415865962
0.444234937899
0.444041290749
0.4438298917
0.443588193488
0.443284311278
0.442872381558
0.475737329235
0.475621148369
0.475702262693
0.475676316272
0.475593469356
0.475512169424
0.475409082141
0.47528027356
0.475122014313
0.474935856468
0.474723573234
0.474488785476
0.474234508444
0.473964500757
0.47368145228
0.473388555099
0.473087854957
0.472781931925
0.47247213745
0.47216005768
0.47184677377
0.471533716254
0.471221071227
0.470910267481
0.470601956442
0.470297105311
0.469996418804
0.469701311864
0.469412467093
0.469131191175
0.4688582261
0.468594891719
0.4683415968
0.468099346838
0.467868623486
0.467650141257
0.467443908812
0.46725073286
0.467070405252
0.466903129758
0.466748405701
0.466605926267
0.466474664675
0.466353643358
0.466241338181
0.466136431215
0.466036842487
0.465940574787
0.465845233313
0.465747837444
0.465642681991
0.465527450945
0.46539746022
0.465247410335
0.465073134684
0.464871379862
0.464641974613
0.464390273895
0.464119266729
0.463831241345
0.46352714568
0.463207651313
0.462872108747
0.462518957244
0.462146328559
0.461754755581
0.461343922005
0.46091445417
0.460470252043
0.460016811456
0.459556836645
0.459091154007
0.458627751361
0.45817377312
0.457725654904
0.457283608275
0.456854523298
0.456436569814
0.45601598898
0.45560659109
0.455210964106
0.454839301635
0.454494545214
0.454144793953
0.453801700836
0.453475017979
0.453158127347
0.452845350825
0.452527751393
0.452211641001
0.451917554402
0.451652264365
0.451422646536
0.451243853482
0.45111023873
0.451008533084
0.450923499089
0.450836881093
0.450743857864
0.450648800789
0.450546455831
0.450428685464
0.450292410956
0.450145227942
0.449995646795
0.449844598769
0.449691337238
0.449537138817
0.449385904433
0.449241341128
0.449105140931
0.448977343283
0.448857229354
0.448743757987
0.448635905668
0.448532551338
0.44843293227
0.448337039894
0.448245776373
0.448160191959
0.44807992519
0.448003180045
0.447928187839
0.447854281838
0.447781564813
0.44771037607
0.447640937557
0.447573255312
0.447507093097
0.447442032908
0.447377569701
0.447313218291
0.44724861051
0.447183406764
0.447117264929
0.447049991317
0.446982134019
0.446915364033
0.446851786966
0.446792907697
0.446737783115
0.446683853569
0.446628990927
0.446572714816
0.446515544263
0.446457993386
0.446400315271
0.446342513203
0.446284619768
0.446226666169
0.446168758316
0.44611095784
0.446053357664
0.445996000407
0.445938943763
0.445882224734
0.445825912767
0.445770026762
0.445714604601
0.445659566196
0.445604565908
0.445549197792
0.445492792739
0.445434203038
0.445372047731
0.445304671152
0.445229474835
0.445144486002
0.445048170139
0.444938034069
0.44481296631
0.444672728472
0.444515491301
0.444340333506
0.444149920098
0.443942615699
0.443712363891
0.443445930349
0.443113837413
0.442680807857
0.47555796645
0.475575831561
0.475598798722
0.475496335868
0.4753815135
0.475290922098
0.475185088479
0.475056508435
0.474899586709
0.474714651271
0.474502988412
0.474268454303
0.474013435198
0.473741623135
0.473455280242
0.47315754537
0.47285030318
0.472535958992
0.47221585291
0.471892129664
0.471565428073
0.471237228636
0.47090850006
0.470580360415
0.470253318122
0.469929026136
0.469608126865
0.469291930563
0.468981296684
0.468677642088
0.468381728592
0.468094743788
0.467817439786
0.467550911311
0.46729538458
0.467051902009
0.466820710706
0.466602345147
0.466396761838
0.466204252521
0.466024237711
0.465856400248
0.46569972285
0.465553253794
0.465415634049
0.46528572142
0.465162223893
0.465043908559
0.464929143168
0.464816049598
0.464700011779
0.46457645404
0.46444030549
0.464283786064
0.464099781835
0.463882859953
0.463636299528
0.463368075216
0.463082307339
0.462782152361
0.46246943725
0.462145046347
0.461808518951
0.461455132121
0.461081267812
0.460686221772
0.460270408429
0.459833159395
0.459377436732
0.458913588519
0.458448280856
0.457978962752
0.457510509178
0.457058719954
0.456600782236
0.456145323269
0.455707885332
0.455287568421
0.454891216259
0.454521082794
0.454149241302
0.453786074904
0.453446602238
0.453122597573
0.452809471984
0.452501978547
0.452200512607
0.45190455742
0.45161939436
0.451354231753
0.451116649231
0.450908564949
0.450733440035
0.450593030837
0.450478914561
0.450381362298
0.45029025549
0.450196770912
0.450098734682
0.449997174369
0.449889843931
0.449773788893
0.449648766275
0.449518315393
0.449385980771
0.449252460062
0.44911792439
0.448983487474
0.448851479555
0.448724257348
0.448603254203
0.448488906836
0.448381026388
0.448279077783
0.448182296748
0.448089765324
0.448000942143
0.447915987334
0.447835788439
0.447761093828
0.447691307729
0.447624779367
0.447560030682
0.447496432804
0.447433982602
0.447372915192
0.447313397661
0.447255422812
0.447198762366
0.447143028052
0.447087739482
0.447032455974
0.446976793857
0.446920392841
0.446862828464
0.446803996699
0.446744709926
0.446686814676
0.446632536648
0.44658298132
0.446537012298
0.446492195722
0.446446610275
0.446399785587
0.446352025184
0.446303699306
0.446254923212
0.446205686651
0.446156013111
0.446105986126
0.446055752844
0.446005424524
0.445955115553
0.445904873744
0.445854744763
0.445804736466
0.445754873624
0.445705112451