/*--------------------------------*- C++ -*----------------------------------*\
| =========                 |                                                 |
| \\      /  F ield         | OpenFOAM: The Open Source CFD Toolbox           |
|  \\    /   O peration     | Version:  v1806                                 |
|   \\  /    A nd           | Web:      www.OpenFOAM.com                      |
|    \\/     M anipulation  |                                                 |
\*---------------------------------------------------------------------------*/
FoamFile
{
    version     2.0;
    format      ascii;
    class       volScalarField;
    location    "4";
    object      p;
}
// * * * * * * * * * * * * * * * * * * * * * * * * * * * * * * * * * * * * * //

dimensions      [0 2 -2 0 0 0 0];


internalField   nonuniform List<scalar> 
12225
(
-1.03022732985
-1.62292187352
-1.95069822256
-2.12144294244
-2.21802327709
-2.27992298535
-2.32544780045
-2.36250582296
-2.39376429461
-2.41936054581
-2.43828255884
-2.44904445765
-2.44994126916
-2.43906397949
-2.41411316015
-2.37206130641
-2.3079729767
-2.2144853371
-1.17872590687
-1.65898872274
-1.96411977426
-2.1283986194
-2.22261244204
-2.28371410051
-2.32904100084
-2.36609308602
-2.39738855934
-2.42302992605
-2.4420194435
-2.45290366608
-2.45402010991
-2.44351615453
-2.419195006
-2.37829796223
-2.31748449287
-2.24709860183
-1.30950869386
-1.67798303766
-1.95659248192
-2.11795850295
-2.21418956834
-2.27819735434
-2.32616982397
-2.36531014456
-2.3981715483
-2.42500783702
-2.44500122511
-2.45687754173
-2.45915682456
-2.45020494752
-2.42817187836
-2.39101864266
-2.33701957527
-2.27338404617
-1.42538907546
-1.70767108743
-1.95892581213
-2.1174039729
-2.21600988434
-2.28287234109
-2.33308362202
-2.37371878466
-2.40750928538
-2.4349634089
-2.45551583573
-2.46812505222
-2.47154321508
-2.46441393227
-2.44530520253
-2.41286677395
-2.36632080509
-2.30946775175
-1.52975330207
-1.74596867779
-1.96760089549
-2.1198059173
-2.21872345596
-2.28707382843
-2.33859511216
-2.38013976148
-2.41455776869
-2.44256696741
-2.46382177676
-2.47749488235
-2.4825666332
-2.47796592445
-2.46267115216
-2.43591198624
-2.39753680235
-2.34977198353
-1.62414738315
-1.78995945712
-1.98199465267
-2.12547412767
-2.22339888923
-2.29276103031
-2.34556406456
-2.38824674705
-2.4236739608
-2.45271616741
-2.47522088806
-2.49056973578
-2.49797939074
-2.49667423172
-2.48602758572
-2.46576982319
-2.43627236306
-2.39953808416
-1.70993459518
-1.83758999894
-2.00176070032
-2.13478492946
-2.23044812108
-2.30021140151
-2.35405951049
-2.39784601392
-2.43436627329
-2.46460578149
-2.48859401682
-2.50592514199
-2.51606109151
-2.51852252996
-2.51304939342
-2.49979679419
-2.47956452946
-2.45444539182
-1.78832240915
-1.88727335427
-2.02629724242
-2.1478510314
-2.24010182493
-2.309624182
-2.36425254689
-2.40911203648
-2.4468477981
-2.47851970019
-2.50432122764
-2.52405173024
-2.53741200732
-2.54420043127
-2.54447620309
-2.53873254984
-2.52807967015
-2.5146645486
-1.86034479986
-1.93780214414
-2.05486683163
-2.16462584026
-2.25253594815
-2.32120241494
-2.37633692143
-2.42223173077
-2.4613035342
-2.49464120192
-2.52257594004
-2.54509580636
-2.56212186181
-2.57369863723
-2.58014643407
-2.58220512545
-2.58117319037
-2.57909668043
-1.92687498329
-1.98828974991
-2.08668832697
-2.18492691269
-2.26785588515
-2.33512587458
-2.3904990673
-2.43738436887
-2.47790458958
-2.51313145514
-2.54350336562
-2.56917250238
-2.59025301087
-2.60699391655
-2.61991238038
-2.62990417564
-2.63833652368
-2.64704839772
-1.9886209311
-2.03807706987
-2.12095584536
-2.20841158894
-2.28603778652
-2.35149684919
-2.40688045144
-2.4547215464
-2.49680215981
-2.53413281867
-2.5672246289
-2.59636319348
-2.62181996485
-2.64400028873
-2.66355227793
-2.68144342659
-2.69901803993
-2.71780922902
-2.04142031051
-2.08273425254
-2.15398934293
-2.2324916749
-2.30521181544
-2.36875122291
-2.42397602864
-2.4726690718
-2.51627498512
-2.55571153006
-2.59152160632
-2.62407851412
-2.65376048772
-2.68106988069
-2.70671691947
-2.73167249396
-2.75719552837
-2.78453661016
-2.09080716013
-2.12587699942
-2.18758498896
-2.25815855655
-2.32618617588
-2.38772706815
-2.44270248819
-2.49222994554
-2.53741816488
-2.57906869854
-2.61772622578
-2.65382385477
-2.68780914536
-2.72024129623
-2.7518516692
-2.78356777218
-2.81653651324
-2.851701082
-2.14347768621
-2.17324276679
-2.22634506478
-2.28925408899
-2.35240968865
-2.41172738657
-2.46638579487
-2.51687666499
-2.56395036256
-2.60825558299
-2.65031076096
-2.6905692896
-2.72951919231
-2.76773387848
-2.80591741359
-2.84490664339
-2.8856755485
-2.92884646246
-2.19855899238
-2.22407690452
-2.26990355567
-2.32590617885
-2.3843874076
-2.44147179482
-2.49584949019
-2.54748737159
-2.59678100882
-2.6442036259
-2.69019534249
-2.73520086635
-2.77968597335
-2.82419671742
-2.86934814668
-2.91584132472
-2.96444164523
-3.01543014049
-2.25462946968
-2.27699596314
-2.31717654158
-2.36754928476
-2.42206639366
-2.4772787861
-2.53164258584
-2.58473347972
-2.63663874003
-2.68762940651
-2.73804749123
-2.78825506167
-2.8386650385
-2.88971872354
-2.94191574828
-2.99576210017
-3.05181891571
-3.11002680338
-2.30929357106
-2.32960582036
-2.3660047913
-2.4125284078
-2.4643797808
-2.51857661374
-2.57352071263
-2.62854455177
-2.68348917558
-2.7384429535
-2.79360665638
-2.84923749744
-2.9056261783
-2.96308880976
-3.02195030837
-3.08253541763
-3.14517371123
-3.20954392861
-2.35831494359
-2.37769910507
-2.41242158784
-2.45739457549
-2.50852835338
-2.56315960467
-2.61970642508
-2.6773769185
-2.73585064811
-2.79506771728
-2.85509164195
-2.91605115127
-2.97809535305
-3.04139149127
-3.10609330235
-3.17235201976
-3.24031333811
-3.30945581003
-2.39383139664
-2.41367341819
-2.44940180014
-2.49591533606
-2.549114081
-2.60634048083
-2.66601305743
-2.72731882623
-2.78988677629
-2.85358092169
-2.91836273035
-2.98424252084
-3.05123058345
-3.11935082992
-3.18860048514
-3.25898353641
-3.33049556521
-3.40247116918
-2.39859041961
-2.42069515555
-2.46081018968
-2.51253874074
-2.57079838956
-2.63258123267
-2.6963334794
-2.76143311689
-2.82763990763
-2.89491358739
-2.96319563899
-3.03247413057
-3.1026608243
-3.17371918264
-3.2455327355
-3.31804995375
-3.39117037652
-3.46419068055
-2.38250328943
-2.40808091712
-2.45471210836
-2.51361669649
-2.57814488143
-2.6448787431
-2.71252627202
-2.78081538249
-2.84983275466
-2.91965987408
-2.99034344137
-3.06182183016
-3.13402468857
-3.20681232487
-3.28008416657
-3.35368703866
-3.42756464707
-3.50093053186
-2.35011626482
-2.38131756825
-2.43767280909
-2.50623300497
-2.57823805162
-2.65019362395
-2.72147864686
-2.79249995455
-2.86375640739
-2.93556618926
-3.00803903591
-3.08113742376
-3.15474725898
-3.2287074932
-3.30286354801
-3.3770525626
-3.4511769961
-3.5244739744
-2.30392277748
-2.34399748076
-2.41412753195
-2.49469414033
-2.57477211588
-2.6516268443
-2.72594087545
-2.79905932464
-2.87199343365
-2.94528609119
-3.01911378734
-3.09344720281
-3.16812311989
-3.24296722565
-3.31775630001
-3.39233730893
-3.46655744546
-3.53970231853
-2.24528232466
-2.29925663777
-2.38809951636
-2.48253835639
-2.57049168019
-2.65138874061
-2.72787451857
-2.80239791288
-2.87647177617
-2.95081843875
-3.02565012406
-3.10090299368
-3.17638447245
-3.2518499572
-3.32706271969
-3.40178679081
-3.47585956954
-3.54849327097
-2.174670421
-2.250215549
-2.36321998132
-2.47236043766
-2.56709170023
-2.65076886389
-2.72846997147
-2.80375293837
-2.87854996011
-2.95369441213
-3.02939066311
-3.10552382228
-3.18184914596
-3.25807520593
-3.33390863165
-3.40905663567
-3.48328512064
-3.55575214689
-2.09188867265
-2.20035886243
-2.34260881227
-2.46574362573
-2.56537393106
-2.65033717095
-2.72821679805
-2.80349626443
-2.87838619994
-2.95375405826
-3.02975427504
-3.1062178202
-3.18285754917
-3.25935140176
-3.33537354915
-3.41057044474
-3.48454577446
-3.55612814821
-1.99627395457
-2.15376551571
-2.32851924853
-2.46327237153
-2.56575711616
-2.65107664203
-2.72895778514
-2.80448655597
-2.87994404836
-2.95609947899
-3.03298521088
-3.1103240569
-3.18778538278
-3.26501738107
-3.34169644052
-3.41746716229
-3.49183583056
-3.56330277659
-1.88697329138
-2.11537568844
-2.32188653342
-2.46310644718
-2.56453225838
-2.64742039201
-2.72326621872
-2.79756573242
-2.87255165782
-2.94880480869
-3.02614747557
-3.1041517408
-3.18237156635
-3.26040785752
-3.33794063122
-3.41467304353
-3.49010374936
-3.56206843586
-1.76228254254
-2.09193554979
-2.33075587811
-2.47795122873
-2.57847681781
-2.65876449613
-2.73194873516
-2.80407286213
-2.87747584218
-2.95266699579
-3.02935022372
-3.10698387502
-3.18503477485
-3.26306185702
-3.34077252243
-3.41804623901
-3.49488324357
-3.5701222824
-1.61526949922
-2.05000067932
-2.31456042163
-2.46981376823
-2.57358150312
-2.65518191203
-2.72888106438
-2.80123512572
-2.87479972453
-2.95015974464
-3.02703757881
-3.10488645479
-3.18316131221
-3.26142252081
-3.33940436677
-3.4170999843
-3.49494861584
-3.57644684869
-1.36182356417
-1.36535943426
-1.37163471823
-1.38545115843
-1.41099428519
-1.45153380012
-1.50861498079
-1.58342792886
-1.67683422623
-1.78935943613
-1.92122084858
-2.07239094438
-2.24261307722
-2.43146989484
-2.63839041607
-2.8627201056
-3.10371538201
-3.36061296324
-3.6326083962
-3.91892377121
-4.2187728682
-4.53142663272
-4.85616388995
-5.19233690872
-5.53931260526
-5.8965368303
-6.26346745715
-6.63963853417
-7.02458343527
-7.41790097618
-7.81917195395
-8.22802585149
-8.64404471511
-9.06683131202
-9.49590445047
-9.93076436607
-10.3707699404
-10.815205993
-11.2631430301
-11.7134976076
-12.1648837737
-12.6156811497
-13.0638803682
-13.5071430801
-13.9426478336
-14.3671702911
-14.7769816887
-15.1679850488
-15.5355241682
-15.8743489486
-16.1784460364
-16.4413231285
-16.6561022205
-16.8156420626
-16.9124838072
-16.9388445046
-16.8863367749
-16.7461545108
-16.5094800637
-16.1681764165
-15.7154525277
-15.1463141969
-14.4574860424
-13.6477402826
-12.7182993722
-11.6733573931
-10.5203195055
-9.26996640209
-7.93620276842
-6.53567191555
-5.08699412099
-3.60996936808
-2.12458604866
-0.650187418906
0.795381574639
2.19637077319
3.53959173673
4.81454764852
6.01353645107
7.13155036415
8.16599005654
9.11629318787
9.98386919569
10.7717045147
11.483316841
12.1226432355
12.6953643946
13.2081101126
13.6653059658
14.070051254
14.4282158164
14.7472370293
15.0312694078
15.2810318023
15.4989908945
15.6905737653
15.8604696918
16.0119564147
16.1441303233
16.2559254917
16.351686036
16.4364593007
16.5106240195
16.5730206045
16.624844439
16.6683613723
16.7052097474
16.7348049377
16.7560849858
16.7710520976
16.7816936875
16.7892710108
16.7945892549
16.798206533
16.8005295307
16.801882943
16.8025257828
16.8026832773
16.8025404253
16.8022611619
16.8019757042
16.8018039931
16.8018484724
16.8022113538
16.8029681717
16.8041795707
16.8058677839
16.8080470759
16.810707142
16.8138432207
16.817433412
16.8214643976
16.825906429
16.8307379403
16.8359213274
16.8414265783
16.8472089171
16.8532306941
16.8594422272
16.8657981818
16.872242872
16.8787271957
16.885206576
16.8916495812
16.8980293389
16.9043200715
16.9104845998
16.9164878005
16.922294837
16.9278602901
16.9331332012
16.9380723835
16.9426435061
16.9468197771
16.9505773392
16.9538985451
16.9567700388
16.9591841084
16.9611356204
16.9626294417
16.9636808916
16.9643202712
16.9645910716
16.9645504341
16.9642933458
16.9639522032
16.9636871011
16.9637315973
16.964418353
16.9661884959
16.9695771026
16.9752422217
16.9840667789
16.9973040344
17.0167086185
17.0447275312
17.0847892966
17.1416806992
17.2231016632
17.3209089181
-1.33305030587
-1.34588288365
-1.36040679733
-1.37720155127
-1.40427736606
-1.4461094793
-1.50465446937
-1.5813200695
-1.67694820142
-1.79198461495
-1.92655067864
-2.08051741081
-2.25353894206
-2.44511635378
-2.65461752801
-2.88133563837
-3.12449632434
-3.38331074592
-3.65696957129
-3.94469044616
-4.24570044549
-4.55927958916
-4.88473310581
-5.2214305006
-5.56877161974
-5.92622451664
-6.29328478984
-6.66951000913
-7.0544744979
-7.44780410023
-7.84912539009
-8.25809722481
-8.67435438181
-9.09753677389
-9.5272241503
-9.96295923939
-10.404172607
-10.8501996305
-11.3001870307
-11.7530966157
-12.2076142448
-12.6621582891
-13.114774131
-13.5631279834
-14.0043960269
-14.4352757744
-14.8520424337
-15.2506290228
-15.6264188306
-15.9739754533
-16.2870881747
-16.5591267867
-16.7831749367
-16.9520908276
-17.0585723434
-17.0948382382
-17.0521705715
-16.9212361894
-16.6927023351
-16.3581530427
-15.9112443853
-15.3473834728
-14.6630892312
-13.8566650819
-12.9288068697
-11.8831977695
-10.7268987625
-9.47052441243
-8.12806322981
-6.71643309332
-5.25472723062
-3.76330566561
-2.26276029142
-0.772997841905
0.687590981833
2.10283467928
3.45926676787
4.7462104489
5.95579615886
7.08305654104
8.12558381531
9.08273237388
9.95575734565
10.7481990838
11.4642667199
12.1073111559
12.6822372779
13.196756587
13.6564930393
14.0635144861
14.4225179101
14.7412281866
15.0249144576
15.2740309347
15.4906064999
15.6804196578
15.8492198704
15.9996806495
16.1319751524
16.2444988121
16.3403928524
16.426018581
16.501748214
16.5651763264
16.6173310481
16.6607287046
16.6976565995
16.7277538954
16.7499598271
16.7657967286
16.777084703
16.7851125223
16.7907437449
16.7945775485
16.7970577292
16.7985266528
16.799262459
16.7994946259
16.7994179234
16.7991943402
16.7989596362
16.798831529
16.7989183718
16.7993191533
16.8001147972
16.8013597048
16.8030811484
16.8052878794
16.8079755653
16.8111346338
16.8147491191
16.8188011346
16.8232664197
16.8281190961
16.833326449
16.8388545357
16.8446627732
16.8507101499
16.856950096
16.8633340797
16.8698083366
16.8763228447
16.8828348608
16.8893138406
16.8957343658
16.9020698342
16.9082873753
16.914346014
16.9201981171
16.9257994576
16.9311081591
16.9360873293
16.9407042158
16.9449311621
16.9487433417
16.9521216274
16.9550534551
16.9575322883
16.9595525025
16.9611177333
16.9622427651
16.9629569183
16.963303414
16.9633481566
16.9631803844
16.9629253916
16.9627564879
16.9629133973
16.9637108901
16.9655413659
16.9689071629
16.9744512832
16.9830258798
16.9958587861
17.0146716252
17.0418477805
17.0807076057
17.1358244638
17.2144091258
17.3071298579
-1.31824163958
-1.33607549075
-1.36372415099
-1.3996232972
-1.44570637981
-1.50421029129
-1.57730232052
-1.66664719847
-1.77330247032
-1.89787241793
-2.04058998647
-2.20141016002
-2.3800593586
-2.57610758831
-2.78899480907
-3.0180899776
-3.26270055122
-3.52212234419
-3.79563515234
-4.08254559114
-4.38217144631
-4.69387987678
-5.01706306129
-5.35117253696
-5.69568920336
-6.05015584477
-6.41414208921
-6.78727503171
-7.16920002918
-7.55961047626
-7.95820478806
-8.36471375769
-8.77885224521
-9.20034181148
-9.62885453997
-10.0640281449
-10.505400962
-10.9524157094
-11.4043317453
-11.8602127014
-12.318845393
-12.7787262488
-13.2379547422
-13.6942025856
-14.1445903117
-14.5856948292
-15.013721597
-15.4245716955
-15.8135897286
-16.1750059185
-16.5023011014
-16.7886547634
-17.026988603
-17.2101426841
-17.3307964864
-17.3808210848
-17.350771307
-17.2307694763
-17.0114977634
-16.6855409415
-16.2472638687
-15.6915125285
-15.0139521908
-14.2118583822
-13.2848579001
-12.2356958082
-11.0708228313
-9.80068318934
-8.43956907818
-7.00510127647
-5.5174217594
-3.99813674446
-2.46908989634
-0.951295413543
0.535861278487
1.97540900415
3.35348388366
4.6593146295
5.88481851626
7.02502030842
8.0781554362
9.04396473202
9.92320434968
10.71974804
11.4395775009
12.0858997193
12.6616011944
13.17522481
13.6343823077
14.0401012351
14.3963858311
14.7117667684
14.9928120051
15.2423327473
15.4616005792
15.6529981232
15.8213982214
15.972483202
16.1066164549
16.2215834412
16.3204315864
16.4075679095
16.4837027361
16.5479665463
16.6014503087
16.646092432
16.6834276924
16.7136071292
16.7365264049
16.7533003845
16.76542159
16.7741139456
16.7802728922
16.784536514
16.7873846252
16.7891793283
16.7902159466
16.7907292075
16.7909204076
16.7909496709
16.7909572597
16.7910593767
16.791370403
16.7919864286
16.7929916022
16.7944339804
16.7963444868
16.798727225
16.8015834306
16.8048995647
16.8086653791
16.8128588463
16.8174611126
16.8224421202
16.8277741525
16.8334193671
16.8393416475
16.8454967813
16.8518407681
16.8583223027
16.8648899406
16.8714938253
16.8780944732
16.8846623991
16.8911730922
16.8975989135
16.9039066162
16.9100560048
16.916004131
16.92170966
16.9271330533
16.9322367272
16.9369865247
16.9413524968
16.9453086138
16.948833105
16.951906493
16.9545152572
16.9566546648
16.9583272598
16.9595461698
16.9603381128
16.9607424059
16.9608170345
16.960643307
16.9603356951
16.9600536702
16.9600151673
16.9605097909
16.9619117247
16.9646892587
16.969448779
16.9769912699
16.9883624663
17.0049823275
17.0288895576
17.0629136335
17.1107105397
17.1771603105
17.2556120191
-1.37922965378
-1.40173548496
-1.43665006476
-1.48379885963
-1.54341963125
-1.61616629407
-1.70309741005
-1.80519027346
-1.92317965386
-2.05754368356
-2.20849325593
-2.376018617
-2.55991389952
-2.75983699409
-2.97532856759
-3.20586693187
-3.45087417225
-3.70976338896
-3.98193214989
-4.26680331033
-4.56380822501
-4.87242286315
-5.19214368882
-5.52252113511
-5.86312998313
-6.21360176151
-6.57359144526
-6.94280870525
-7.32098127115
-7.70788565654
-8.10330734905
-8.50706977644
-8.9189890609
-9.33889795622
-9.76659144811
-10.2018413392
-10.6443334826
-11.093665805
-11.5492553294
-12.0103163004
-12.4757745947
-12.9442403132
-13.4138863017
-13.8823957093
-14.3468129619
-14.8035575388
-15.2486932321
-15.6780268084
-16.0868049693
-16.4688423811
-16.8171457948
-17.1246024437
-17.3839150077
-17.5878315807
-17.7288198814
-17.7981378757
-17.7852917921
-17.6800275485
-17.4740826997
-17.1615089781
-16.7369320032
-16.1943443904
-15.5281337407
-14.7338957984
-13.809467053
-12.7560054112
-11.578908699
-10.2883357623
-8.89908939897
-7.42994724656
-5.90274077639
-4.34114813212
-2.76911373472
-1.20935918253
0.317334150202
1.79267672011
3.20210753823
4.53502725348
5.78329946143
6.94137669125
8.00821544137
8.98487491115
9.87130030031
10.6711417499
11.3925919427
12.0399806277
12.6132824854
13.1219253981
13.5767915566
13.9822906733
14.3413022869
14.6584939801
14.9382241506
15.187186298
15.4102015818
15.6077622403
15.7815865854
15.9356782905
16.0712546827
16.1885253587
16.2897654088
16.3779302372
16.4543817217
16.5194614675
16.5741148081
16.6197646721
16.6576534877
16.6884006845
16.7124343069
16.7306572969
16.7442434716
16.7542752371
16.7616146372
16.766917918
16.7706858121
16.7733068937
16.7750912643
16.7762899071
16.7771100482
16.7777210007
16.7782669643
16.7788727338
16.7796554568
16.7807167438
16.7821379118
16.7839696112
16.7862410839
16.7889609519
16.7921304633
16.7957405292
16.7997808458
16.8042328868
16.8090776107
16.8142877094
16.8198353992
16.8256850613
16.831800762
16.838139745
16.844657513
16.8513036746
16.8580284982
16.8647849095
16.8715372832
16.878258054
16.8849236383
16.8915058891
16.8979715246
16.9042805616
16.9103909983
16.9162601874
16.9218477129
16.9271144992
16.932025587
16.9365492375
16.9406586148
16.9443304203
16.947546213
16.9502927324
16.952565021
16.9543645989
16.9557017109
16.9565975405
16.9570876194
16.9572243776
16.9570839524
16.9567703174
16.956426881
16.9562460422
16.9564817896
16.9574589495
16.9595884688
16.9633980302
16.9695725115
16.9789919654
16.9928069971
17.0125644131
17.0403574007
17.0786666555
17.1300026694
17.1893012678
-1.52819139135
-1.55019025811
-1.58643888691
-1.63792999408
-1.7042136616
-1.78523896802
-1.8812226574
-1.99240669532
-2.11898415219
-2.26106238157
-2.41862123386
-2.59152742792
-2.77953005722
-2.98229900976
-3.19942669843
-3.43047103423
-3.67495170267
-3.93239068036
-4.20230024483
-4.48421970531
-4.77769572156
-5.08231663709
-5.39768691675
-5.72345995303
-6.05930914989
-6.40496029011
-6.76015981461
-7.1247077849
-7.49842363442
-7.88117897449
-8.27286095838
-8.67340401195
-9.08274778811
-9.50086269806
-9.9276978087
-10.3631952583
-10.807226957
-11.2595883466
-11.7198972657
-12.1875598871
-12.6616753209
-13.1409939479
-13.6237793471
-14.1077317441
-14.5898055931
-15.0662299831
-15.5328580482
-15.9853509263
-16.41882134
-16.8266676008
-17.2013203742
-17.5351899018
-17.8205824021
-18.0500400853
-18.2155083157
-18.3071688584
-18.3135075762
-18.2250487722
-18.0357032917
-17.7410103673
-17.3356952553
-16.8128345393
-16.1649760402
-15.385189957
-14.4685235571
-13.413582743
-12.2239488496
-10.9091757108
-9.48479537991
-7.97133408324
-6.39299703946
-4.77644869416
-3.1488937695
-1.53555641173
0.0412154231358
1.56144386895
3.00908096126
4.37384580714
5.64816984095
6.82513231722
7.90475045079
8.89063777633
9.78165954907
10.5803743295
11.297927461
11.9433780999
12.5191017298
13.0309536362
13.4860206259
13.8891722927
14.250948702
14.576617901
14.8657463123
15.1220270256
15.3495189485
15.5503965737
15.7273191792
15.8834607558
16.020670517
16.1401156822
16.2436683468
16.333561584
16.4113587895
16.4779783427
16.5343899884
16.5817658033
16.6211967207
16.6534913116
16.6793162803
16.6995129184
16.715062178
16.7269250758
16.7359146655
16.7426946947
16.7477815849
16.7515932093
16.754456484
16.7566444409
16.7583721864
16.759824978
16.7611510251
16.7624896317
16.7639579938
16.7656663898
16.7676903176
16.770087786
16.772883816
16.7760965289
16.7797239013
16.7837660634
16.7882088418
16.7930419184
16.7982420662
16.8037893345
16.809652003
16.8158009164
16.8221969449
16.8288017124
16.8355681332
16.8424495048
16.8493967824
16.8563683144
16.8633306154
16.8702590197
16.8771290439
16.8839131591
16.8905768458
16.8970813971
16.9033845595
16.9094448541
16.915221393
16.9206763348
16.9257741451
16.9304836307
16.9347767448
16.9386301127
16.9420238739
16.9449439576
16.9473820244
16.9493369487
16.9508149325
16.951832375
16.9524177327
16.9526158502
16.9524921542
16.9521396124
16.9516833084
16.9512896949
16.9511754903
16.951618259
16.9529672953
16.955665817
16.9602739586
16.9674855914
16.9781614914
16.993373145
17.0144395585
17.0426860359
17.0785905907
17.1166991617
-1.73863508104
-1.75823516574
-1.79350895245
-1.84596527891
-1.91472716064
-1.99948945862
-2.10002977775
-2.21613313216
-2.34758311577
-2.49415183506
-2.65556894358
-2.83153331464
-3.02169700673
-3.2256914712
-3.44311566925
-3.67356823535
-3.91663341636
-4.17191420845
-4.43901349977
-4.71756660773
-5.00721786168
-5.30765219998
-5.6185686576
-5.93971235448
-6.27084547505
-6.61178049906
-6.96235029464
-7.32244238967
-7.69196790532
-8.07089661199
-8.45922409435
-8.85700604713
-9.26431998447
-9.68129316378
-10.1080518902
-10.5447351774
-10.9914304651
-11.4481619135
-11.9147801262
-12.3909134547
-12.8758571014
-13.3685171662
-13.8672585845
-14.3698046657
-14.8730160224
-15.3729009197
-15.8650292233
-16.344847387
-16.8073670429
-17.2457253046
-17.6516951198
-18.0170276114
-18.3333675395
-18.5924792596
-18.7850158283
-18.8994687873
-18.9239842469
-18.8516408279
-18.6797379268
-18.4056618013
-18.0245367058
-17.5286165677
-16.9080395559
-16.1521213902
-15.2515831175
-14.2009751494
-13.0008462685
-11.6595013001
-10.1935548664
-8.62631930087
-6.98537007188
-5.30126571388
-3.60599747499
-1.92872217552
-0.293659374226
1.27748997249
2.76643349826
4.16369073077
5.46342214247
6.65585428199
7.74150292304
8.730125626
9.62690347696
10.4319932198
11.1534477823
11.7993143205
12.3748501899
12.8933628801
13.3613040408
13.778565571
14.1507578955
14.482590314
14.7770638525
15.0381182141
15.2695334669
15.4741454811
15.6546700396
15.8138335533
15.9537333261
16.0760154407
16.1824597697
16.2749510731
16.3550588135
16.4239565525
16.4827057258
16.5323891441
16.5740344667
16.6085196235
16.6366307188
16.6591931617
16.6770919306
16.6911905843
16.7022590266
16.7109450216
16.7177784141
16.7231891467
16.7275256699
16.7310721916
16.7340604632
16.736683755
16.7391046669
16.7414678232
16.7439002639
16.7465106642
16.7493795984
16.7525637419
16.7560952321
16.7599930686
16.7642625234
16.7689044018
16.7739104396
16.7792704432
16.7849659456
16.7909770444
16.7972760007
16.803833884
16.8106145945
16.8175795254
16.8246838741
16.8318827795
16.8391312473
16.8463921919
16.8536356912
16.8608386555
16.8679768105
16.8750225412
16.8819413951
16.888695299
16.8952426982
16.9015428185
16.9075551029
16.913242106
16.9185681336
16.9235017382
16.9280139895
16.9320806935
16.9356806406
16.9387983161
16.9414227163
16.9435499949
16.9451823809
16.9463319008
16.9470205075
16.9472849202
16.9471780704
16.9467778813
16.9461903663
16.9455552194
16.9450501136
16.9449015111
16.9453911303
16.9468705447
16.9497688222
16.9545939044
16.9619192263
16.9723710126
16.986561109
17.0047833309
17.0259605599
17.0437786848
-1.97705549249
-1.99450460413
-2.02877089072
-2.0810558614
-2.15027397429
-2.23614756056
-2.33828708297
-2.45626357418
-2.58963562546
-2.73796668268
-2.90081164027
-3.07773715548
-3.26830569894
-3.47209926268
-3.68870114423
-3.91772244254
-4.1587810494
-4.41152953402
-4.67563118695
-4.95078855489
-5.23671687721
-5.53317398421
-5.8399320029
-6.15680864195
-6.48363901078
-6.82030886993
-7.16672658949
-7.52285921472
-7.88870440184
-8.26432782263
-8.64983405443
-9.04540358839
-9.45125854558
-9.86769188341
-10.2950191552
-10.7335903488
-11.1837222403
-11.6456824273
-12.1195711641
-12.6052562655
-13.1022423042
-13.6096021915
-14.1258182818
-14.6486672523
-15.1749729996
-15.7005802886
-16.2207254665
-16.7305895259
-17.2251931983
-17.6979128507
-18.1398911992
-18.541966114
-18.8944022154
-19.1868300345
-19.407241525
-19.5417483203
-19.5798613501
-19.5198784234
-19.364237826
-19.1126025762
-18.7610724871
-18.3014673188
-17.7208545865
-17.0029588385
-16.1317401582
-15.0955424545
-13.8902949796
-12.522185296
-11.0094070695
-9.37997717391
-7.66664384386
-5.90509198906
-4.13384386248
-2.38711967881
-0.690843128362
0.931293938371
2.45750438583
3.87954173997
5.19801411708
6.40977399293
7.51091179996
8.50802083066
9.40869438985
10.2182686327
10.9516219642
11.6159306011
12.2114964342
12.745300676
13.2230405207
13.649021962
14.0286389171
14.3667066997
14.6670978505
14.9336367722
15.169926831
15.3790617335
15.5638407449
15.7268682478
15.8703533657
15.996172707
16.1061157492
16.2019242075
16.2851440254
16.3570561549
16.4187965917
16.4714301827
16.5159632281
16.5532973422
16.5842715417
16.6097029862
16.6304243
16.6472294842
16.6608500518
16.6719111066
16.6809476846
16.6883947679
16.6946187213
16.699912432
16.7045259494
16.7086599815
16.7124949193
16.7161794675
16.719852606
16.7236200451
16.7275713474
16.731761093
16.7362327341
16.7410046394
16.7460933733
16.7514983079
16.7572210424
16.7632490747
16.7695725626
16.7761691439
16.7830186293
16.7900900688
16.7973528747
16.8047669661
16.8122924139
16.8198857099
16.8275084795
16.8351269264
16.8427157038
16.8502517684
16.8577122539
16.8650685396
16.8722876518
16.8793313065
16.8861599266
16.8927326957
16.8990107232
16.9049561933
16.9105345551
16.9157134079
16.9204642372
16.9247612497
16.9285829483
16.9319113747
16.9347339182
16.937042776
16.9388368485
16.9401220021
16.9409138189
16.9412388626
16.9411388189
16.9406733216
16.9399266634
16.9390107143
16.9380651123
16.9372626052
16.9368158218
16.936981016
16.9380572028
16.9403684198
16.9442218665
16.9498397516
16.9572303002
16.9658308247
16.9734860063
16.9733973903
-2.21345450075
-2.22962939202
-2.26358043517
-2.31564076742
-2.38467286236
-2.47055189182
-2.57285676263
-2.69108933388
-2.82471381598
-2.97319326046
-3.13598920647
-3.31259124244
-3.50250446937
-3.70527523167
-3.92047108993
-4.14770567444
-4.38661409421
-4.63687825606
-4.89819936805
-5.17032450074
-5.45301766798
-5.7460878083
-6.04936016342
-6.36270696861
-6.68601937073
-7.01924145485
-7.36234409564
-7.71536210324
-8.07836951154
-8.45151898051
-8.83501656473
-9.22916069621
-9.63431193109
-10.0509242583
-10.4794987378
-10.9205934107
-11.3747522669
-11.8424855285
-12.3241477129
-12.81985829
-13.3293433525
-13.8518497811
-14.3859861093
-14.9296119127
-15.4796103994
-16.0317994765
-16.5811035369
-17.1223868443
-17.6508007592
-18.1606602776
-18.6426689458
-19.0863838849
-19.4793829853
-19.8068920322
-20.0521992444
-20.1992667917
-20.2430661961
-20.1894689188
-20.0463316745
-19.8170565001
-19.4997487805
-19.0861568601
-18.5597823256
-17.8966757667
-17.0707483648
-16.0614069145
-14.8583810585
-13.4652935074
-11.90319442
-10.2075098794
-8.41758801517
-6.57475329313
-4.72781575754
-2.91741206334
-1.16817088217
0.500723173914
2.06914822668
3.5235057564
4.86220395888
6.08723182575
7.20152008818
8.21902464876
9.14667295442
9.98466308794
10.7404152872
11.4201484872
12.0292307953
12.574415135
13.0618199787
13.4967015199
13.8842535487
14.229313169
14.5361489443
14.8086886688
15.0505404595
15.2649029443
15.4546416921
15.6223407649
15.7702671812
15.9004057731
16.0145716097
16.1144578521
16.2015869764
16.2772875359
16.3427339752
16.3990034612
16.447092161
16.4879179141
16.5223332999
16.5511558869
16.5751790782
16.595158267
16.6117858041
16.6256735664
16.6373481887
16.6472542695
16.6557639518
16.6631861237
16.669780192
16.6757642693
16.6813273011
16.6866320038
16.6918195019
16.6970034841
16.7022741575
16.7076951524
16.7133129261
16.7191555801
16.7252427598
16.7315820546
16.7381771626
16.7450221299
16.7521086536
16.7594197593
16.7669366616
16.7746326101
16.7824779178
16.7904359234
16.7984694467
16.8065398968
16.8146142203
16.8226634858
16.8306651941
16.838597505
16.8464379609
16.8541583366
16.8617264986
16.8691052115
16.8762562512
16.8831398701
16.8897182952
16.8959543046
16.9018139565
16.9072647533
16.9122780905
16.9168272733
16.920889922
16.9244461393
16.9274811341
16.929983515
16.9319481224
16.9333747731
16.9342718283
16.9346556226
16.9345550941
16.9340120865
16.9330872688
16.9318624051
16.9304396943
16.9289384769
16.9275011156
16.9262889019
16.9254734487
16.9252040865
16.9255459826
16.926371881
16.9271942599
16.9267974364
16.9223350269
16.9070289745
-2.42333237353
-2.43916347418
-2.47360831536
-2.52588540254
-2.59490386765
-2.6807036085
-2.78286809313
-2.90089350336
-3.03421919359
-3.18227544443
-3.34448889611
-3.52031801246
-3.70924395159
-3.91079890866
-4.12454583787
-4.35010347473
-4.58712012861
-4.83529803028
-5.09436445929
-5.36409682346
-5.64429219309
-5.93479483343
-6.23546691191
-6.54621892968
-6.86698288625
-7.19774620192
-7.53852741088
-7.88941456256
-8.250543379
-8.62213838887
-9.0044911385
-9.39800099024
-9.8031488435