/*--------------------------------*- C++ -*----------------------------------*\
| =========                 |                                                 |
| \\      /  F ield         | OpenFOAM: The Open Source CFD Toolbox           |
|  \\    /   O peration     | Version:  v1806                                 |
|   \\  /    A nd           | Web:      www.OpenFOAM.com                      |
|    \\/     M anipulation  |                                                 |
\*---------------------------------------------------------------------------*/
FoamFile
{
    version     2.0;
    format      ascii;
    class       volScalarField;
    location    "4";
    object      pa;
}
// * * * * * * * * * * * * * * * * * * * * * * * * * * * * * * * * * * * * * //

dimensions      [0 2 -2 0 0 0 0];


internalField   nonuniform List<scalar> 
12225
(
-2.90323887624
1.77674216949
2.18794960057
1.73677636017
1.59504858319
1.35041339735
1.15752608487
0.981740417852
0.880710362107
0.948134122991
1.38028743726
2.37211279032
4.0167018379
6.55488536208
10.0815813588
14.5592434781
18.8631383027
17.0312442562
26.3554545019
15.8926123212
14.704779406
13.7451025743
12.839945968
11.9745331636
11.208914427
10.5902785371
10.1867922449
10.1274905179
10.6064138401
11.7429781772
13.5219999197
15.9878691727
19.0163729304
22.1616030766
23.6387873005
18.0272852597
6.66046666294
8.66507900205
7.72145147491
6.99291070122
6.40183955741
5.88402308864
5.50992340485
5.2943993388
5.3108221077
5.65944609482
6.48607404302
7.8845919192
9.87449081855
12.3661416282
15.2281617556
17.8460968095
18.4735257264
13.6806249314
12.4966004067
11.1421804595
10.4429081493
9.70264730683
9.12718320856
8.60053439944
8.20310205496
7.94041310413
7.87838915916
8.08967536704
8.67408667092
9.69065666668
11.1518390415
12.9479093054
14.8803948922
16.2990819865
15.8226649608
11.7429183113
11.7588422492
10.9731897405
10.4300041389
9.87915818029
9.4977836161
9.15459481247
8.93503168598
8.83274868337
8.90467544749
9.2020017999
9.78860546516
10.690793866
11.8897633465
13.259671699
14.5474131742
15.160820629
14.1554144002
10.8774403375
12.0096419597
11.1947985231
10.7905780179
10.324205551
10.0356625685
9.77236471763
9.63018548723
9.59536720146
9.71813021273
10.0321335208
10.5750342852
11.347885383
12.3051291281
13.3072083733
14.0894277758
14.1746213022
12.9947056311
10.4107605953
12.0708688601
11.3078070951
11.0436721195
10.6634960318
10.4632332465
10.2722093905
10.1945255648
10.2106023757
10.3633431453
10.6712008255
11.1519296126
11.7887059865
12.517962741
13.1979049452
13.5882923248
13.3421828612
12.159210166
10.0945977853
12.0778344178
11.3723544055
11.2372755432
10.9335317637
10.8083398897
10.6765236235
10.6484822626
10.6997082369
10.8650822094
11.1502582924
11.5576109737
12.0582628916
12.5793436872
12.9882360313
13.0876768201
12.6463168675
11.5276725035
9.85675529144
12.0322086573
11.3883954352
11.3714683513
11.1342822241
11.0721538317
10.9880716156
10.9972235406
11.0698346899
11.2337117249
11.4836584634
11.8118135787
12.1816578354
12.5196604833
12.7097380366
12.602749987
12.0555095521
11.0285987299
9.63980031766
11.9658185993
11.3723622067
11.4605254715
11.2800638001
11.2704573781
11.2244326205
11.2602020213
11.3429791315
11.4943367444
11.7010453775
11.9479963569
12.1965086911
12.3785515056
12.3981699171
12.1508146156
11.5555621552
10.6195064612
9.45297485974
11.8870038418
11.3166729757
11.4818504571
11.3515958021
11.385155151
11.3697587974
11.424032395
11.5102921984
11.6444904789
11.8074138624
11.9785126416
12.1214197958
12.1764256701
12.0703777114
11.733819067
11.1277818486
10.2822552281
9.28242376665
11.7642839585
11.1914886753
11.3999580359
11.3047311604
11.3675499028
11.3707255492
11.4327531884
11.5143541614
11.6285205235
11.7515908149
11.8608766872
11.9226284439
11.8907711706
11.7055702548
11.3280558569
10.7369424174
9.97097019078
9.10376459871
11.6170475736
11.0280311474
11.2714389506
11.1941906705
11.2748760289
11.2856324778
11.3458764613
11.4131429816
11.499231601
11.5782127536
11.627813096
11.6226988024
11.518546972
11.2843819268
10.8848367076
10.327263909
9.64155908213
8.89454921514
11.4624806674
10.837515336
11.1254263354
11.057875055
11.1515549808
11.1651287012
11.2179986578
11.2649785738
11.3139723054
11.3398111812
11.3264355685
11.2501979359
11.0856619586
10.8062336789
10.4046116576
9.88352677248
9.2897003724
8.65154703347
11.2971736374
10.6213348197
10.9531019833
10.8940183434
11.001190992
11.0161325411
11.0632047958
11.0889686766
11.1029865202
11.0769042258
11.0064264194
10.8678663123
10.6541736949
10.3440874319
9.94798480236
9.47111641615
8.95824610101
8.42883966537
11.14524473
10.3928191879
10.7545545949
10.6975378854
10.8108291962
10.8240520737
10.8584127186
10.8631189491
10.8403342048
10.7763291213
10.6555290612
10.4815616902
10.2305467875
9.91870524698
9.5337233017
9.11515534166
8.66840098878
8.23529830237
11.0380000796
10.1831138639
10.5577594501
10.4900460961
10.6013244574
10.602884748
10.6191378882
10.5955425664
10.5420023947
10.4415068161
10.2936578193
10.0916211414
9.83615562647
9.52694007172
9.17945891128
8.80537379286
8.43361711151
8.06387477223
10.9201552325
9.98707504
10.3677130028
10.2832884279
10.3856938988
10.3703396114
10.3654540804
10.3145632083
10.2345285762
10.1093422578
9.94503076542
9.73462226442
9.48618281237
9.19729973001
8.88797994043
8.56279177012
8.25075942548
7.94067932645
10.8208808535
9.86321913553
10.2422404037
10.1389180672
10.2241586243
10.1874680924
10.1590384983
10.0835394046
9.98123525331
9.83941950932
9.66625345924
9.45739057325
9.22201344365
8.95827176996
8.68433629055
8.40289793853
8.13846873585
7.87907495074
10.8811971185
9.96281251335
10.2997469563
10.173391723
10.2319975042
10.1652833838
10.1139483898
10.0120693247
9.89453689882
9.73422387779
9.55667655259
9.343104303
9.11760170286
8.86305347986
8.61126365153
8.34934435564
8.11364072068
7.87832298497
10.8985401205
10.062726054
10.3811884372
10.2518899215
10.2877023461
10.2082988759
10.1351770353
10.0265605172
9.88956100241
9.72804225213
9.53680460627
9.32961859793
9.09714716722
8.85774237482
8.60495463768
8.36508972444
8.13144893448
7.92159268405
10.8974446111
10.1571876703
10.470159698
10.3363691946
10.3622633169
10.2673461979
10.1872942906
10.0669864925
9.92622679435
9.75653350288
9.56273430392
9.35237642603
9.12375248758
8.88467785805
8.64067203865
8.40406154032
8.1809157621
7.97233922756
10.9544064238
10.2855812916
10.5774264267
10.4422047557
10.4528585396
10.3478597455
10.2567577183
10.1290469659
9.98172948162
9.80538393639
9.61295818922
9.3996232546
9.17511294192
8.93643762585
8.70167393372
8.46370431839
8.24953015369
8.03711703296
11.0299518392
10.4407172529
10.7010813982
10.5574329785
10.5526517061
10.4358499948
10.3349722134
10.1983338588
10.0452685474
9.86804580165
9.67271990382
9.46296231696
9.24068810605
9.01087897325
8.77714165962
8.54699913772
8.32632118778
8.11792353516
11.1418885897
10.6489847175
10.8560966585
10.7038177159
10.6808739002
10.5508070452
10.4396062232
10.2968863171
10.1382529457
9.95714952949
9.76257930032
9.55827434613
9.34072219
9.11882589823
8.89241785488
8.66552141084
8.44109232285
8.22919774771
10.8245742223
10.6712474438
10.8073220609
10.6478747493
10.6040316024
10.4683941041
10.3505531079
10.1997134667
10.0326800521
9.84393708376
9.64238256315
9.43581059763
9.22296041007
9.00321110629
8.78013517906
8.55252284308
8.32028690695
8.09013829032
12.9568942649
11.9996220602
12.0861685348
11.8793364104
11.7888084727
11.6278409034
11.4891619728
11.3255970723
11.1505523989
10.9577167016
10.7591570338
10.5730826967
10.380270415
10.185426573
9.98873623257
9.78153844105
9.56080119305
9.35220211519
2.9631548968
8.13005880451
7.97983946273
7.82062704514
7.74701553899
7.63151882039
7.54298096597
7.42895553167
7.29684503107
7.13652988274
6.96575049016
6.80191340482
6.62566164233
6.43205655832
6.2219653445
5.98234545026
5.70004027533
5.33345361992
32.4954187841
20.6874233688
19.9254219541
19.6613460836
19.4319610293
19.1589810358
18.8790466065
18.5641725838
18.2211944448
17.8482190323
17.466979512
17.0913123035
16.7081096165
16.3179887999
15.9306174452
15.5425747823
15.1384107901
14.9424131003
-5.17422329529
0.983796048794
1.71402595284
1.51396369252
1.62400209918
1.61113827328
1.63836969634
1.61903970865
1.57600808226
1.50172918504
1.41705840195
1.32812177762
1.23846557666
1.16444958427
1.13300826786
1.18115841137
1.35350040544
1.44893515785
-0.738356186781
-0.741007991592
-0.747993549192
-0.756548133303
-0.759830366208
-0.758784573771
-0.752698846095
-0.746646344597
-0.739159267721
-0.734838492788
-0.731087584197
-0.732012338858
-0.73410516483
-0.741150886375
-0.74916842078
-0.761715914299
-0.77454739427
-0.791052627022
-0.80687698745
-0.825163829665
-0.841495100064
-0.8589176188
-0.87325657506
-0.887082851295
-0.896878453163
-0.905207005707
-0.909047638846
-0.911013866246
-0.908506295871
-0.904122312963
-0.895551646858
-0.885564386766
-0.871888521942
-0.857093519393
-0.839091973486
-0.820571797562
-0.799300211684
-0.777482299835
-0.753334330828
-0.728734131595
-0.702171891347
-0.675238144703
-0.646717253
-0.617917727733
-0.587860032336
-0.557581464073
-0.526350865041
-0.494990023456
-0.462898574519
-0.43090544045
-0.398940750742
-0.368212810691
-0.339092557505
-0.312107818365
-0.286728930169
-0.263197878026
-0.24079938094
-0.219723760149
-0.199113867125
-0.179370997227
-0.160668990003
-0.144570442103
-0.1309006023
-0.120570140424
-0.113164886384
-0.109305759856
-0.108968474686
-0.112675802604
-0.120284810537
-0.132330995724
-0.148363216122
-0.16899223291
-0.193505963702
-0.222367976219
-0.254686834904
-0.290998321912
-0.329970869722
-0.371994488205
-0.415870004007
-0.461871084631
-0.508576259188
-0.556099932977
-0.603294138745
-0.650033425261
-0.695569048805
-0.739419350317
-0.781758204171
-0.822360523161
-0.860211047627
-0.897398689913
-0.930830956449
-0.963179284721
-0.995070234728
-1.03316261669
-1.08146560998
-1.14001237927
-1.20363142987
-1.27889697014
-1.37533074527
-1.49620753111
-1.61293340445
-1.67192831865
-1.7290150847
-1.82529784804
-1.94679991925
-2.05945419921
-2.14197829155
-2.20835903639
-2.27607035285
-2.34345403261
-2.40849564512
-2.47059035927
-2.52951793659
-2.58543327025
-2.63854022645
-2.68924450016
-2.7377124864
-2.78423575695
-2.82895694884
-2.87225593505
-2.91439230362
-2.95555044497
-2.99566604876
-3.03481844314
-3.07302808748
-3.11055018524
-3.14749577957
-3.18406712444
-3.22028696349
-3.2562465076
-3.2918932056
-3.32723835058
-3.36216536943
-3.3966195806
-3.43043164786
-3.46355613854
-3.49581095241
-3.52713369087
-3.55748657738
-3.58691967669
-3.61563226267
-3.64321442502
-3.6698274182
-3.69509377527
-3.71934116175
-3.74233504086
-3.76443099264
-3.78533887717
-3.80539983468
-3.82427594725
-3.84234169467
-3.85929447279
-3.87554062798
-3.89074199882
-3.90544509149
-3.9193911775
-3.93326938824
-3.94688623816
-3.96105266896
-3.97562270871
-3.99138805799
-4.00811911389
-4.02666647519
-4.0467291118
-4.06911635352
-4.09349251789
-4.12060732296
-4.1501557633
-4.18266869328
-4.2177361463
-4.25641495079
-4.29891887502
-4.34686869398
-4.40108889634
-4.46640523669
-4.54320662217
-4.63145564573
-4.72611592929
-4.81919983889
-4.90447953093
-0.703315481229
-0.745817136519
-0.789911728266
-0.824538900014
-0.846037682962
-0.858479312696
-0.863993344029
-0.868632322662
-0.873555992892
-0.883362381479
-0.897065271465
-0.918005913983
-0.944179659443
-0.978145920357
-1.01730059132
-1.06372391691
-1.11446775689
-1.17131894946
-1.23111225773
-1.29534529031
-1.36096080061
-1.42912135922
-1.49694694006
-1.56554705349
-1.632341053
-1.69843460932
-1.76200279801
-1.82416931363
-1.88334342193
-1.94089126551
-1.99557709541
-2.04879687515
-2.09929685513
-2.14860782874
-2.19568621222
-2.24179179685
-2.28596538921
-2.3293033046
-2.37089612985
-2.41166314305
-2.45093821951
-2.48942540205
-2.5265999273
-2.56298050027
-2.59812671815
-2.63237806037
-2.66534158538
-2.69718064376
-2.72754512447
-2.75622919984
-2.78255050929
-2.80576194827
-2.82594630577
-2.84347518312
-2.85840174623
-2.87088819547
-2.880630713
-2.88741899945
-2.88966769634
-2.88705942666
-2.87848687208
-2.86408649634
-2.84432277223
-2.82016888349
-2.79228770813
-2.76154452334
-2.72846718076
-2.69384159244
-2.65815135824
-2.62209687781
-2.58607079222
-2.55069188226
-2.51620224745
-2.48330573609
-2.45201522807
-2.42280849357
-2.39557850378
-2.37058519349
-2.34759178315
-2.32668074411
-2.30724226381
-2.2890499865
-2.27164022901
-2.25466546319
-2.23715262739
-2.21841445366
-2.1988387372
-2.17815244191
-2.15448919154
-2.12445015867
-2.09376185887
-2.06396494596
-2.0308777437
-1.99625088554
-1.96979636972
-1.95265038573
-1.94708330344
-1.9462030928
-1.94245716455
-1.94680505541
-1.95190243551
-1.9719037898
-2.00860737387
-2.04044585776
-2.01749895922
-1.93441051806
-1.886637499
-1.93426908353
-1.99452427399
-2.03840036438
-2.07031803132
-2.09377685532
-2.11106043246
-2.12335285666
-2.13166169099
-2.1365403247
-2.13852451998
-2.13787069807
-2.13498157259
-2.13034178348
-2.1244272684
-2.11748642695
-2.10958301531
-2.10071403839
-2.09103021919
-2.08073579614
-2.07008460692
-2.0592628526
-2.04843772099
-2.03770849032
-2.02715858689
-2.01681277211
-2.00667302695
-1.9966819321
-1.98677363374
-1.97688131948
-1.96692145862
-1.95688825598
-1.94685084506
-1.93713058262
-1.9278547756
-1.91898345406
-1.91043370457
-1.90218548202
-1.89436990893
-1.88709302365
-1.88045558105
-1.87446963717
-1.86917342721
-1.86454973285
-1.86064936488
-1.85738268525
-1.8547363702
-1.8526627066
-1.85128475185
-1.85061904001
-1.85089445575
-1.8521970496
-1.85487273545
-1.85902107732
-1.86536283189
-1.87436478646
-1.88684130816
-1.90333264358
-1.92488722302
-1.95228145837
-1.9866092955
-2.02814263678
-2.07751313709
-2.13492010253
-2.20089781713
-2.2751351199
-2.35721479954
-2.44407064309
-2.52930047703
-2.60636573481
-2.66473323337
-2.68416213713
-2.63081113771
-2.42841907357
-0.676346348591
-0.817386169599
-0.930935533235
-0.997544247429
-1.03048572535
-1.04629772119
-1.05345144386
-1.06034041815
-1.06852637876
-1.08222223308
-1.10070998506
-1.12675600785
-1.15854680827
-1.19829666844
-1.24368911654
-1.29657858624
-1.35436075147
-1.41858035413
-1.48655695101
-1.55956234399
-1.6347202036
-1.71322246817
-1.79245146154
-1.87314523139
-1.9531335603
-2.03329170361
-2.11172928257
-2.18939454704
-2.26483106362
-2.33908324379
-2.41096647069
-2.48159023093
-2.55001701916
-2.61727205862
-2.68251568126
-2.74682741751
-2.8093671172
-2.8709441464
-2.93097839457
-2.99012094625
-3.04788527576
-3.10481624087
-3.1605223285
-3.21540448291
-3.26913093504
-3.32194420188
-3.37357230996
-3.42409982189
-3.47320751904
-3.52085953881
-3.56668507843
-3.61012436943
-3.65020956874
-3.68668827929
-3.7195681655
-3.7491892506
-3.77587835977
-3.80054843958
-3.82456614895
-3.8478785496
-3.86941289465
-3.88846471832
-3.90439450448
-3.91694361243
-3.92566477286
-3.93037541395
-3.93091370115
-3.92723002961
-3.91930806062
-3.90730973293
-3.89136871523
-3.87190489342
-3.84924986102
-3.82387032125
-3.79626211565
-3.76696658631
-3.73627977808
-3.70464606002
-3.67229425897
-3.63947095678
-3.60619883521
-3.5723920557
-3.53788773281
-3.50262666676
-3.4662738778
-3.42788605511
-3.38753005451
-3.34627648242
-3.30146942115
-3.25013821636
-3.19545568663
-3.14358437319
-3.09504656381
-3.04514022373
-2.99142739951
-2.93765036014
-2.90625162795
-2.92096709267
-2.96031246259
-2.99303727785
-3.0206516456
-3.09184323463
-3.18419243765
-3.26383007933
-3.30425130611
-3.29251823682
-3.24309534533
-3.19204216903
-3.16879374931
-3.16423116732
-3.16996988654
-3.18104182633
-3.19484659537
-3.20976810622
-3.224973404
-3.23979508524
-3.25393996152
-3.26701293924
-3.27907271367
-3.29022627529
-3.30080628939
-3.31080514886
-3.32014311208
-3.32863475008
-3.33634833123
-3.34339751634
-3.34999129953
-3.3562749736
-3.36239843777
-3.36844609221
-3.3744929471
-3.38055395896
-3.38661839308
-3.39260153458
-3.39842159369
-3.40395688205
-3.4091610455
-3.41405403202
-3.41882583665
-3.42386279417
-3.42927196943
-3.43504898396
-3.44086491741
-3.44671875035
-3.45253670571
-3.45846248517
-3.46441486598
-3.47044384935
-3.47638852154
-3.48223562026
-3.48776273615
-3.49286624615
-3.49730820776
-3.50090482314
-3.50324284487
-3.50398800275
-3.50258984626
-3.49855274395
-3.49119256004
-3.47995283335
-3.46425443261
-3.44359702179
-3.41743162387
-3.38542740312
-3.34736883014
-3.3034086894
-3.25412732952
-3.20028366412
-3.14357972785
-3.08637559408
-3.03204477154
-2.98490420011
-2.95034361596
-2.93218257084
-2.92916741923
-2.94151316775
-2.96749200869
-2.99514353322
-2.99647656104
-2.90788607792
-0.69829574225
-0.97375840385
-1.16122703479
-1.24622380812
-1.27489141663
-1.28025606806
-1.27627855002
-1.27211849616
-1.26961788812
-1.27248909
-1.27948761907
-1.2930704216
-1.31140636082
-1.33648462303
-1.36616423612
-1.40215887765
-1.44210409528
-1.48752593596
-1.53584459967
-1.58837363776
-1.64272640764
-1.69982298365
-1.75730173709
-1.81618865272
-1.87426556303
-1.93235420029
-1.98884258986
-2.04457534965
-2.09818837556
-2.15063717946
-2.20088165705
-2.24991959337
-2.29680618077
-2.3426225772
-2.38663146497
-2.42963902348
-2.47109361104
-2.51174910222
-2.55104496401
-2.58962714072
-2.62709962591
-2.66397160453
-2.69992176944
-2.7353463987
-2.76996214319
-2.80406070466
-2.83737792203
-2.87010974571
-2.90211089974
-2.93346900601
-2.96422351698
-2.99486866802
-3.02524161056
-3.05517393031
-3.08452258083
-3.11331343159
-3.14157656985
-3.16966825246
-3.19831432353
-3.2292280055
-3.26308465104
-3.2996200667
-3.33805843586
-3.37763763777
-3.41757717812
-3.45713051419
-3.49542861391
-3.53174089721
-3.56527450479
-3.59540599255
-3.62158283223
-3.64341191547
-3.66066851699
-3.67341894612
-3.68172253971
-3.68583420139
-3.68608938954
-3.68286189878
-3.67650701019
-3.6673794024
-3.65582689267
-3.64206878901
-3.6261857042
-3.60832406921
-3.58865502007
-3.5666116604
-3.54213772773
-3.51623506499
-3.48920657653
-3.45889819909
-3.4269665195
-3.39592566968
-3.36927018876
-3.35317459927
-3.35093924343
-3.36283326198
-3.38497484316
-3.41216705647
-3.46015527032
-3.52904621732
-3.61047185276
-3.68175350192
-3.69971138731
-3.68624827363
-3.64322799607
-3.56425172509
-3.45603128456
-3.34635110082
-3.26301913083
-3.20620077232
-3.16884427957
-3.14447668071
-3.12853007547
-3.11805104602
-3.11103257124
-3.10616734728
-3.10248994453
-3.09933152725
-3.09642986686
-3.09381315223
-3.09162099713
-3.08974115418
-3.08787612972
-3.08573102486
-3.08321109521
-3.0803465545
-3.07724165082
-3.07399738293
-3.07069983686
-3.06740467205
-3.06413399415
-3.06087013074
-3.05754040097
-3.05401791589
-3.05014947021
-3.04578568574
-3.04089785413
-3.03560207221
-3.030270134
-3.02534592238
-3.0210882135
-3.01735755561
-3.01388626114
-3.01054306096
-3.00731236722
-3.00423669694
-3.0013138919
-2.99852500545
-2.99581879631
-2.99314189712
-2.99042483474
-2.98760123688
-2.98464966745
-2.98152874223
-2.9781944687
-2.97459696099
-2.97070111645
-2.96646505143
-2.96187538739
-2.95692318919
-2.95152697522
-2.94560853635
-2.93912274782
-2.93195952672
-2.92399423063
-2.91506707932
-2.90506407539
-2.893857671
-2.8816708007
-2.86890475881
-2.85646125677
-2.84588136881
-2.83918365045
-2.83695476134
-2.83803599346
-2.84107801338
-2.84319031828
-2.83462375191
-2.79355772391
-2.68192239552
-0.791438816652
-1.23090853848
-1.48358485942
-1.55822698803
-1.56547499056
-1.55369345563
-1.53762849732
-1.52502728692
-1.51602171157
-1.51312112125
-1.51503597023
-1.5235455261
-1.53688357644
-1.55668227233
-1.5809673852
-1.61121944287
-1.64530696343
-1.68451426999
-1.72672427668
-1.77306814237
-1.82119665296
-1.87226822169
-1.92413416309
-1.97751704065
-2.03063079261
-2.08430769023
-2.13684249029
-2.18909589905
-2.23977034898
-2.28974197268
-2.3379494974
-2.38529024468
-2.43100525202
-2.47586621584
-2.51921172228
-2.56188609037
-2.60326140094
-2.64397724657
-2.68362506684
-2.7227327051
-2.7609273959
-2.79866776251
-2.8356229044
-2.87215103844
-2.90793878894
-2.9432377853
-2.97777000417
-3.01169560222
-3.04472963391
-3.07701263353
-3.1083407702
-3.13865936312
-3.16777126723
-3.19555391303
-3.22179663723
-3.24655231369
-3.26981995368
-3.29176741949
-3.31226110251
-3.33131583471
-3.34930374448
-3.36676407986
-3.38409390616
-3.4017221967
-3.41979510916
-3.43845340736
-3.45764331763
-3.47722588616
-3.49687334789
-3.51624054205
-3.53483807291
-3.55228335271
-3.5681404355
-3.58205140705
-3.5937845706
-3.60317608973
-3.61012063795
-3.61465544736
-3.61682179553
-3.61670534552
-3.61452404198
-3.61040714918
-3.60431728414
-3.59650721253
-3.58719851303
-3.57609479923
-3.56325692855
-3.54898133751
-3.5326816489
-3.51663575972
-3.50194389654
-3.49074945442
-3.48405175212
-3.48779544874
-3.51123244008
-3.55624464787
-3.60741039915
-3.64651452973
-3.6877757857
-3.73987613218
-3.78808789425
-3.80671099809
-3.78010178148
-3.72762907955
-3.65434955729
-3.56087074674
-3.45460070283
-3.35246797273
-3.26970146288
-3.20852095211
-3.16550007117
-3.13600432284
-3.1160289744
-3.10264152506
-3.09362618089
-3.0875368175
-3.08311089955
-3.07971675248
-3.07690829265
-3.07487069838
-3.0735923356
-3.0730194368
-3.07270073695
-3.07234146049
-3.07172695746
-3.07087079254
-3.06980944007
-3.06864596507
-3.06743725821
-3.0662422519
-3.065057858
-3.06385235679
-3.06250675133
-3.06086765255
-3.05870888641
-3.05589375512
-3.05238980729
-3.04846259266
-3.04460010229
-3.04133960258
-3.03898886646
-3.03733013209
-3.03614284024
-3.03519902085
-3.03451887292
-3.03404459485
-3.03381439546
-3.03372837784
-3.03378170948
-3.03384377484
-3.03388952311
-3.03376894418
-3.03346905853
-3.03283044033
-3.03182122975
-3.03025327558
-3.02808281467
-3.02510415891
-3.02127546647
-3.01638134462
-3.01031237624
-3.00278554106
-2.99371162469
-2.98284379823
-2.9701714024
-2.95557294606
-2.93917094715
-2.92105963058
-2.90179900698
-2.88202797897
-2.86298454356
-2.84608293572
-2.83290217604
-2.82335675065
-2.81651615463
-2.81027455433
-2.80045611249
-2.77671899447
-2.7203563701
-2.60759756294
-0.973183874882
-1.59595131806
-1.89187290061
-1.92249294724
-1.89616343636
-1.8646622554
-1.83647438145
-1.81468719741
-1.79816949465
-1.78836725839
-1.78343983259
-1.78482328367
-1.79082860275
-1.80279128408
-1.81895950276
-1.84055676155
-1.86573759596
-1.89566665024
-1.9283375245
-1.96480987366
-2.00328711143
-2.04451257118
-2.08665248143
-2.13063718929
-2.17465223174
-2.21940047428
-2.26352272358
-2.30770579095
-2.3507657417
-2.39343471023
-2.43479601156
-2.47558918645
-2.51500463273
-2.55384627189
-2.59150554236
-2.62856547527
-2.66459675756
-2.70017789318
-2.73486208487
-2.76916016528
-2.80273506387
-2.83600263518
-2.86865955988
-2.90104379893
-2.93285815058
-2.96436877311
-2.99527557165
-3.02577867841
-3.05564961236
-3.08497884089
-3.11358078462
-3.14160566781
-3.16880549734
-3.19510409939
-3.22032922354
-3.24447695152
-3.26750209607
-3.28959670232
-3.31094061726
-3.33166545785
-3.35165664244
-3.37098402855
-3.38963451143
-3.40765173589
-3.42505729093
-3.44192100387
-3.4582099024
-3.47397528539
-3.48914800743
-3.50372952236
-3.51762601501
-3.53075425214
-3.54296649449
-3.55418817137
-3.56425717326
-3.57301203691
-3.58033906897
-3.5862170495
-3.5906090365
-3.59346969558
-3.59487276968
-3.59503149115
-3.59396226969
-3.59157016966
-3.58780166969
-3.58279550951
-3.57703215512
-3.56996066023
-3.56055347901
-3.54833907463
-3.53905365017
-3.5360556623
-3.54289443371
-3.56312315766
-3.60092515854
-3.65219575389
-3.70212788963
-3.73771978868
-3.76613341504
-3.79001840301
-3.80103176745
-3.78725593944
-3.74648949409
-3.68826804434
-3.61586943626
-3.53184709689
-3.44226969422
-3.35705485668
-3.28468715761
-3.22773560717
-3.18515915154
-3.15426309291
-3.13228555734
-3.11675077124
-3.10579194252
-3.09787240473
-3.09185574969
-3.08697802484
-3.08298463754
-3.07995743578
-3.07800349743
-3.07694076636
-3.07635871458
-3.07587829939
-3.07527599165
-3.07448348458
-3.07352419825
-3.07245310337
-3.07132850009
-3.07017687491
-3.06899216248
-3.06770004709
-3.06616536559
-3.06417252073
-3.06148330752
-3.05793257059
-3.05356687581
-3.04874715019
-3.04405474989
-3.04010706757
-3.03713192528
-3.03497218378
-3.03335752456
-3.03210385483
-3.03115595514
-3.03047143911
-3.0300186972
-3.02972637648
-3.02953381594
-3.02935719479
-3.0291228997
-3.02874046121
-3.02813495463
-3.02720788709
-3.02587114282
-3.02401001883
-3.02152776848
-3.01829875216
-3.01422537048
-3.00916505165
-3.00297805201
-2.99547644353
-2.98651965336
-2.9759317387
-2.96362742875
-2.94952012018
-2.93363541673
-2.91606820122
-2.89720978945
-2.87761595326
-2.85825559862
-2.84023614303
-2.82456633811
-2.81101990262
-2.79870160088
-2.78534785445
-2.76641526373
-2.73252711007
-2.66881750687
-2.561184724
-1.25076792973
-2.06215081588
-2.36654279746
-2.32249350233
-2.26155833106
-2.2119876328
-2.17175737888
-2.14034996801
-2.11506396008
-2.09635347665
-2.08278317104
-2.07521158597
-2.0722594812
-2.07486167064
-2.08157239713
-2.09329546469
-2.10852433631
-2.12807566005
-2.15049489032
-2.17654246145
-2.20453735045
-2.23535339189
-2.26744883062
-2.30134672215
-2.33573632854
-2.37124593194
-2.40654034031
-2.44225073951
-2.47732539877
-2.51237792358
-2.54653086222
-2.58040229339
-2.61337550379
-2.64597313473
-2.67766844861
-2.70907050914
-2.73969073622
-2.77000841558
-2.79969862448
-2.82917518058
-2.85812838775
-2.88693176226
-2.91529732342
-2.94353884004
-2.97137448174
-2.99905533276
-3.02631701374
-3.05335735166
-3.07991007414
-3.10615809129
-3.13191869091
-3.1573301631
-3.18220673884
-3.20647709386
-3.22990724851
-3.2524906253
-3.27417023606
-3.29507273095
-3.31528859043
-3.33490253984
-3.3538676943
-3.37224014651
-3.39005579006
-3.40739916892
-3.42421789736
-3.44049492731
-3.45611821612
-3.47104114677
-3.48513874094
-3.49839942278
-3.51077091074
-3.52230319383
-3.5329510129
-3.54275007517
-3.55175711017
-3.55991917529
-3.56708015367
-3.57333271362
-3.57876379285
-3.58320802961
-3.58660503198
-3.58911094325
-3.59081187669
-3.59155756513
-3.59090865272
-3.58872793832
-3.5850967779
-3.57963241781
-3.57136890385
-3.56365379164
-3.56106638758
-3.5676203854
-3.58607438363
-3.61599356124
-3.6556928874
-3.69882952433
-3.73572608563
-3.75976088721
-3.77342582285
-3.77665395824
-3.76635387218
-3.73896947061
-3.69564449679
-3.64076356189
-3.57625868022
-3.50466021849
-3.43023837655
-3.3591691822
-3.29653619587
-3.24480496478
-3.20397766035
-3.17278931975
-3.14941954531
-3.1320615089
-3.11916602011
-3.10929090213
-3.10144268793
-3.09483171
-3.08936927326
-3.0850692739
-3.08210098689
-3.08019055261
-3.07896997272
-3.07800605693
-3.0770712234
-3.07603575743
-3.0748980114
-3.07367730151
-3.07241238776
-3.07111093868
-3.06974287667
-3.06821069406
-3.06634820271
-3.06390236404
-3.0606292901
-3.05636248112
-3.05123934899
-3.04568300744
-3.04036307401
-3.03587523808
-3.03241133099
-3.02984567963
-3.02790249991
-3.02644431619
-3.02536104537
-3.02462000477
-3.02412944418
-3.02383184847
-3.02362842777
-3.02345820475
-3.02322400639
-3.02286055052
-3.02226571555
-3.0213650313
-3.02004343595
-3.018215629
-3.01575619061
-3.01257188256
-3.00852985901
-3.00351995388
-2.9973781541
-2.98996450961
-2.98110815313
-2.97067482402
-2.95853027037
-2.9446080845
-2.9288686245
-2.91141663355
-2.89251444359
-2.87267594487
-2.85261275201
-2.83323200791
-2.81507882789
-2.79793221713
-2.78070750714
-2.76121489502
-2.73475235009
-2.69322416402
-2.62494864923
-2.52164453418
-1.62161394807
-2.60678224984
-2.87878495054
-2.74222090908
-2.65432182179
-2.58870339011
-2.53599596618
-2.492689978
-2.45627868148
-2.42666551009
-2.40237851804
-2.38400893862
-2.37042789745
-2.36221208798
-2.35822416042
-2.35902911741
-2.36344964246
-2.37207982703
-2.38361345941
-2.3986307276
-2.41601093275
-2.4361423405
-2.45782116001
-2.48162671121
-2.50630237819
-2.53226439464
-2.55854832672
-2.58555804455
-2.61240932921
-2.63953516113
-2.66623423267
-2.69295797642
-2.71908160049
-2.74512431073
-2.77061649854
-2.79595425984
-2.82079944991
-2.84556457121
-2.86989871309
-2.89417392485
-2.91810473198
-2.94200822019
-2.96562327629
-2.98922474424
-3.012563091
-3.03587629191
-3.0589219071
-3.08189934041
-3.10462035638
-3.1272339816
-3.14960420242
-3.17195137134
-3.1941213651
-3.21603722327
-3.23752180055
-3.25854306959
-3.27900453258
-3.29887708488
-3.31813130527
-3.33677097959
-3.35472207732
-3.37206343934
-3.38887999957
-3.40528798015
-3.42130588137
-3.43692215308
-3.45201058407
-3.46649316946
-3.48017031631
-3.49297531732
-3.50487811566
-3.51596225926
-3.52616906322
-3.53556674958
-3.54433449086
-3.55256142432
-3.56000709081
-3.5666044444
-3.5726017826
-3.57792596471
-3.58234399115
-3.58580673622
-3.58833802199
-3.58978133153
-3.58962420658
-3.58783500184
-3.58483429758
-3.58096625457
-3.57767380349
-3.57761754236
-3.58427580951
-3.59950447367
-3.6232266841
-3.65349644137
-3.68639416988
-3.71730696695
-3.74020263775
-3.75239841654
-3.75384101791
-3.74460801319
-3.72384248907
-3.6914806579
-3.64913589279
-3.59897636877
-3.54241111934
-3.48129797662
-3.41869732232
-3.35847705335
-3.30404137813
-3.25738735265
-3.2190131148
-3.18842494268
-3.16450156369
-3.14601408062
-3.1316473484
-3.12022028811
-3.11074486764
-3.10266749654
-3.09584783643
-3.09043567706
-3.08647391989
-3.08372587235
-3.081786902
-3.08026544339
-3.07889444545
-3.07753248483
-3.07613192169
-3.07469288847
-3.07322237204
-3.07171310922
-3.07010725007
-3.06829222514
-3.06606533874
-3.0631665484
-3.05933173324
-3.05445846313
-3.04873010709
-3.04265129334
-3.03689824498
-3.03200842068
-3.02815630563
-3.02522207119
-3.02299026102
-3.02132968783
-3.02013505836
-3.01934593622
-3.01885130757
-3.01857121223
-3.01839531036
-3.01825317144
-3.01804843811
-3.01771082003
-3.01714196139
-3.0162606547
-3.01495856898
-3.01314377866
-3.01069913534
-3.00752422031
-3.00349296937
-2.99848937458
-2.99236401368
-2.98497960404
-2.97617756287
-2.96582114561
-2.95377364946
-2.93994662039
-2.92428287431
-2.90684247659
-2.8878238442
-2.86762812351
-2.8468067814
-2.82601290298
-2.80554867941
-2.78507500985
-2.76345592835
-2.73850425686
-2.70580972128
-2.65835059616
-2.58704725318
-2.48675116415
-2.07050516092
-3.19246316551
-3.39558326828
-3.16597999357
-3.06210024417