/*--------------------------------*- C++ -*----------------------------------*\
| =========                 |                                                 |
| \\      /  F ield         | OpenFOAM: The Open Source CFD Toolbox           |
|  \\    /   O peration     | Version:  v1806                                 |
|   \\  /    A nd           | Web:      www.OpenFOAM.com                      |
|    \\/     M anipulation  |                                                 |
\*---------------------------------------------------------------------------*/
FoamFile
{
    version     2.0;
    format      ascii;
    class       surfaceScalarField;
    location    "4";
    object      phi;
}
// * * * * * * * * * * * * * * * * * * * * * * * * * * * * * * * * * * * * * //

dimensions      [0 3 -1 0 0 0 0];
oriented        oriented;


internalField   nonuniform List<scalar> 
24170
(
3.07219568438e-06
1.16204889063e-07
2.98567400376e-06
8.65166195729e-08
2.90521814324e-06
8.04511351988e-08
2.82828881979e-06
7.69250189654e-08
2.75491560952e-06
7.33691304948e-08
2.68507196483e-06
6.98400928795e-08
2.61863326733e-06
6.64351143968e-08
2.55542849028e-06
6.32016444431e-08
2.49526305363e-06
6.01624229104e-08
2.43793081372e-06
5.73294830651e-08
2.38321729876e-06
5.47108360942e-08
2.33089969152e-06
5.23150283684e-08
2.28074303952e-06
5.01541700999e-08
2.23249167648e-06
4.82489383485e-08
2.18584844177e-06
4.6640700114e-08
2.14041312283e-06
4.54322269751e-08
2.09537824386e-06
4.5030712056e-08
4.53520842988e-08
2.05002290263e-06
3.43072637414e-06
1.02720783713e-07
3.42590304718e-06
9.1333905183e-08
3.41875030421e-06
8.75982764229e-08
3.40900423038e-06
8.66659599375e-08
3.39711605253e-06
8.52524964854e-08
3.38358998529e-06
8.33618743554e-08
3.36880080007e-06
8.12200971817e-08
3.35302328644e-06
7.89753880709e-08
3.33645803863e-06
7.67240476184e-08
3.31924869478e-06
7.45354613093e-08
3.30149077478e-06
7.24654448949e-08
3.28323628581e-06
7.05663255442e-08
3.26449296965e-06
6.88943171388e-08
3.24521754254e-06
6.75212356793e-08
3.2252972775e-06
6.65576751671e-08
3.20452117263e-06
6.62046006085e-08
3.182683458e-06
6.68638841903e-08
6.82280620871e-08
3.15980466436e-06
3.67990869668e-06
8.53246746458e-08
3.68439746297e-06
8.68413031288e-08
3.68715134859e-06
8.48408775041e-08
3.68891434334e-06
8.48998798047e-08
3.68967283911e-06
8.44911577877e-08
3.68955684277e-06
8.34754623034e-08
3.68867463014e-06
8.20999393444e-08
3.68709850601e-06
8.05494942675e-08
3.68487343722e-06
7.89472236979e-08
3.68202437663e-06
7.73828507678e-08
3.67855858194e-06
7.59296464955e-08
3.67446622688e-06
7.46572194358e-08
3.66971780837e-06
7.36413659091e-08
3.66425989743e-06
7.29778957536e-08
3.65801150986e-06
7.28048075648e-08
3.65088231353e-06
7.33323834016e-08
3.6428740067e-06
7.4870615069e-08
7.70810657698e-08
3.63402159899e-06
3.93990881018e-06
7.07976055121e-08
3.94599615114e-06
8.0748276463e-08
3.94987211176e-06
8.09596203255e-08
3.95303202462e-06
8.17352081297e-08
3.9555462087e-06
8.19725648758e-08
3.95750252727e-06
8.15151935175e-08
3.95898210464e-06
8.06165765136e-08
3.96003485331e-06
7.94933209655e-08
3.96068391559e-06
7.82949197567e-08
3.9609332107e-06
7.71305396809e-08
3.9607712509e-06
7.60886999144e-08
3.96017375885e-06
7.52519473226e-08
3.95910420649e-06
7.4708241671e-08
3.95751515624e-06
7.45643916649e-08
3.95535444877e-06
7.49630211154e-08
3.95258649658e-06
7.60978118848e-08
3.94923484193e-06
7.82199041427e-08
8.12661449094e-08
3.94504810009e-06
4.21895440387e-06
5.89666570687e-08
4.22558537577e-06
7.41141233656e-08
4.22979408618e-06
7.67480080155e-08
4.2332148918e-06
7.83120056288e-08
4.23604663764e-06
7.91385795672e-08
4.23836836845e-06
7.91916291674e-08
4.24025410252e-06
7.8729015602e-08
4.24175449278e-06
7.79914222821e-08
4.24289612722e-06
7.71518330841e-08
4.24368732123e-06
7.63381069379e-08
4.24412205172e-06
7.56527583202e-08
4.24418346088e-06
7.51894859176e-08
4.243846348e-06
7.50443578459e-08
4.24308150292e-06
7.53283972123e-08
4.24186464152e-06
7.6179111387e-08
4.24019267055e-06
7.77690607822e-08
4.2381027343e-06
8.03092429945e-08
8.39088782122e-08
4.23546125148e-06
4.51868283915e-06
4.93647469599e-08
4.52542952825e-06
6.73619855048e-08
4.52989879839e-06
7.22738840639e-08
4.53349615113e-06
7.47102174062e-08
4.53651518216e-06
7.6115571573e-08
4.53903485397e-06
7.6668301738e-08
4.54111794866e-06
7.66425818857e-08
4.54281093517e-06
7.6295332362e-08
4.54414113593e-06
7.5818817961e-08
4.54512017956e-06
7.53563965179e-08
4.54574781527e-06
7.50227073765e-08
4.54601553475e-06
7.4919443606e-08
4.54591054485e-06
7.51472359726e-08
4.54542146967e-06
7.58155218356e-08
4.54454832483e-06
7.70505807777e-08
4.5433173652e-06
7.89986019589e-08
4.54180219775e-06
8.18235211827e-08
8.56329934214e-08
4.54007678346e-06
4.8404986795e-06
4.15831529237e-08
4.847078454e-06
6.07796190041e-08
4.85174486916e-06
6.76051708735e-08
4.85550775075e-06
7.094530468e-08
4.85869770706e-06
7.29238773555e-08
4.86139965369e-06
7.39647857093e-08
4.8636661716e-06
7.43746781501e-08
4.86553781923e-06
7.44224072504e-08
4.86704111561e-06
7.43144160126e-08
4.86819033248e-06
7.42061353114e-08
4.86899076267e-06
7.4221363924e-08
4.86944255493e-06
7.44667829228e-08
4.86954544464e-06
7.50435600484e-08
4.86930538035e-06
7.60549315399e-08
4.86874466325e-06
7.76108432743e-08
4.86791614125e-06
7.98268007407e-08
4.86692290721e-06
8.28162424459e-08
8.66376863186e-08
4.86592040964e-06
5.18589672305e-06
3.52618549657e-08
5.19212666016e-06
5.45449525135e-08
5.19690695753e-06
6.28204321695e-08
5.20081984955e-06
6.70284388611e-08
5.20417298315e-06
6.95670638489e-08
5.20705510393e-06
7.10794226304e-08
5.20951049942e-06
7.19162385941e-08
5.21157348597e-06
7.23567706974e-08
5.21326904434e-06
7.26163484117e-08
5.21461396318e-06
7.28590762563e-08
5.21561923089e-06
7.3214083796e-08
5.21629413224e-06
7.37901010507e-08
5.21665111731e-06
7.46849528748e-08
5.21671278963e-06
7.59919352875e-08
5.21652142683e-06
7.7801147977e-08
5.21615145617e-06
8.01960479677e-08
5.21572529342e-06
8.3243033304e-08
8.69437922355e-08
5.21541843604e-06
5.55648641699e-06
3.01111142437e-08
5.56226396942e-06
4.87653976133e-08
5.56707109189e-06
5.80114131119e-08
5.5711102565e-06
6.29875070302e-08
5.57461946293e-06
6.60562569003e-08
5.57768215906e-06
6.80152912182e-08
5.58033514917e-06
6.92619556642e-08
5.5826063882e-06
7.00843660681e-08
5.58451900575e-06
7.07027044268e-08
5.58609197809e-06
7.12851855096e-08
5.58734219374e-06
7.19630824692e-08
5.58828808022e-06
7.28434019654e-08
5.58895453305e-06
7.40177897289e-08
5.58937924062e-06
7.55666169483e-08
5.58962114957e-06
7.75588945222e-08
5.58976971478e-06
8.00474955968e-08
5.58995345305e-06
8.3058540548e-08
8.65576179121e-08
5.59034178345e-06
5.95400254509e-06
2.58796067481e-08
5.95928757702e-06
4.34758430409e-08
5.96404424637e-06
5.32505129052e-08
5.96818066593e-06
5.88470769775e-08
5.97183861019e-06
6.23946605701e-08
5.97508429423e-06
6.47662058046e-08
5.97794606297e-06
6.63971595565e-08
5.98044555361e-06
6.75820674152e-08
5.98260372645e-06
6.8542113776e-08
5.98444147585e-06
6.94452503966e-08
5.98598125132e-06
7.04212968133e-08
5.98725028087e-06
7.15726045105e-08
5.98828469036e-06
7.29819927709e-08
5.98913483042e-06
7.47152377893e-08
5.98987190237e-06
7.68209634136e-08
5.99059321244e-06
7.93254786401e-08
5.99142652336e-06
8.22260058757e-08
8.5460782887e-08
5.99252183117e-06
6.38031391832e-06
2.23763740943e-08
6.38511136939e-06
3.86765525906e-08
6.38975900723e-06
4.86006963883e-08
6.39396360296e-06
5.46403175701e-08
6.39776379937e-06
5.85922406673e-08
6.40119767728e-06
6.13302930755e-08
6.40428265401e-06
6.33101656923e-08
6.40703398811e-06
6.48289533115e-08
6.409470015e-06
6.61043416523e-08
6.41161317239e-06
6.73005930814e-08
6.4134907686e-06
6.85422411782e-08
6.41513785209e-06
6.99243382901e-08
6.41659971816e-06
7.15188128202e-08
6.41793633437e-06
7.33776550502e-08
6.41922627244e-06
7.55301292422e-08
6.4205689716e-06
7.79824904195e-08
6.42208246571e-06
8.07108241368e-08
8.36476460528e-08
6.42389600139e-06
5.74335862476e-06
1.9847789716e-08
5.74706142325e-06
3.49702838521e-08
5.75087579457e-06
4.47830437665e-08
5.75446270973e-06
5.10504173341e-08
5.7577809873e-06
5.5271092546e-08
5.76083500016e-06
5.82737893226e-08
5.76362876095e-06
6.05140639204e-08
5.76616969814e-06
6.2286059795e-08
5.76847105101e-06
6.3801402519e-08
5.77055227925e-06
6.52180441903e-08
5.77243940421e-06
6.66537239117e-08
5.77416665274e-06
6.8196215996e-08
5.77577778635e-06
6.99081107997e-08
5.77732742843e-06
7.18277609557e-08
5.77888469022e-06
7.39736780149e-08
5.78053067822e-06
7.63366149568e-08
5.78235847609e-06
7.88849560514e-08
8.15426989383e-08
5.78446215221e-06
7.00064954659e-06
1.7352772024e-08
7.00452595439e-06
3.10919306169e-08
7.00874744653e-06
4.05593905124e-08
7.01287428668e-06
4.69211626928e-08
7.0167899318e-06
5.13532221109e-08
7.02046532599e-06
5.45960210404e-08
7.02389049946e-06
5.70868362517e-08
7.02706654318e-06
5.91080609931e-08
7.03000534264e-06
6.0860959147e-08
7.03272883526e-06
6.24925827269e-08
7.03526937825e-06
6.41121271667e-08
7.03766995043e-06
6.57955565684e-08
7.03998375134e-06
6.75943478668e-08
7.04227722516e-06
6.95360084769e-08
7.04462728347e-06
7.16246404045e-08
7.04712361306e-06
7.38433562358e-08
7.04985814436e-06
7.61501369753e-08
7.84773606048e-08
7.05292568398e-06
8.53328824416e-06
1.49091192246e-08
8.53729772645e-06
2.7080430022e-08
8.54191503509e-06
3.5940477832e-08
8.54662648674e-06
4.22086906604e-08
8.55123313085e-06
4.67448968726e-08
8.55566031414e-06
5.0167883472e-08
8.55987546497e-06
5.28701096519e-08
8.5638694361e-06
5.51133015678e-08
8.56764977081e-06
5.70791075429e-08
8.57124039398e-06
5.89017945788e-08
8.57467760353e-06
6.0673149158e-08
8.57801288893e-06
6.24607043152e-08
8.58130776313e-06
6.4300016224e-08
8.58463607808e-06
6.62092899825e-08
8.58808135438e-06
6.81816118838e-08
8.59173215062e-06
7.01941527238e-08
8.59568068868e-06
7.22048199176e-08
7.4150445878e-08
8.60000711875e-06
1.04016150768e-05
1.25115343412e-08
1.0405750714e-05
2.29436003042e-08
1.04107725572e-05
3.09177043595e-08
1.04161282351e-05
3.68518540906e-08
1.04215433988e-05
4.13297883066e-08
1.04268873295e-05
4.48229280098e-08
1.0432098227e-05
4.76597348976e-08
1.04371488024e-05
5.00619690626e-08
1.04420411283e-05
5.21882457116e-08
1.04467934634e-05
5.41470207109e-08
1.04514489567e-05
5.60190964562e-08
1.04560577996e-05
5.78497407556e-08
1.04606907205e-05
5.96692254472e-08
1.04654195419e-05
6.14795600849e-08
1.04703307512e-05
6.3273381781e-08
1.0475504301e-05
6.50208725982e-08
1.04810232305e-05
6.6688157807e-08
6.82201467576e-08
1.0486954273e-05
1.26791936e-05
1.01069419988e-08
1.26835155515e-05
1.8620233046e-08
1.26890146355e-05
2.54178705048e-08
1.26951317782e-05
3.07345077321e-08
1.27015297969e-05
3.49311028367e-08
1.27080223539e-05
3.83308617918e-08
1.27145068992e-05
4.1174790007e-08
1.27209358963e-05
4.36345342067e-08
1.27272928909e-05
4.58298539016e-08
1.27335955642e-05
4.78460958427e-08
1.27398739407e-05
4.97375064749e-08
1.27461858357e-05
5.15394715023e-08
1.27525875652e-05
5.32641273099e-08
1.27591570647e-05
5.4912528968e-08
1.27659589384e-05
5.64683618261e-08
1.27730728643e-05
5.79105704193e-08
1.27805510826e-05
5.92064013339e-08
6.03208388994e-08
1.27884546811e-05
1.54557082937e-05
7.57764721022e-09
1.54603907925e-05
1.39373499787e-08
1.54665688613e-05
1.92386923274e-08
1.54736871566e-05
2.36153145718e-08
1.54813596124e-05
2.72576005167e-08
1.5489343514e-05
3.03462392193e-08
1.54974931701e-05
3.30245172114e-08
1.55057287478e-05
3.53986148249e-08
1.55140150328e-05
3.75433036615e-08
1.55223495191e-05
3.95101755733e-08
1.55307551876e-05
4.13309082251e-08
1.55392703567e-05
4.30223429614e-08
1.55479461505e-05
4.45877064083e-08
1.55568354284e-05
4.60212332372e-08
1.55659950339e-05
4.73088735426e-08
1.55754708806e-05
4.84327318969e-08
1.5585306966e-05
4.93716478323e-08
5.0102334069e-08
1.55955220364e-05
1.88405089317e-05
4.70518486835e-09
1.88459146313e-05
8.53007580866e-09
1.88532048546e-05
1.19463462674e-08
1.88617961404e-05
1.50216721787e-08
1.88712483949e-05
1.7803118526e-08
1.88812604401e-05
2.03317196014e-08
1.8891639181e-05
2.26439756523e-08
1.89022653978e-05
2.47698912723e-08
1.89130759645e-05
2.67314339335e-08
1.8924040823e-05
2.85422702672e-08
1.89351626705e-05
3.02081473651e-08
1.89464533847e-05
3.17282234253e-08
1.89579449502e-05
3.30960043154e-08
1.89696611752e-05
3.43016173019e-08
1.89816389355e-05
3.53324727452e-08
1.8993892594e-05
3.61758025409e-08
1.90064493625e-05
3.68190513983e-08
3.72501477467e-08
1.90192979345e-05
2.29669945661e-05
1.04514712819e-09
2.29738599044e-05
1.6611338674e-09
2.29831295357e-05
2.67261644244e-09
2.29940898377e-05
4.05754811342e-09
2.30062059525e-05
5.68281821371e-09
2.30191078095e-05
7.42614362825e-09
2.30325509855e-05
9.19709104419e-09
2.30463729382e-05
1.09439260123e-08
2.30604760305e-05
1.2625567593e-08
2.3074795017e-05
1.42187888275e-08
2.30893040983e-05
1.56974431458e-08
2.31039804538e-05
1.70464610033e-08
2.31188305058e-05
1.82456881859e-08
2.31338418872e-05
1.92844398859e-08
2.31490283537e-05
2.01476356656e-08
2.31643682624e-05
2.08294019693e-08
2.31798709389e-05
2.13211965769e-08
2.16216918818e-08
2.31954914438e-05
1.68138949899e-05
-2.14836821645e-09
1.68197044131e-05
-4.15401455264e-09
1.6827342456e-05
-4.96827420165e-09
1.68361725332e-05
-4.78041274983e-09
1.68457896003e-05
-3.93488826971e-09
1.68559209196e-05
-2.71512166893e-09
1.68664131881e-05
-1.29335323387e-09
1.68771355233e-05
2.10664091994e-10
1.68880336571e-05
1.73184359597e-09
1.68990333327e-05
3.20786221909e-09
1.69101278352e-05
4.60878939428e-09
1.69212673796e-05
5.8953480023e-09
1.69324669052e-05
7.05398308208e-09
1.69436814916e-05
8.05837729732e-09
1.69549326734e-05
8.90570723158e-09
1.69661716453e-05
9.57982419554e-09
1.69774185863e-05
1.00862664715e-08
1.04165540489e-08
1.69886155774e-05
1.46380169556e-05
-5.60006259788e-09
1.464407002e-05
-1.02109502495e-08
1.4651694727e-05
-1.25980449251e-08
1.46602173327e-05
-1.33067314904e-08
1.46692792308e-05
-1.30045200696e-08
1.46786910613e-05
-1.21292768889e-08
1.46883230021e-05
-1.09351011783e-08
1.46981022066e-05
-9.5678750635e-09
1.47079575634e-05
-8.13286826956e-09
1.47178627417e-05
-6.69570719036e-09
1.47277750338e-05
-5.31241869552e-09
1.47376900071e-05
-4.01649516792e-09
1.47475736406e-05
-2.83858078655e-09
1.47574311152e-05
-1.79442833199e-09
1.47672281295e-05
-8.99662120629e-10
1.47769735563e-05
-1.58376592788e-10
1.47866288409e-05
4.23627136472e-10
8.50958593192e-10
1.47962051269e-05
1.27440837111e-05
-9.55456147912e-09
1.27506039315e-05
-1.67339960697e-08
1.27583142486e-05
-2.03123075328e-08
1.27665487037e-05
-2.15455163384e-08
1.27750649122e-05
-2.15250204499e-08
1.278375274e-05
-2.0823399301e-08
1.27925418916e-05
-1.97277141776e-08
1.28013772498e-05
-1.84091590832e-08
1.28102231217e-05
-1.69822936126e-08
1.28190520012e-05
-1.55290555477e-08
1.28278436917e-05
-1.41087039988e-08
1.28365841879e-05
-1.27599194548e-08
1.28452558717e-05
-1.15155629604e-08
1.28538502734e-05
-1.03901120969e-08
1.2862349389e-05
-9.40266757816e-09
1.28707453187e-05
-8.55391044631e-09
1.28790223224e-05
-7.85350014808e-09
-7.29518013914e-09
1.28871670536e-05
1.10956865413e-05
-1.43137894411e-08
1.11028362791e-05
-2.38860399997e-08
1.11106098025e-05
-2.80879213192e-08
1.11184940206e-05
-2.94328470667e-08
1.11264242436e-05
-2.94587492293e-08
1.11343787514e-05
-2.87820412136e-08
1.11423297199e-05
-2.76824819514e-08
1.11502520044e-05
-2.63351082457e-08
1.11581290641e-05
-2.48623148921e-08
1.11659457575e-05
-2.3350970317e-08
1.11736953333e-05
-2.18598702853e-08
1.11813600177e-05
-2.04328483941e-08
1.11889385038e-05
-1.9093844722e-08
1.11964058796e-05
-1.78675558418e-08
1.12037666477e-05
-1.67592798781e-08
1.12109903092e-05
-1.57853267476e-08
1.12180880638e-05
-1.49448176188e-08
-1.42486375533e-08
1.12250348354e-05
9.66116994909e-06
-2.0270925399e-08
9.66901650553e-06
-3.17341830973e-08
9.6767179398e-06
-3.57915313133e-08
9.68414584338e-06
-3.68629705726e-08
9.69144272965e-06
-3.67582930049e-08
9.69865348383e-06
-3.59952639336e-08
9.70578162397e-06
-3.48131745173e-08
9.71282667285e-06
-3.33825991347e-08
9.71978896741e-06
-3.18268335386e-08
9.72666689735e-06
-3.02314142281e-08
9.73345703521e-06
-2.86535221575e-08
9.74015330384e-06
-2.71320582166e-08
9.74674477324e-06
-2.56918006399e-08
9.75322331462e-06
-2.43476208016e-08
9.75957200237e-06
-2.31122252743e-08
9.76577917037e-06
-2.19928731886e-08
9.77183121372e-06
-2.09978694861e-08
-2.01384701958e-08
9.7777198183e-06
8.41300551339e-06
-2.79253302302e-08
8.42145362067e-06
-4.01837655211e-08
8.42886034411e-06
-4.319952153e-08
8.43572592352e-06
-4.37310238773e-08
8.44235631493e-06
-4.33904691636e-08
8.44882465417e-06
-4.2465705639e-08
8.45515783364e-06
-4.11481785905e-08
8.46137641708e-06
-3.96026084967e-08
8.46749492457e-06
-3.79467222197e-08
8.47352108774e-06
-3.62586587494e-08
8.47945610016e-06
-3.45910937505e-08
8.48529737719e-06
-3.29763166716e-08
8.49103617116e-06
-3.14338682402e-08
8.49666103455e-06
-2.9975347083e-08
8.50215552744e-06
-2.86086505976e-08
8.50750349035e-06
-2.73408922914e-08
8.51268851462e-06
-2.61885532385e-08
-2.51842970222e-08
8.51773549211e-06
7.3272408234e-06
-3.78832277087e-08
7.33596340568e-06
-4.89076090099e-08
7.34282744395e-06
-5.00654467045e-08
7.34906231821e-06
-4.99674997372e-08
7.35500857634e-06
-4.93388024761e-08
7.36073775075e-06
-4.81962523281e-08
7.3662973328e-06
-4.67091352515e-08
7.37172612909e-06
-4.50323997341e-08
7.37704994475e-06
-4.32710610352e-08
7.38228205846e-06
-4.14926236027e-08
7.38742864748e-06
-3.97387854247e-08
7.39248981076e-06
-3.80399088222e-08
7.39745776423e-06
-3.64040328016e-08
7.40232061075e-06
-3.48398522339e-08
7.40705906036e-06
-3.33480995802e-08
7.41164360326e-06
-3.19263019774e-08
7.41603187406e-06
-3.05799510169e-08
-2.93408917024e-08
7.42018310162e-06
6.38300624329e-06
-5.0824583888e-08
6.39139260312e-06
-5.72951139225e-08
6.39753715377e-06
-5.6210899606e-08
6.40313999381e-06
-5.55747512306e-08
6.40842363123e-06
-5.4622031727e-08
6.41345119564e-06
-5.32247868437e-08
6.4182894131e-06
-5.15482877972e-08
6.42298788519e-06
-4.97314545584e-08
6.42757717301e-06
-4.78609362566e-08
6.43207352405e-06
-4.59890095566e-08
6.43648275562e-06
-4.41531007493e-08
6.44081083853e-06
-4.23669415588e-08
6.44504839168e-06
-4.06427766133e-08
6.44918670426e-06
-3.89792417542e-08
6.45320807759e-06
-3.73697082512e-08
6.45707769915e-06
-3.57966640212e-08
6.4607377786e-06
-3.42416684831e-08
-3.27354254257e-08
6.46412417903e-06
5.56200554765e-06
-6.73667100344e-08
5.56900345184e-06
-6.42939427147e-08
5.57412236434e-06
-6.1332076258e-08
5.57876390315e-06
-6.02198651228e-08
5.58297361544e-06
-5.8832177094e-08
5.58683790267e-06
-5.70893252922e-08
5.59044183919e-06
-5.5152945746e-08
5.59384252159e-06
-5.31325097742e-08
5.59707477388e-06
-5.10929446998e-08
5.60015709503e-06
-4.90748374943e-08
5.60310301531e-06
-4.71011794144e-08
5.6059208902e-06
-4.51849991498e-08
5.60861087229e-06
-4.33324451402e-08
5.61117244078e-06
-4.15413460582e-08
5.61360056587e-06
-3.97977213513e-08
5.61586813271e-06
-3.80635139547e-08
5.61787424054e-06
-3.6253431565e-08
-3.41559900105e-08
5.61929193729e-06
4.84509100645e-06
-8.48516523513e-08
4.84636606967e-06
-6.55702422299e-08
4.84612139203e-06
-6.10899180497e-08
4.84452101681e-06
-5.86234157892e-08
4.84176355123e-06
-5.6075277032e-08
4.8381489882e-06
-5.34750799309e-08
4.83390572047e-06
-5.09103791445e-08
4.82919861431e-06
-4.84256789149e-08
4.82414798586e-06
-4.60430481624e-08
4.81884306464e-06
-4.37730385466e-08
4.81335532107e-06
-4.16163136798e-08
4.80774103054e-06
-3.95704854499e-08
4.80204234329e-06
-3.7633431873e-08
4.79629751364e-06
-3.5796766459e-08
4.79054565976e-06
-3.4045328281e-08
4.78482711726e-06
-3.23460741662e-08
4.77917499779e-06
-3.06041884752e-08
-2.80285714318e-08
4.77304193284e-06
4.11782449434e-06
4.05225406762e-06
3.99116376736e-06
3.93254029241e-06
3.87646498983e-06
3.82298982753e-06
3.7720794044e-06
3.72365368306e-06
3.67761021669e-06
3.63383665498e-06
3.59222035333e-06
3.55264996534e-06
3.51501647164e-06
3.4792197715e-06
3.44517442854e-06
3.41282768433e-06
3.38222211926e-06
3.3541939387e-06
1.54295410037e-08
-1.56187961384e-08
-1.14927979582e-08
2.67371127965e-08
-9.24454338621e-08
8.08754911898e-08
-1.99844665552e-07
1.07324128873e-07
-3.20854353489e-07
1.20980406017e-07
-4.50934531067e-07
1.30033368788e-07
-5.87700275338e-07
1.36752013582e-07
-7.29604286168e-07
1.41867966646e-07
-8.753448777e-07
1.45731695344e-07
-1.0239439046e-06
1.48567973561e-07
-1.17449369151e-06
1.50543336643e-07
-1.32630950538e-06
1.51788074739e-07
-1.47872730874e-06
1.52413242025e-07
-1.6312637979e-06
1.52512021606e-07
-1.78343483117e-06
1.52168614026e-07
-1.93491095156e-06
1.51454783674e-07
-2.08534773048e-06
1.50437021581e-07
-2.23453834675e-06
1.49171476964e-07
-2.3822494345e-06
1.47711225867e-07
-2.52836832376e-06
1.46100181994e-07
-2.67274859391e-06
1.44380201601e-07
-2.8153533435e-06
1.42585000936e-07
-2.95610382674e-06
1.4074772306e-07
-3.09501900918e-06
1.38893741465e-07
-3.2320725328e-06
1.37048604565e-07
-3.36732579328e-06
1.3523118875e-07
-3.50079193152e-06
1.33461238245e-07
-3.6325658625e-06
1.31751916499e-07
-3.76268976684e-06
1.30118232173e-07
-3.89128069667e-06
1.28569315717e-07
-4.01840092017e-06
1.27116338362e-07
-4.1441854261e-06
1.25764014236e-07
-4.26870875881e-06
1.24519701532e-07
-4.39211164783e-06
1.23383823538e-07
-4.51447051721e-06
1.22358205381e-07
-4.63592424771e-06
1.21435836926e-07
-4.75653460718e-06
1.20610215841e-07
-4.87641572794e-06
1.19863024181e-07
-4.99559021393e-06
1.19174092189e-07
-5.11411684412e-06
1.18508233017e-07
-5.23194323855e-06
1.17826077314e-07
-5.34903100754e-06
1.17070183886e-07
-5.4652078472e-06
1.16177767904e-07
-5.58029086521e-06
1.15067635375e-07
-5.6939425852e-06
1.13655313621e-07
-5.80579626942e-06
1.11841270084e-07
-5.91531965305e-06
1.09528817183e-07
-6.021942397e-06
1.06612932922e-07
-6.12493379433e-06
1.02998463318e-07
-6.22353667144e-06
9.85943497171e-08
-6.31685956995e-06
9.3329924457e-08
-6.4040075974e-06
8.71399437466e-08
-6.4839862559e-06
7.9984572654e-08
-6.55582310736e-06
7.18304916423e-08
-6.61849591607e-06
6.26810265639e-08
-6.67104172675e-06
5.25407256881e-08
-6.71245181512e-06
4.14174088271e-08
-6.74176844489e-06
2.93114284212e-08
-6.75796546391e-06
1.62050354506e-08
-6.76003908565e-06
2.06694940477e-09
-6.74705993567e-06
-1.297382792e-08
-6.71836101882e-06
-2.87067500237e-08
-6.67335221728e-06
-4.50027133053e-08
-6.61161336e-06
-6.17474392073e-08
-6.53281181753e-06
-7.87959111624e-08
-6.43684292857e-06
-9.59795306817e-08
-6.32376199841e-06
-1.1307685565e-07
-6.19393356303e-06
-1.29840042957e-07
-6.04794963747e-06
-1.45979337653e-07
-5.88675565026e-06
-1.61204006637e-07
-5.71153378008e-06
-1.7521486308e-07
-5.52378841409e-06
-1.87752898937e-07
-5.32518727769e-06
-1.9859153841e-07
-5.11761570942e-06
-2.07578064718e-07
-4.90299761647e-06
-2.14609711616e-07
-4.68333583579e-06
-2.19670546027e-07
-4.46053323466e-06
-2.22798660411e-07
-4.23644696708e-06
-2.24096039838e-07
-4.01274666762e-06
-2.23694431422e-07
-3.79096775495e-06
-2.2178734814e-07
-3.57238548298e-06
-2.1857725688e-07
-3.3581338651e-06
-2.14258801356e-07
-3.1491046964e-06
-2.09022133956e-07
-2.94599005962e-06
-2.03122731916e-07
-2.74922629448e-06
-1.96761713145e-07
-2.55918632226e-06
-1.9005122625e-07
-2.37608373722e-06
-1.83102375432e-07
-2.19994967216e-06
-1.76137897935e-07
-2.03068879338e-06
-1.69245502535e-07
-1.86823261762e-06
-1.62432982857e-07
-1.7123216055e-06
-1.55900019175e-07
-1.56267367004e-06
-1.49662476326e-07
-1.41943655643e-06
-1.4326338807e-07
-1.28237357405e-06
-1.37100970875e-07
-1.15054862454e-06
-1.31865689524e-07
-1.02342685538e-06
-1.27175049069e-07
-9.01748957715e-07
-1.21735149536e-07
-7.85810291595e-07
-1.16014468039e-07
-6.74530192506e-07
-1.11357762845e-07
-5.68258663272e-07
-1.06373776883e-07
-4.66850169077e-07
-1.01518179792e-07
-3.68384365883e-07
-9.86042048822e-08
-2.71048034115e-07
-9.74661523579e-08
-1.76973696686e-07
-9.4208043005e-08
-8.72183326077e-08
-8.99132385842e-08
-2.49660282997e-09
-8.4899456118e-08
7.08977658518e-08
-7.35638990551e-08
1.31682703263e-07
-6.0898526897e-08
1.86434017381e-07
-5.48275052856e-08
2.37545111512e-07
-5.11681134781e-08
2.85797298705e-07
-4.82871103159e-08
3.31664547249e-07
-4.58948082043e-08
3.75540321833e-07
-4.3885967514e-08
4.17740813841e-07
-4.22088177053e-08
4.58553449797e-07
-4.08070909746e-08
4.98210568746e-07
-3.96544190053e-08
5.36935643533e-07
-3.87109295991e-08
5.74908751366e-07
-3.79604795156e-08
6.12302578744e-07
-3.73709996016e-08
6.49244736976e-07
-3.69305184875e-08
6.85861842497e-07
-3.66133951272e-08
7.22254808646e-07
-3.64102982018e-08
7.5853483621e-07
-3.62984767337e-08
7.94781975011e-07
-3.62706678679e-08
8.31077079328e-07
-3.63037643947e-08
8.67462125739e-07
-3.63925401697e-08
9.0398420463e-07
-3.65149288264e-08
9.40656717187e-07
-3.66667183594e-08
9.77501433093e-07
-3.68273357577e-08
1.01450897175e-06
-3.69933317677e-08
1.0516785076e-06
-3.71457031219e-08
1.08898004787e-06
-3.72815120156e-08
1.12639188631e-06
-3.73834261462e-08
1.16386569455e-06
-3.74489145466e-08
1.20136070208e-06
-3.74625052141e-08
1.23881247459e-06
-3.74220399299e-08
1.27616343525e-06
-3.73140671475e-08
1.31333712341e-06
-3.71365829088e-08
1.35026048867e-06
-3.68780366142e-08
1.38684240305e-06
-3.65366734342e-08
1.42299178235e-06
-3.6104449834e-08
1.45860953819e-06
-3.55796799398e-08
1.49359996911e-06
-3.49579235826e-08
1.5278645856e-06
-3.42380476999e-08
1.56130603871e-06
-3.34177522154e-08
1.59382416776e-06
-3.24977191383e-08
1.62532105042e-06
-3.14777630317e-08
1.65569953328e-06
-3.03613308281e-08
1.6848682286e-06
-2.91520027908e-08
1.71274012383e-06
-2.78563111204e-08
1.7392371967e-06
-2.6481424189e-08
1.76428928027e-06
-2.50370363503e-08
1.78783727363e-06
-2.35326671157e-08
1.80983230131e-06
-2.19801112283e-08
1.83023862779e-06
-2.03911506692e-08
1.8490326502e-06
-1.87792472737e-08
1.86620456174e-06
-1.71569978549e-08
1.88175618103e-06
-1.55371384551e-08
1.89570112818e-06
-1.39304379598e-08
1.90806230021e-06
-1.23470781027e-08
1.91887081549e-06
-1.07944373444e-08
1.92816292419e-06
-9.27835230089e-09
1.93597835982e-06
-7.80167391505e-09
1.94235836929e-06
-6.36641300991e-09
1.94734713823e-06
-4.97510741234e-09
1.95099565306e-06
-3.63481871478e-09
1.95337356088e-06
-2.36408140847e-09
1.95462000551e-06
-1.23235983445e-09
1.95484625479e-06
-2.12008691086e-10
1.95394184454e-06
9.19115421139e-10
1.95159941711e-06
2.35720742087e-09
1.94738915403e-06
4.22561151218e-09
1.94066911402e-06
6.73521818871e-09
1.9305591847e-06
1.01256811165e-08
1.91587397941e-06
1.47003324461e-08
1.89493895221e-06
2.09504467147e-08
1.86535522591e-06
2.95978320285e-08
1.82355163069e-06
4.18186085755e-08
1.76377449087e-06
5.97931887903e-08
8.43664899244e-08
1.6794292638e-06
-1.01265211073e-07
8.55673001897e-08
-2.23609147852e-07
1.49025542969e-07
-3.32374169273e-07
1.89609288808e-07
-4.46154394325e-07
2.21069121907e-07
-5.69202852174e-07
2.44008952172e-07
-7.00301441901e-07
2.61103979046e-07
-8.37595027109e-07
2.74030976974e-07
-9.79528887312e-07
2.83777435916e-07
-1.12480011295e-06
2.90991217671e-07
-1.2723887263e-06
2.96134221322e-07
-1.42141136974e-06
2.99555884675e-07
-1.57117779409e-06
3.01534055342e-07
-1.72107159078e-06
3.02298632426e-07
-1.87062225924e-06
3.02044559801e-07
-2.01940054692e-06
3.00940558742e-07
-2.16709498829e-06
2.99133617402e-07
-2.31341521553e-06
2.96753130284e-07
-2.45816966597e-06
2.93912569894e-07
-2.60117384253e-06
2.90712259641e-07
-2.74232668488e-06
2.87240013662e-07
-2.88152324097e-06
2.8357334531e-07
-3.01873081304e-06
2.79779608817e-07
-3.15390618707e-06
2.75918104049e-07
-3.2870674576e-06
2.72040137272e-07
-3.41821607077e-06
2.68190836603e-07
-3.54740847134e-06
2.64408774689e-07
-3.67468232042e-06
2.60727839795e-07
-3.80012369588e-06
2.57177137126e-07
-3.92379598319e-06
2.53782426989e-07
-4.0458077808e-06
2.50565353685e-07
-4.16624448418e-06
2.47544808561e-07
-4.28523253758e-06
2.44736004136e-07
-4.40287184245e-06
2.4215106182e-07
-4.51929988556e-06
2.39796831963e-07
-4.63462356982e-06
2.37674863029e-07
-4.74898036901e-06
2.35778238619e-07
-4.86246731223e-06
2.34090378036e-07
-4.97519918766e-06
2.32580522348e-07
-5.08723416e-06
2.31202073149e-07
-5.19862748561e-06
2.29887471845e-07
-5.30935487578e-06
2.2854687651e-07
-5.4193608772e-06
2.27063448709e-07
-5.52848236581e-06
2.2529424642e-07
-5.63649359673e-06
2.23068711065e-07
-5.74303448343e-06
2.20193913095e-07
-5.84765848696e-06
2.16458597305e-07
-5.94977209763e-06
2.11642736708e-07
-6.0486867353e-06
2.05523225971e-07
-6.14357192534e-06
1.97885997101e-07
-6.23351699662e-06
1.88537631401e-07
-6.31750492412e-06
1.77320531189e-07
-6.3944846503e-06
1.64118021008e-07
-6.46335617159e-06
1.48859596343e-07
-6.52304458991e-06
1.3151952112e-07
-6.57247954072e-06
1.12120490528e-07
-6.61064259083e-06
9.07042610812e-08
-6.636558167e-06
6.73371011104e-08
-6.64933713928e-06
4.20908560987e-08
-6.6481632325e-06
1.50338139481e-08
-6.63255794899e-06
-1.35404285563e-08
-6.60223242663e-06
-4.32993057146e-08
-6.55683187269e-06
-7.41111951372e-08
-6.49598013208e-06
-1.05855255841e-07
-6.41936077932e-06
-1.38372050702e-07
-6.32672033548e-06
-1.71439103399e-07
-6.21794950377e-06
-2.04756961272e-07
-6.09310152409e-06
-2.37928674175e-07
-5.95247922457e-06
-2.70469181955e-07
-5.79664131565e-06
-3.01819821437e-07
-5.62645987918e-06
-3.3138965319e-07
-5.44308565596e-06
-3.58588268654e-07
-5.24795983988e-06
-3.82879561264e-07
-5.0427272378e-06
-4.03820744327e-07
-4.8292025143e-06
-4.21101559965e-07
-4.60927008612e-06
-4.34538891209e-07
-4.38484479106e-06
-4.44097328532e-07
-4.15776179704e-06
-4.49880711485e-07
-3.9297518128e-06
-4.52107387939e-07
-3.70238731419e-06
-4.51057700967e-07
-3.47708282885e-06
-4.47093498477e-07
-3.25501626736e-06
-4.40642484151e-07
-3.03716885889e-06
-4.32106994098e-07
-2.82433797793e-06
-4.21852019586e-07
-2.61718556572e-06
-4.10278826494e-07
-2.41612176943e-06
-3.97829143284e-07
-2.22141521292e-06
-3.84766035363e-07
-2.0332724003e-06
-3.71253318456e-07
-1.85170489592e-06
-3.57708532059e-07
-1.67661538963e-06
-3.44322817798e-07