/*--------------------------------*- C++ -*----------------------------------*\
| =========                 |                                                 |
| \\      /  F ield         | OpenFOAM: The Open Source CFD Toolbox           |
|  \\    /   O peration     | Version:  v1806                                 |
|   \\  /    A nd           | Web:      www.OpenFOAM.com                      |
|    \\/     M anipulation  |                                                 |
\*---------------------------------------------------------------------------*/
FoamFile
{
    version     2.0;
    format      ascii;
    class       surfaceScalarField;
    location    "4";
    object      phia;
}
// * * * * * * * * * * * * * * * * * * * * * * * * * * * * * * * * * * * * * //

dimensions      [0 3 -1 0 0 0 0];
oriented        oriented;


internalField   nonuniform List<scalar> 
24170
(
-1.00826085345e-08
3.28897085458e-07
1.86254695485e-07
-1.95013987551e-07
1.69505305243e-07
1.69267571897e-08
1.42117214531e-07
2.70142389388e-08
1.35885160087e-07
6.34184416407e-09
1.26203811504e-07
9.12824590005e-09
1.22233470002e-07
4.27696971096e-09
1.21765285225e-07
-1.38536482431e-10
1.29674068551e-07
-7.59484352657e-09
1.46344025662e-07
-1.71492932164e-08
1.72363720678e-07
-2.54909442612e-08
2.06191284405e-07
-3.37441662838e-08
2.46083925982e-07
-3.90654975333e-08
3.03016286522e-07
-5.61983161701e-08
3.7033379969e-07
-6.62664857941e-08
4.4932033853e-07
-7.82860523989e-08
5.59725746928e-07
-1.1024033993e-07
-4.42570394846e-07
1.00233267071e-06
7.68831342568e-07
-8.80395561113e-08
3.15552424629e-07
2.66497835753e-07
3.07943929634e-07
3.02087237433e-08
2.98026668173e-07
4.13600976397e-08
2.81302375926e-07
2.68313236249e-08
2.70559019035e-07
2.29327332135e-08
2.6520248678e-07
1.26533740325e-08
2.65858937793e-07
1.43534732154e-09
2.72101716911e-07
-1.15901114578e-08
2.82769682003e-07
-2.63194307969e-08
2.99301603689e-07
-4.04741410474e-08
3.20557445465e-07
-5.40396173084e-08
3.4875103638e-07
-6.63610750534e-08
3.84943375717e-07
-9.18188236933e-08
4.25033659252e-07
-1.05910248321e-07
4.81886565409e-07
-1.35029586705e-07
5.89619129385e-07
-2.18339338118e-07
-5.82155474939e-07
7.29248927404e-07
1.51363955343e-07
1.25594556243e-07
3.14320687064e-07
1.02659805323e-07
2.90257845467e-07
5.32537818153e-08
2.73487064369e-07
5.68882350457e-08
2.6144793445e-07
3.81282502e-08
2.51963505366e-07
3.12963633666e-08
2.46078072391e-07
1.80748956655e-08
2.43161650453e-07
3.44799221766e-09
2.44366126332e-07
-1.30919398121e-08
2.49610636977e-07
-3.21138766387e-08
2.60723764998e-07
-5.15148943091e-08
2.78364826735e-07
-7.16325917692e-08
3.04771517141e-07
-9.23126476124e-08
3.35499254127e-07
-1.22011735225e-07
3.7639978327e-07
-1.46167253018e-07
4.34942269132e-07
-1.93097302679e-07
5.26466735532e-07
-3.09658881826e-07
-6.08897209206e-07
5.53903895376e-07
4.05311381563e-07
1.21349053973e-07
3.6559441058e-07
1.48849291985e-07
3.53687663307e-07
7.03072320534e-08
3.39813770473e-07
7.49907388132e-08
3.27776626852e-07
5.37986135046e-08
3.18745637245e-07
4.33678649554e-08
3.12611418246e-07
2.70078872061e-08
3.09431646734e-07
8.848694334e-09
3.10097153871e-07
-1.17701587782e-08
3.14441108077e-07
-3.49490890515e-08
3.23631994778e-07
-5.93821151981e-08
3.37968042934e-07
-8.50020696819e-08
3.58724113471e-07
-1.12272722339e-07
3.82809255756e-07
-1.45508189302e-07
4.1693660384e-07
-1.79860607297e-07
4.65005712406e-07
-2.40963710518e-07
5.21723068454e-07
-3.66434146098e-07
-5.8448252618e-07
4.97436931675e-07
4.06401338803e-07
1.33946888272e-07
4.05127127603e-07
1.48992811909e-07
3.89820064826e-07
8.45298558571e-08
3.80511304438e-07
8.30325948791e-08
3.72040260987e-07
6.13813161917e-08
3.6656925848e-07
4.77449596017e-08
3.63497082644e-07
2.94460930986e-08
3.62825465824e-07
8.71575654862e-09
3.65174216154e-07
-1.45295418946e-08
3.70411236678e-07
-4.05939625655e-08
3.79308506626e-07
-6.83007846253e-08
3.92062108041e-07
-9.76681509274e-08
4.09287603119e-07
-1.29175477577e-07
4.30025385616e-07
-1.65822867143e-07
4.59146815804e-07
-2.08518089012e-07
4.95882059309e-07
-2.77365145871e-07
5.2324516048e-07
-3.93595166034e-07
-5.4479476542e-07
4.84199263702e-07
4.54794657667e-07
1.36070622046e-07
4.49679007785e-07
1.58910718994e-07
4.36560654578e-07
1.01658598546e-07
4.29985079751e-07
9.31723370141e-08
4.23856162148e-07
7.05544739417e-08
4.20454143774e-07
5.38022875837e-08
4.19015355999e-07
3.31590844709e-08
4.19593273339e-07
1.00622609709e-08
4.22456113864e-07
-1.58230831225e-08
4.2757027583e-07
-4.43812750983e-08
4.35367711065e-07
-7.50455929645e-08
4.46124192947e-07
-1.07519818861e-07
4.60146005659e-07
-1.42461684149e-07
4.7741240816e-07
-1.82450578218e-07
5.00222070332e-07
-2.30828853652e-07
5.24142359438e-07
-3.00944445116e-07
5.30606049563e-07
-3.99923171519e-07
-5.04719277011e-07
4.90497561161e-07
4.97134264908e-07
1.20458873314e-07
4.9332197308e-07
1.61419549698e-07
4.83193857773e-07
1.10702394694e-07
4.79109275374e-07
9.62282667713e-08
4.75400453115e-07
7.33559309679e-08
4.74003880708e-07
5.4352904956e-08
4.74190032612e-07
3.22915678701e-08
4.75931041396e-07
7.75230382361e-09
4.79300897281e-07
-1.96104043635e-08
4.84263715055e-07
-4.95605021957e-08
4.9107510357e-07
-8.19036176857e-08
4.99963800037e-07
-1.16267988744e-07
5.11116281966e-07
-1.53337324078e-07
5.24566949428e-07
-1.95523610228e-07
5.40361547806e-07
-2.46244897256e-07
5.52207963124e-07
-3.1255005862e-07
5.45422613669e-07
-3.9316628145e-07
-4.66351164886e-07
5.08205061439e-07
5.39718278783e-07
1.02549968762e-07
5.37184420383e-07
1.66943074689e-07
5.30692173956e-07
1.20079513766e-07
5.28700850613e-07
1.00812989331e-07
5.27141786571e-07
7.72611970369e-08
5.27414070194e-07
5.60475448337e-08
5.28951471423e-07
3.25003686232e-08
5.31625612089e-07
6.458044972e-09
5.35420605922e-07
-2.21751907751e-08
5.40221198517e-07
-5.34166974312e-08
5.46176224997e-07
-8.7001746502e-08
5.53385166904e-07
-1.22743955427e-07
5.61890975343e-07
-1.61143391502e-07
5.71319329017e-07
-2.04354565259e-07
5.8016806004e-07
-2.54555012798e-07
5.8219748972e-07
-3.14315534979e-07
5.67883561356e-07
-3.7829916834e-07
-4.31300845439e-07
5.33269398467e-07
5.82469026372e-07
7.28403781568e-08
5.81417179698e-07
1.66699688599e-07
5.79024803882e-07
1.21484177572e-07
5.78848079923e-07
1.00190873181e-07
5.79242260072e-07
7.61874628361e-08
5.8094694651e-07
5.37458381616e-08
5.83605936424e-07
2.93571877665e-08
5.87045653456e-07
2.65062075717e-09
5.91137143601e-07
-2.65103450431e-08
5.95747884079e-07
-5.81229937352e-08
6.00868224549e-07
-9.21141729389e-08
6.06488333929e-07
-1.28168813687e-07
6.12380610299e-07
-1.66735840188e-07
6.17755943848e-07
-2.09344262932e-07
6.2034859044e-07
-2.56810747007e-07
6.150372998e-07
-3.08784432777e-07
5.96421365384e-07
-3.59381152068e-07
-3.98326447383e-07
5.64651252537e-07
6.26098165912e-07
4.46900392598e-08
6.26031809125e-07
1.69291944085e-07
6.28044781732e-07
1.21988787764e-07
6.29519768827e-07
1.01169447611e-07
6.31839096079e-07
7.60957886695e-08
6.34887832067e-07
5.27095614086e-08
6.38578433893e-07
2.73532395536e-08
6.42668024589e-07
4.99019520682e-11
6.46959057289e-07
-2.96276184171e-08
6.51301725519e-07
-6.1483132025e-08
6.55592172304e-07
-9.55620129627e-08
6.59621504583e-07
-1.31397853617e-07
6.62875995764e-07
-1.69404409837e-07
6.64345518869e-07
-2.1018522898e-07
6.61611837857e-07
-2.5368485095e-07
6.51122409852e-07
-2.9803309954e-07
6.30502990311e-07
-3.38150284028e-07
-3.67843930683e-07
6.00884926741e-07
6.70526098351e-07
9.85862133096e-09
6.71341455704e-07
1.67480371802e-07
6.76738822486e-07
1.1629389851e-07
6.80027763148e-07
9.78571684386e-08
6.8419161264e-07
7.21412561539e-08
6.88585925174e-07
4.85535925783e-08
6.9333172289e-07
2.29667619863e-08
6.98083438966e-07
-4.37720506118e-09
7.02667847937e-07
-3.380214411e-08
7.06796499037e-07
-6.52794278209e-08
7.10300751952e-07
-9.86129541929e-08
7.12664352589e-07
-1.33447216032e-07
7.13414464435e-07
-1.69575662256e-07
7.11300666298e-07
-2.07709086397e-07
7.04390017134e-07
-2.46354243342e-07
6.90358923679e-07
-2.83854664905e-07
6.68598764064e-07
-3.15951986419e-07
-3.39023431636e-07
6.40885086226e-07
5.97003035098e-07
-1.11953781601e-08
6.02182397837e-07
1.63387656559e-07
6.07208349686e-07
1.12451469684e-07
6.11690589679e-07
9.44700576695e-08
6.16148376309e-07
6.88092952658e-08
6.20732199277e-07
4.4843856357e-08
6.25404172835e-07
1.91359134956e-08
6.29850689181e-07
-8.21458377579e-09
6.33794387542e-07
-3.72868066527e-08
6.37019238836e-07
-6.81873064963e-08
6.3933084704e-07
-1.00601999225e-07
6.40301062316e-07
-1.33802372654e-07
6.39052444652e-07
-1.68607648013e-07
6.35138620029e-07
-2.03217197785e-07
6.26753535817e-07
-2.38218258064e-07
6.13250834108e-07
-2.70068450744e-07
5.94610194176e-07
-2.97008494917e-07
-3.15651052399e-07
5.72345377598e-07
7.18061727295e-07
-3.09667452475e-08
7.27010423358e-07
1.54323929933e-07
7.33795211565e-07
1.06046908879e-07
7.40289873582e-07
8.87576750727e-08
7.46455236465e-07
6.33831583449e-08
7.5250796458e-07
3.97363488828e-08
7.58249970101e-07
1.41332402345e-08
7.63511889568e-07
-1.27081672688e-08
7.67957422645e-07
-4.12253856764e-08
7.71420420131e-07
-7.10704251559e-08
7.73549073964e-07
-1.01961547955e-07
7.73318820519e-07
-1.3362989377e-07
7.70635779533e-07
-1.65243703944e-07
7.63890350246e-07
-1.97046133963e-07
7.52924183468e-07
-2.26782972559e-07
7.36280095348e-07
-2.54011394846e-07
7.15541673619e-07
-2.75125876963e-07
-2.90796715759e-07
6.90747103992e-07
8.65024661715e-07
-4.2361971374e-08
8.77027329793e-07
1.42578654955e-07
8.86482016477e-07
9.65362996756e-08
8.94666231945e-07
8.03567508731e-08
9.0244376806e-07
5.59354243808e-08
9.09582979902e-07
3.25765150517e-08
9.16234324775e-07
7.97555973978e-09
9.21774614289e-07
-1.82279697957e-08
9.26190974372e-07
-4.52208090721e-08
9.29058208388e-07
-7.37880530126e-08
9.30177531687e-07
-1.02259575241e-07
9.28528763315e-07
-1.31578391715e-07
9.2331013501e-07
-1.60005331582e-07
9.14157023448e-07
-1.87698668964e-07
8.99872567882e-07
-2.12947104128e-07
8.81126498529e-07
-2.34822955806e-07
8.57557671279e-07
-2.5197075383e-07
-2.63448357776e-07
8.3182848814e-07
1.03917053606e-06
-4.17603852525e-08
1.05618538414e-06
1.25132515278e-07
1.06845344905e-06
8.39828841396e-08
1.07943036299e-06
6.92104617488e-08
1.08900869911e-06
4.55699703472e-08
1.09784002587e-06
2.37745066116e-08
1.10503497472e-06
-4.87199589696e-11
1.11102145936e-06
-2.41335934041e-08
1.11464570809e-06
-4.9830367454e-08
1.11713350429e-06
-7.50793723113e-08
1.116160714e-06
-1.01732278345e-07
1.11280527943e-06
-1.26861969058e-07
1.10451659971e-06
-1.52333322719e-07
1.09269763873e-06
-1.75031736843e-07
1.07529968284e-06
-1.96332088168e-07
1.05418217209e-06
-2.13187497557e-07
1.02886507083e-06
-2.26883655809e-07
-2.35381391252e-07
1.00076325023e-06
1.24845959338e-06
-2.3108450905e-08
1.27074736914e-06
1.02892202936e-07
1.28568005311e-06
6.84925979448e-08
1.2993661052e-06
5.47483344444e-08
1.31132179076e-06
3.33181749179e-08
1.32120321179e-06
1.29219238667e-08
1.32955522195e-06
-8.53799233576e-09
1.33493083019e-06
-3.08098872811e-08
1.3388466274e-06
-5.3137376157e-08
1.33886319912e-06
-7.61164086208e-08
1.33727602149e-06
-9.83294510434e-08
1.3300543292e-06
-1.20575298404e-07
1.32041082697e-06
-1.40937463751e-07
1.30426028514e-06
-1.60188867008e-07
1.28575502657e-06
-1.76261144116e-07
1.26087329131e-06
-1.90023711999e-07
1.23535775471e-06
-1.99592925127e-07
-2.0667473115e-07
1.20467465923e-06
1.50554873275e-06
1.63554374533e-08
1.52893472652e-06
7.85832815372e-08
1.54596705369e-06
5.11667402695e-08
1.56222581507e-06
3.8264489053e-08
1.57586376839e-06
1.95479571648e-08
1.58710241092e-06
1.62107456301e-09
1.59551241578e-06
-1.71754893246e-08
1.60097611705e-06
-3.63654104746e-08
1.60306308362e-06
-5.54962635099e-08
1.60221732219e-06
-7.46261071501e-08
1.59711219517e-06
-9.31397313864e-08
1.58833117361e-06
-1.10977986507e-07
1.57454925941e-06
-1.27278817101e-07
1.55712393576e-06
-1.42021903529e-07
1.53478012734e-06
-1.54369897192e-07
1.5098397007e-06
-1.64422374467e-07
1.48095551055e-06
-1.71582886194e-07
-1.76374675118e-07
1.45175833762e-06
1.81360663188e-06
8.56842170683e-08
1.84121343395e-06
5.08807316247e-08
1.85935402086e-06
3.33383448341e-08
1.87773053039e-06
2.05175171809e-08
1.89246985417e-06
5.31488627232e-09
1.90444658101e-06
-9.55896657978e-09
1.91255121134e-06
-2.49685351367e-08
1.91742276964e-06
-4.04443988417e-08
1.91776000593e-06
-5.57827236262e-08
1.91492862719e-06
-7.07991604248e-08
1.90688256561e-06
-8.51843649014e-08
1.89563808457e-06
-9.86360931296e-08
1.87878019805e-06
-1.10778762586e-07
1.85929163437e-06
-1.21424330248e-07
1.83446120164e-06
-1.3025556261e-07
1.8084052112e-06
-1.371873553e-07
1.77757896593e-06
-1.42095602011e-07
-1.45114785078e-07
1.74782822948e-06
2.19606178738e-06
1.86233316557e-07
2.23048888214e-06
1.72667533828e-08
2.24935076397e-06
1.56663842066e-08
2.26844970801e-06
2.38054702534e-09
2.28286568979e-06
-7.93270468957e-09
2.29374559111e-06
-1.95616953029e-08
2.30019807775e-06
-3.05385905975e-08
2.30266912349e-06
-4.20246481431e-08
2.30009005375e-06
-5.27899226849e-08
2.29396380256e-06
-6.36839203049e-08
2.28235057635e-06
-7.35469722535e-08
2.26783522983e-06
-8.29432581527e-08
2.24771137537e-06
-9.09812708211e-08
2.2256921969e-06
-9.81181285568e-08
2.19843314764e-06
-1.03726782023e-07
2.17090453118e-06
-1.08130155385e-07
2.13849442397e-06
-1.1104280908e-07
-1.12706608394e-07
2.10804395233e-06
1.63246542744e-06
2.3551823041e-07
1.64637598104e-06
5.20316405282e-09
1.6562615931e-06
6.18603765916e-09
1.66681704182e-06
-5.66048790699e-09
1.67283682214e-06
-1.4388413085e-08
1.67880629271e-06
-2.26070966243e-08
1.6790698191e-06
-3.20424739165e-08
1.67959122455e-06
-3.97361819809e-08
1.67388195519e-06
-4.88674866394e-08
1.66889051512e-06
-5.61013240858e-08
1.65770403871e-06
-6.42902267846e-08
1.64761672074e-06
-7.03821919987e-08
1.63148873024e-06
-7.6908417231e-08
1.61697994301e-06
-8.12847272804e-08
1.5970040949e-06
-8.57487703171e-08
1.57922539468e-06
-8.81295692826e-08
1.55647365834e-06
-9.0466051139e-08
-9.0875104729e-08
1.53670163173e-06
1.43719595937e-06
2.62941555597e-07
1.44696390845e-06
-3.52689345694e-09
1.4553276239e-06
-3.8947028897e-10
1.46123037985e-06
-1.09933334442e-08
1.46565497011e-06
-1.68309947789e-08
1.46684254546e-06
-2.37864806073e-08
1.4671256609e-06
-2.98528970616e-08
1.46334308386e-06
-3.66982574654e-08
1.45913181937e-06
-4.26391420192e-08
1.45109135318e-06
-4.89835894991e-08
1.44280497323e-06
-5.43535769274e-08
1.43091658664e-06
-5.95813643085e-08
1.4192224637e-06
-6.37651462032e-08
1.40426113298e-06
-6.74728784368e-08
1.38986591232e-06
-7.00522283175e-08
1.37252130465e-06
-7.21165825271e-08
1.35637298946e-06
-7.30246918659e-08
-7.36391912992e-08
1.33744155685e-06
1.26117210989e-06
2.75563135613e-07
1.2722842463e-06
-1.39499888646e-08
1.27825445574e-06
-6.2408278721e-09
1.28253140343e-06
-1.42686334213e-08
1.28443503126e-06
-1.79621672437e-08
1.2846665394e-06
-2.25077054118e-08
1.28249558665e-06
-2.71856709045e-08
1.27886948319e-06
-3.18104316708e-08
1.27321627851e-06
-3.64607268565e-08
1.26605187836e-06
-4.10674141852e-08
1.25754078998e-06
-4.51674113615e-08
1.24741413042e-06
-4.93008974e-08
1.23669977307e-06
-5.22386462007e-08
1.22429699661e-06
-5.52681816389e-08
1.21161105876e-06
-5.68120291645e-08
1.19762411188e-06
-5.84373386689e-08
1.18335820931e-06
-5.87839918659e-08
-5.90404390554e-08
1.16892628714e-06
1.11056921463e-06
2.75110542623e-07
1.11990758821e-06
-2.29364703091e-08
1.12403902583e-06
-9.2184235673e-09
1.12678966827e-06
-1.71407730513e-08
1.12727307079e-06
-1.78828490981e-08
1.12611916401e-06
-2.06676970772e-08
1.12331680202e-06
-2.36050382078e-08
1.1190280693e-06
-2.68080261621e-08
1.11328478379e-06
-3.01798084748e-08
1.10658898466e-06
-3.34848545861e-08
1.09830710179e-06
-3.68612548297e-08
1.08994161289e-06
-3.9502661049e-08
1.07972636922e-06
-4.23611460864e-08
1.07017825657e-06
-4.40078270811e-08
1.05838689926e-06
-4.58984755996e-08
1.04759909297e-06
-4.64776492721e-08
1.03494005672e-06
-4.7171291705e-08
-4.66886820818e-08
1.02354593615e-06
9.76525758362e-07
2.62550223962e-07
9.86658577413e-07
-3.31860373482e-08
9.87951460192e-07
-1.17549985965e-08
9.90394717217e-07
-1.90539820866e-08
9.89668253392e-07
-1.67179673127e-08
9.87775570739e-07
-1.82630145925e-08
9.84480869472e-07
-1.98635023696e-08
9.80104375579e-07
-2.19856299073e-08
9.74628398361e-07
-2.43131448846e-08
9.68200460093e-07
-2.66627633799e-08
9.60963450242e-07
-2.91621221985e-08
9.53044101288e-07
-3.12305729464e-08
9.44819011986e-07
-3.30831360978e-08
9.35776314372e-07
-3.47520053906e-08
9.26536018806e-07
-3.59431116195e-08
9.16787584363e-07
-3.66253730897e-08
9.06827688595e-07
-3.70322727257e-08
-3.64380066862e-08
8.96889708749e-07
8.58365139999e-07
2.45039561973e-07
8.69340046994e-07
-4.3992536828e-08
8.68874295859e-07
-1.0438720242e-08
8.70964507528e-07
-2.09864821975e-08
8.69003264184e-07
-1.44838539839e-08
8.66542463126e-07
-1.5360720665e-08
8.63025632174e-07
-1.59957857006e-08
8.58704722956e-07
-1.7398152283e-08
8.5352586824e-07
-1.8923562421e-08
8.47579060867e-07
-2.07382905239e-08
8.41176132996e-07
-2.24399995964e-08
8.34140158291e-07
-2.38184441219e-08
8.26791667598e-07
-2.51449583915e-08
8.19094050242e-07
-2.65782092132e-08
8.11127718692e-07
-2.76237232239e-08
8.02881533956e-07
-2.82612308135e-08
7.94950129905e-07
-2.82935440531e-08
-2.67854333625e-08
7.85196282141e-07
7.23420465488e-07
2.52415355757e-07
7.66596460921e-07
-8.71637611184e-08
7.63005000328e-07
-6.99921241985e-09
7.65585364333e-07
-2.35853436257e-08
7.62969532149e-07
-1.08155683296e-08
7.60602780352e-07
-1.26644081506e-08
7.57347783505e-07
-1.24655483761e-08
7.53509894237e-07
-1.338038954e-08
7.48917449766e-07
-1.42872021171e-08
7.43843067633e-07
-1.5351691386e-08
7.38190071862e-07
-1.68023836714e-08
7.31948976443e-07
-1.71970924449e-08
7.25438597765e-07
-1.83580081828e-08
7.18760897241e-07
-1.96101764229e-08
7.12033903229e-07
-2.07033065971e-08
7.0533256755e-07
-2.15741765378e-08
6.99418348432e-07
-2.17480098367e-08
-2.55695815055e-08
6.98918447732e-07
7.50345456038e-07
1.38538605445e-07
6.73028299772e-07
-9.19390355831e-09
6.77683650663e-07
-1.14625617098e-08
6.78058502924e-07
-2.05376325919e-08
6.72460565104e-07
-6.8930959799e-09
6.68595337147e-07
-8.4311134554e-09
6.64015274863e-07
-7.69361932203e-09
6.59232470136e-07
-8.48311089944e-09
6.54010470341e-07
-8.92978360797e-09
6.48343226625e-07
-9.86212063871e-09
6.42767264448e-07
-1.01989971408e-08
6.36410622043e-07
-1.12433691751e-08
6.30144689578e-07
-1.18943052525e-08
6.23690034761e-07
-1.29918410148e-08
6.17241986377e-07
-1.42676991044e-08
6.11384660627e-07
-1.56186854609e-08
6.06648200962e-07
-1.70793361671e-08
1.19814823815e-09
5.81512269761e-07
1.20852939158e-07
5.71573106106e-07
6.10203866376e-07
-4.98133813051e-07
5.93858506677e-07
6.48494210842e-09
5.90428807658e-07
-1.51638443288e-08
5.88027917263e-07
-4.89427850975e-09
5.86492563398e-07
-7.09719478149e-09
5.85028235366e-07
-6.06106960775e-09
5.83324269184e-07
-6.64821810759e-09
5.81371108747e-07
-7.02499131493e-09
5.80001714676e-07
-7.76220328063e-09
5.78322857199e-07
-8.22874806932e-09
5.75792168554e-07
-8.82486393727e-09
5.73227910563e-07
-9.52863419748e-09
5.71037638035e-07
-1.07465013343e-08
5.69151749888e-07
-1.24335696547e-08
5.67282754526e-07
-1.41251841922e-08
5.631370613e-07
-1.179436912e-08
-4.65348897563e-08
6.11150103546e-07
1.3537595715e-06
-3.00190207223e-07
5.50115499213e-07
3.06061721811e-07
5.55984705639e-07
2.2035344046e-09
5.64622418897e-07
-2.14954356598e-08
5.53419406352e-07
5.93134953742e-09
5.47154615818e-07
-1.03910753987e-09
5.39271366878e-07
1.98349883592e-09
5.31486111737e-07
1.25828245048e-09
5.22829269331e-07
1.82700629471e-09
5.13181536601e-07
2.47185068569e-09
5.02954016674e-07
2.41941080687e-09
4.92698712233e-07
1.177895684e-09
4.82116437636e-07
8.44009041846e-10
4.70295984405e-07
1.07346924085e-09
4.57453856311e-07
2.26454956139e-10
4.4788174837e-07
-4.4438209487e-09
4.55693244234e-07
-1.93031918698e-08
3.69106321573e-10
4.09834544354e-07
1.20112802943e-07
4.26291562822e-07
4.28728289791e-07
4.07196057012e-07
4.13100338125e-07
4.1207925346e-07
4.1407993671e-07
4.15353673871e-07
4.17261576708e-07
4.19816199271e-07
4.2219839454e-07
4.23328347076e-07
4.24173553146e-07
4.25224550106e-07
4.25426687846e-07
4.21063146884e-07
4.01995808229e-07
4.02245439916e-07
6.43879463291e-08
-1.34167996593e-07
1.7402642985e-08
-2.21785951067e-08
-2.44925630412e-08
1.3115498221e-08
-5.83024376643e-08
6.87848681998e-09
-6.62761422558e-08
-3.6566834279e-09
-6.93128232203e-08
-1.29216717737e-08
-5.5921387559e-08
-1.94826019922e-08
-4.31748433057e-08
-2.39030698313e-08
-2.13045884252e-08
-2.62326055144e-08
-2.27282222063e-09
-2.73389864699e-08
2.21458738925e-08
-2.73992669614e-08
4.28785207712e-08
-2.70314629491e-08
6.70707928033e-08
-2.61714076541e-08
8.76140930075e-08
-2.52470705895e-08
1.10488085952e-07
-2.40975349842e-08
1.30009204245e-07
-2.30318886339e-08
1.5114889185e-07
-2.18604919082e-08
1.69275591887e-07
-2.08207885551e-08
1.88484368361e-07
-1.9730631837e-08
2.04941920756e-07
-1.8781185257e-08
2.22136534066e-07
-1.77762263583e-08
2.36885663006e-07
-1.69103598684e-08
2.51961944063e-07
-1.60089638927e-08
2.64951866349e-07
-1.51981776529e-08
2.78119512525e-07
-1.43598373005e-08
2.89501110206e-07
-1.36206771251e-08
3.01013897097e-07
-1.28459214439e-08
3.11034811771e-07
-1.21613037092e-08
3.2115684025e-07
-1.14640717011e-08
3.30035519519e-07
-1.08471101936e-08
3.39071347011e-07
-1.02149179339e-08
3.47030389791e-07
-9.66799359999e-09
3.55131949481e-07
-9.12208377912e-09
3.62303630525e-07
-8.64430243501e-09
3.69698460932e-07
-8.15219061885e-09
3.76224429041e-07
-7.7484598727e-09
3.8292489563e-07
-7.32918292148e-09
3.88895288884e-07
-6.97181093368e-09
3.95026486201e-07
-6.60318208954e-09
4.0051704717e-07
-6.29557133212e-09
4.06155795982e-07
-5.97031505803e-09
4.11237825612e-07
-5.70037061867e-09
4.16443302623e-07
-5.41380831303e-09
4.21156886513e-07
-5.1794877676e-09
4.25972344894e-07
-4.93086902298e-09
4.30351129711e-07
-4.73373350557e-09
4.34808388679e-07
-4.52522216234e-09
4.38881661026e-07
-4.36631507476e-09
4.43025067998e-07
-4.19868641143e-09
4.46858545113e-07
-4.09737833996e-09
4.50808716853e-07
-4.04468708616e-09
4.54612392797e-07
-4.08253308623e-09
4.58614471976e-07
-4.13216196635e-09
4.62511795023e-07
-4.19589761181e-09
4.66559897767e-07
-4.18732496691e-09
4.70381059762e-07
-4.13042980652e-09
4.74186851648e-07
-3.96011115127e-09
4.77598796939e-07
-3.72737211943e-09
4.80744369199e-07
-3.27249273022e-09
4.8358311891e-07
-3.14830696762e-09
4.86733183293e-07
-3.28028898658e-09
4.89673056364e-07
-3.23029957378e-09
4.92666180681e-07
-3.07580532776e-09
4.95348744261e-07
-2.93820350275e-09
4.98043437996e-07
-2.76692537432e-09
5.00451179824e-07
-2.64213696872e-09
5.02895784868e-07
-2.50745980771e-09
5.05109142031e-07
-2.43374204294e-09
5.07419189177e-07
-2.35224314007e-09
5.09549777005e-07
-2.33080488492e-09
5.1182851194e-07
-2.29280099681e-09
5.13954038113e-07
-2.3085748271e-09
5.16249836538e-07
-2.29383074959e-09
5.18375778128e-07
-2.31747033929e-09
5.20656611383e-07
-2.29014023641e-09
5.22707379335e-07
-2.29304408534e-09
5.24855675771e-07
-2.22346108349e-09
5.26741782345e-07
-2.15711319586e-09
5.28688590196e-07
-1.99824239377e-09
5.30266019873e-07
-1.85182514282e-09
5.31807996215e-07
-1.62000667644e-09
5.32930414921e-07
-1.38119040155e-09
5.33880993211e-07
-1.02773381339e-09
5.34391329338e-07
-7.01627975851e-10
5.34648215655e-07
-4.2624651853e-10
5.34664202075e-07
-1.73835593161e-10
5.34457116187e-07
-2.02291646156e-11
5.34381609083e-07
-4.64660560398e-10
5.35363138112e-07
-1.42441688267e-09
5.36154386934e-07
-2.92450805529e-09
5.37479131196e-07
-3.80454932845e-09
5.40211425286e-07
-6.41977080255e-09
5.46323210994e-07
-9.99909245719e-09
5.54125277414e-07
-1.29204290682e-08
5.66872050618e-07
-1.78688686997e-08
5.95270743107e-07
-3.51189155639e-08
6.46443241651e-07
-5.72910649554e-08
7.07815627699e-07
-6.96130678698e-08
7.74368078977e-07
-7.41307705223e-08
8.05119923007e-07
-4.16465567423e-08
7.00229941433e-07
9.34188778571e-08
6.56767378155e-07
2.91645524922e-08
8.58452493558e-07
-2.13594395783e-07
1.19395656372e-06
-3.45862457014e-07
1.54071462213e-06
-3.56239457318e-07
1.44823526614e-06
8.43971234056e-08
1.13138775497e-06
3.10150075899e-07
1.00621613344e-06
1.21371159074e-07
9.23070497876e-07
8.05520003252e-08
8.50128914216e-07
7.10406702338e-08
7.8964143966e-07
5.91600709261e-08
7.40920503101e-07
4.75112544233e-08
7.02026701709e-07
3.82217408093e-08
6.70497757617e-07
3.08238054195e-08
6.4501763294e-07
2.53195398726e-08
6.23888864523e-07
2.08756092873e-08
6.06567369716e-07
1.757622354e-08
5.91776485764e-07
1.47558479845e-08
5.79371205677e-07
1.26490308106e-08
5.68321836834e-07
1.074957028e-08
5.58723066856e-07
9.37015009492e-09
5.4989589427e-07
8.15619284955e-09
5.42115936398e-07
7.30505209377e-09
5.35126560411e-07
6.58767822835e-09
5.29038639772e-07
6.09302694079e-09
5.23527137241e-07
5.63675066179e-09
5.18597262224e-07
5.30956635797e-09
5.1399069059e-07
4.98925654957e-09
5.09725883409e-07
4.75852827548e-09
5.05631614535e-07
4.53074109751e-09
5.0174064207e-07
4.3689964102e-09
4.9794036808e-07
4.20744559764e-09
4.94275128315e-07
4.09320259821e-09
4.90665361162e-07
3.97347350056e-09
4.87167612876e-07
3.88631771887e-09
4.83714491776e-07
3.78542752758e-09
4.80356212453e-07
3.71633051283e-09
4.76978795941e-07
3.61748699366e-09
4.73608155414e-07
3.54936361964e-09
4.70143787122e-07
3.41057487907e-09
4.66691581626e-07
3.3274466175e-09
4.6314001627e-07
3.18233359538e-09
4.59607399424e-07
3.12349151329e-09
4.56007741951e-07
3.03829046866e-09
4.52435825953e-07
3.03249539699e-09
4.48811862659e-07
3.01751088471e-09
4.45175602151e-07
3.08543129145e-09
4.41432663351e-07
3.17211681057e-09
4.37552454216e-07
3.36201794909e-09
4.33410276913e-07
3.62375264627e-09
4.28887100907e-07
4.03662610808e-09
4.23810071177e-07
4.59897347009e-09
4.17963468117e-07
5.37791424803e-09
4.11133605795e-07
6.37598144479e-09
4.03020850327e-07
7.65153210236e-09
3.93374513244e-07
9.20340614261e-09
3.81861962251e-07
1.10516476276e-08
3.68261921714e-07
1.31523542622e-08
3.5232330935e-07
1.54663072278e-08
3.3396525926e-07
1.78807785713e-08
3.13093820336e-07
2.0367545485e-08
2.89790340314e-07
2.27645419383e-08
2.64249860802e-07
2.49823708029e-08
2.36828165536e-07
2.67934127537e-08
2.08077837691e-07
2.8125880327e-08
1.78585663916e-07
2.87661172962e-08
1.49127361561e-07
2.87769851572e-08
1.20190646058e-07
2.81321012906e-08
9.28689807213e-08
2.66146072392e-08
6.80617849595e-08
2.39663897223e-08
4.681834879e-08
2.05494639276e-08
2.94519183303e-08
1.6538692661e-08
1.58835799595e-08
1.29218678349e-08
5.58112111203e-09
9.54835566405e-09
-5.32113875168e-10
5.56130808368e-09
-3.14529195726e-09
1.99062193237e-09
-4.07211022252e-09
4.95660596755e-10
-8.72664674334e-09
4.21531548101e-09
-2.84335520729e-08
1.94463300983e-08
3.04958875548e-08
-5.90851604258e-08
-5.08425537706e-08
-1.09255104776e-07
-8.13736317816e-08
-1.05958514892e-08
-8.5949010731e-08
7.41210603043e-09
-8.90093847578e-08
-2.08526643279e-09
-8.1535492946e-08
-1.7919816795e-08
-7.14138474819e-08
-3.19911806388e-08
-5.41341678784e-08
-4.20427317099e-08
-3.69651689074e-08
-4.82533861314e-08
-1.56322123091e-08
-5.15405728283e-08
3.94249040109e-09
-5.28175278647e-08
2.60259347298e-08
-5.2656288254e-08
4.59966319761e-08
-5.16223234302e-08
6.75071588794e-08
-5.00084684217e-08
8.68618663758e-08
-4.80978297623e-08
1.07161743753e-07
-4.60082454711e-08
1.25399054057e-07
-4.38853018966e-08
1.44209938651e-07
-4.17609806564e-08
1.61084599925e-07
-3.97217514688e-08
1.78242202418e-07
-3.77432996966e-08
1.9367610444e-07
-3.58781486221e-08
2.09148156482e-07
-3.41198206212e-08
2.23063570165e-07
-3.24648842189e-08
2.36921098894e-07
-3.08876449725e-08
2.49394846711e-07
-2.94246269934e-08
2.61747838059e-07
-2.80198445936e-08
2.73038483955e-07
-2.66857190242e-08
2.8420804907e-07
-2.54199723481e-08
2.94474328009e-07
-2.42257816536e-08
3.04686892784e-07
-2.30803508689e-08
3.14182701896e-07
-2.20004833144e-08
3.23655344714e-07
-2.09729071764e-08
3.32481482852e-07
-2.00078305019e-08
3.41329523385e-07
-1.90762261129e-08
3.49634814751e-07
-1.82072126781e-08
3.57928813344e-07
-1.73816250269e-08
3.65730220026e-07
-1.65986111226e-08
3.73513535975e-07
-1.5854710708e-08
3.80832454595e-07
-1.51603996951e-08
3.88121084625e-07
-1.44882483582e-08
3.95004294146e-07
-1.3853221088e-08
4.01833095285e-07
-1.32405387334e-08
4.08291767991e-07
-1.26595391408e-08
4.14669539423e-07
-1.20971632595e-08
4.2069340667e-07
-1.1564019405e-08
4.26606055535e-07
-1.10473818435e-08
4.32171884532e-07
-1.05596985566e-08
4.37588569182e-07
-1.00866133832e-08
4.42663598717e-07
-9.64251632986e-09
4.47554107657e-07
-9.21653883584e-09
4.52086274697e-07
-8.81549638248e-09
4.56336251054e-07
-8.43121553052e-09
4.60142002822e-07
-8.09942997968e-09
4.63626654207e-07
-7.79041457449e-09
4.66717147317e-07
-7.50321861027e-09
4.6954446447e-07
-7.20249252616e-09
4.72020909417e-07
-6.85325644904e-09
4.74222872786e-07
-6.3608689495e-09
4.75839509455e-07
-5.58683238046e-09
4.76964307824e-07
-4.59582903794e-09
4.77446086288e-07
-3.87886989986e-09
4.77650868566e-07
-3.67707151487e-09
4.77881612054e-07
-3.68414366002e-09
4.78372612052e-07
-3.73806647961e-09
4.79043946157e-07
-3.80748937933e-09
4.79993129065e-07
-3.86729056805e-09
4.81103882361e-07
-3.93677289242e-09
4.82454849477e-07
-3.99827163315e-09
4.83938145059e-07
-4.08033572053e-09
4.85635287864e-07
-4.16380208631e-09
4.87445874177e-07
-4.27224782454e-09
4.89445920286e-07
-4.37752323493e-09
4.91520853266e-07
-4.49392924475e-09
4.93754390205e-07
-4.58834241526e-09
4.9601575639e-07
-4.68058691991e-09
4.98364617349e-07
-4.7231029511e-09
5.00654360129e-07
-4.72721339851e-09
5.0296225258e-07
-4.6518773007e-09
5.05157726697e-07
-4.51157269648e-09
5.07295300466e-07
-4.26253783032e-09
5.09188745417e-07
-3.91977100221e-09
5.10873688572e-07
-3.44186366226e-09
5.12192150928e-07
-2.86601566064e-09
5.13165202186e-07
-2.14248664626e-09
5.13546104558e-07
-1.26061654959e-09
5.13249115572e-07
-2.92160848102e-10
5.12326933601e-07
5.18158020542e-10