/*--------------------------------*- C++ -*----------------------------------*\
| =========                 |                                                 |
| \\      /  F ield         | OpenFOAM: The Open Source CFD Toolbox           |
|  \\    /   O peration     | Version:  v1806                                 |
|   \\  /    A nd           | Web:      www.OpenFOAM.com                      |
|    \\/     M anipulation  |                                                 |
\*---------------------------------------------------------------------------*/
FoamFile
{
    version     2.0;
    format      ascii;
    class       volScalarField;
    location    "4";
    object      sensitivity;
}
// * * * * * * * * * * * * * * * * * * * * * * * * * * * * * * * * * * * * * //

dimensions      [0 2 -3 0 0 0 0];


internalField   nonuniform List<scalar> 
12225
(
0.72078936645
-4.8723391895
-5.32777188995
-4.37710571156
-3.92238278436
-3.51380500179
-3.16344026943
-2.91555278508
-2.83745942023
-3.11928954931
-3.76512979901
-4.69936783665
-5.89709859062
-7.21373960426
-9.0013711569
-11.4710572297
-13.9651118186
-14.8471513807
-16.2959748957
-10.8959000681
-7.89940418393
-8.04609436541
-7.41821308797
-7.15146290816
-6.9704204727
-6.97840539395
-7.21225570062
-7.73421755596
-8.51592334816
-9.48162113199
-10.5869750328
-11.773666539
-13.2808382789
-15.0666502442
-16.5210868103
-15.9103883927
-8.0534950784
-7.73276539529
-8.07587559042
-7.53754409065
-7.13132398044
-6.91188218676
-6.73622671636
-6.71025599511
-6.81602583795
-7.12302375201
-7.63247167571
-8.33928059775
-9.26400316079
-10.3690380562
-11.7417766358
-13.2584572289
-14.3107093862
-13.5307982077
-9.39414930793
-9.45200728481
-8.58995718352
-8.47265795476
-8.08235651434
-7.92123459689
-7.76429148716
-7.74600647967
-7.82690263686
-8.07054714217
-8.47762406035
-9.05150768823
-9.81504093022
-10.7245087628
-11.7712534541
-12.7948445234
-13.2717826304
-12.3414250428
-9.20136403114
-9.62190189811
-8.87189095611
-8.85859057196
-8.54429449187
-8.47377834427
-8.3915921358
-8.43967925551
-8.56194716468
-8.81621474217
-9.1974493063
-9.70391458403
-10.3459622792
-11.078036077
-11.8476480824
-12.4805752655
-12.5691691321
-11.6541139412
-9.29886326596
-9.96162527193
-9.18665720229
-9.28566169794
-9.02107992065
-9.01300143414
-8.97769861176
-9.06399695545
-9.20522635623
-9.45358131722
-9.79733515807
-10.2298735303
-10.7514820854
-11.3139787783
-11.843767081
-12.1777210485
-12.0345329244
-11.2049759179
-9.40432182792
-10.1888839203
-9.44490244465
-9.63354112062
-9.41373822716
-9.45836158588
-9.46218037188
-9.57750523076
-9.7297443461
-9.96569298163
-10.268264504
-10.6279762753
-11.037009479
-11.4457953717
-11.7768897037
-11.8954865139
-11.6264614315
-10.896023828
-9.50000367757
-10.3513456511
-9.65462522217
-9.91478523389
-9.73236342102
-9.81731770961
-9.84992284504
-9.98387562804
-10.1385913002
-10.3564425087
-10.616849478
-10.9083303767
-11.2172623962
-11.494871574
-11.6703115324
-11.6425289271
-11.315948184
-10.6795897444
-9.57261043239
-10.4629823605
-9.81865642656
-10.1356165689
-9.98399364543
-10.0995121468
-10.1527176673
-10.2967581606
-10.4470128229
-10.642736201
-10.8614107629
-11.0904971838
-11.3123282773
-11.4816169873
-11.5400408211
-11.4189826192
-11.0737179808
-10.5195457508
-9.60710944743
-10.5338342594
-9.93429354363
-10.2977332175
-10.1722047014
-10.3121169846
-10.3806803443
-10.5291652152
-10.6707444406
-10.8430914793
-11.0226539137
-11.1960134538
-11.3435741671
-11.4260460917
-11.4001285998
-11.2232224758
-10.8818166128
-10.4008817225
-9.59075651231
-10.5812882621
-9.99216968917
-10.398150492
-10.2919003049
-10.4502079266
-10.5292416858
-10.6796406491
-10.8131874817
-10.965384095
-11.1104788398
-11.2353057699
-11.3217118872
-11.338260866
-11.2553089642
-11.0494995793
-10.7232369238
-10.3017628436
-9.364033209
-10.6234472999
-9.95829678309
-10.418469481
-10.3151640955
-10.4834840167
-10.5644920462
-10.7133577569
-10.8369120407
-10.9688950807
-11.0839266493
-11.1714182341
-11.2149940631
-11.1887208792
-11.0738568344
-10.8579884072
-10.5519428123
-10.1801223369
-9.12755334537
-10.596178765
-9.87326825981
-10.3699768991
-10.2718296129
-10.4484108528
-10.5273446771
-10.6679509099
-10.7779533919
-10.8908398553
-10.9808389145
-11.0379800294
-11.0483591916
-10.9941918795
-10.8631993845
-10.652085023
-10.374782891
-10.0486609242
-8.85990678216
-10.5784130916
-9.7783216762
-10.3129356765
-10.208682737
-10.3864227133
-10.4574277987
-10.5848593464
-10.6738031882
-10.7587183909
-10.8174113386
-10.8422765045
-10.8223893336
-10.7453769574
-10.6068520212
-10.4082854495
-10.1642322045
-9.88667442093
-8.53362260442
-10.5603408356
-9.654042379
-10.2364801798
-10.1237038304
-10.3035573223
-10.3658297602
-10.4789052757
-10.5463323639
-10.6050231519
-10.6352062292
-10.6313354703
-10.5869506707
-10.4941623593
-10.3545837203
-10.1728148405
-9.96287286898
-9.73029828573
-8.21135636249
-10.5396182117
-9.51319973489
-10.1415327849
-10.0146680828
-10.1934521619
-10.2438298406
-10.3414395824
-10.3892610781
-10.4257570482
-10.4326739108
-10.408665717
-10.3478598075
-10.2488426049
-10.1154437492
-9.95433620244
-9.77582060252
-9.58325931184
-7.94871784714
-10.5226806019
-9.37195797949
-10.0372916362
-9.89063666703
-10.063960865
-10.0990912094
-10.1799045805
-10.2088388413
-10.2263064146
-10.2161237963
-10.1778121988
-10.1092633008
-10.0106969335
-9.88878034504
-9.74911860076
-9.59955477763
-9.4413312811
-7.70923123672
-10.5031357526
-9.24148649941
-9.93306720259
-9.76339133737
-9.92805694713
-9.94597647501
-10.0100344861
-10.022612492
-10.0254614666
-10.0034126358
-9.9577134399
-9.88778431184
-9.79510180143
-9.68675952145
-9.56726017664
-9.44228806253
-9.31088454949
-7.62887924228
-10.5044158059
-9.18533617498
-9.88100897283
-9.68695021782
-9.83658895035
-9.83369311029
-9.87831513988
-9.87293174921
-9.86085713988
-9.8275889905
-9.77581055355
-9.7054767783
-9.61854012251
-9.52174422353
-9.4185521155
-9.31306192836
-9.20382353817
-8.01553260343
-10.528246271
-9.30430392283
-9.93555879185
-9.73262351524
-9.85799207711
-9.83624691133
-9.86297403523
-9.84184289788
-9.81612072175
-9.77289397671
-9.71492298671
-9.64211818166
-9.55594866044
-9.4631817418
-9.36644109421
-9.26935262179
-9.16943665998
-8.31595932324
-10.5662689255
-9.43408844179
-10.0214386185
-9.81315707697
-9.92159938661
-9.88653502708
-9.90115973292
-9.86762317444
-9.8318613889
-9.78012389847
-9.7162864083
-9.63976794915
-9.55270964302
-9.46062863013
-9.36695670552
-9.27396675735
-9.17915761749
-8.55182669773
-10.6057923365
-9.55758388072
-10.1087488099
-9.89810074175
-9.99443967675
-9.94974874484
-9.95498481687
-9.91300467236
-9.86930159772
-9.81071731527
-9.74258207486
-9.66378829224
-9.57566986292
-9.48436542055
-9.39268646483
-9.3019512628
-9.21098755544
-8.82153063443
-10.6585181652
-9.68700600745
-10.2045891231
-9.99271562238
-10.0785988699
-10.0257259067
-10.0231471787
-9.97381576379
-9.92367982068
-9.86127573364
-9.79038449792
-9.7099514309
-9.62192315009
-9.53223057455
-9.4414631041
-9.3532404416
-9.26434271551
-9.1076982187
-10.7159047989
-9.82190437581
-10.3024760594
-10.0912234001
-10.1672230943
-10.1070803881
-10.0976275224
-10.0428558007
-9.98919470753
-9.9237103706
-9.85094065766
-9.77064068607
-9.68372833322
-9.59472325544
-9.50552859425
-9.41756075886
-9.3297862913
-9.39868170551
-10.7787669471
-9.96176222073
-10.4012994201
-10.1939013587
-10.2577087249
-10.1904061523
-10.1750877172
-10.1153970878
-10.057362866
-9.99005285408
-9.9175704508
-9.83721074866
-9.75102300598
-9.66371796322
-9.57496092845
-9.48711692744
-9.39703291893
-9.65134529054
-10.7682366436
-10.1218566977
-10.4995643043
-10.3027494331
-10.3569924462
-10.2879756211
-10.2689634517
-10.2066666188
-10.1471673762
-10.0793659628
-10.0072623055
-9.92890799937
-9.84461694544
-9.75971319979
-9.67414779022
-9.59046585026
-9.52121513002
-10.6064227943
-11.1010435925
-10.2912202878
-10.6357591343
-10.4260669479
-10.4452465022
-10.3551788271
-10.3145262557
-10.2341149335
-10.1571652769
-10.072926131
-9.99215893268
-9.90779791967
-9.81672644757
-9.72454149533
-9.62949143112
-9.53023526049
-9.39306073604
-8.25318069255
-9.6286296488
-10.9044228891
-10.7896582788
-10.6898111259
-10.7110905235
-10.6534871745
-10.6447825579
-10.5985535659
-10.5588219642
-10.5274837743
-10.4941850222
-10.4494313143
-10.4018420128
-10.3602817526
-10.3187738537
-10.2828973216
-10.3333139628
-21.9663574193
-13.4105195376
-10.5949338517
-11.2420182113
-10.9077849353
-10.8594497651
-10.7098376812
-10.5869472746
-10.4213721762
-10.2354992267
-10.0173311515
-9.81473285938
-9.61375455235
-9.38626394369
-9.13632883904
-8.88465045696
-8.65679893866
-8.53923969919
-4.87693776885
-8.18111252688
-10.1103895162
-9.39376548412
-9.37683247702
-9.27359452201
-9.12438223959
-9.03397790292
-8.90430786449
-8.80147627563
-8.71317082005
-8.61333245514
-8.50626208863
-8.41531544101
-8.34920646204
-8.29467297937
-8.23241872357
-8.0276170851
-0.0101427503154
-0.00470435246661
0.00985406027876
0.0145565988574
0.0131959241193
0.0102806911478
0.00882064372317
0.0105191692679
0.0164555618024
0.0272779264286
0.0433981896707
0.0649721300133
0.0920128424342
0.124446811556
0.162065521522
0.204645892283
0.251831369236
0.303310896205
0.358575317141
0.41716360543
0.478448522481
0.542021216253
0.607113188059
0.673267646348
0.739899969045
0.806696053095
0.873301851588
0.93959919082
1.0053915051
1.07063836863
1.13533891571
1.19961338169
1.26343486319
1.32688422704
1.39010758508
1.45330470936
1.51637929628
1.57948044061
1.6425830353
1.70579564612
1.76905775795
1.83243177156
1.8958112777
1.95917973375
2.02235517777
2.0852179188
2.14752203765
2.20902148962
2.26934088757
2.32817983719
2.38516089103
2.44015592209
2.49299089255
2.54312525671
2.58972644239
2.63173745316
2.66801087322
2.69728577298
2.71838343791
2.73091083653
2.73509791564
2.73059626521
2.71676618337
2.69334157755
2.66012057276
2.61729397841
2.56533245209
2.50484847066
2.43670339492
2.36177409874
2.28109164869
2.19571643168
2.10670007234
2.01500051621
1.92166967069
1.82759421063
1.73345990918
1.63997881245
1.54780735669
1.45744168031
1.36919473322
1.28344546068
1.20027591189
1.1199755243
1.04264726988
0.968565008024
0.897964092788
0.830138701322
0.766399103967
0.706538962868
0.648529553467
0.592223214702
0.538399176728
0.487843525688
0.442256087369
0.405416095808
0.377738204713
0.349318790375
0.312756149169
0.275180907327
0.228026572117
0.161204819853
0.108645191848
0.0854012519419
0.0631189568761
0.00820881373054
-0.0783302255136
-0.0854419586822
-0.111913892148
-0.144885291837
-0.174228525203
-0.19986679956
-0.222625466112
-0.243255183917
-0.262364035105
-0.280355294064
-0.297552520174
-0.314178932208
-0.330401978989
-0.346311383959
-0.361951784972
-0.377392938376
-0.392742637334
-0.408119326291
-0.423577807848
-0.439104210638
-0.454656520145
-0.470198821648
-0.485700770767
-0.501150517988
-0.516537384226
-0.531865924591
-0.547140949426
-0.562381932858
-0.577608987154
-0.592834921882
-0.608067774804
-0.623287581242
-0.638407320684
-0.653299298697
-0.667821221768
-0.681983949429
-0.695752636192
-0.709117551107
-0.722014668362
-0.734357703321
-0.746043323257
-0.756952969073
-0.766941328071
-0.775832014407
-0.783364022457
-0.789200517667
-0.79292298805
-0.794041783516
-0.791953165328
-0.786006299353
-0.775517033768
-0.759838274427
-0.738392373138
-0.710776727596
-0.676800226179
-0.636449226417
-0.590084950401
-0.538406182929
-0.482355582479
-0.423256379081
-0.362772198821
-0.302376717499
-0.243809426076
-0.189582232109
-0.141263842481
-0.100468244092
-0.0679618930018
-0.0406286619684
-0.0163458588715
0.00269448818782
0.0154135842768
0.0273076193461
0.0399416473699
0.0559535498004
-0.00350558400586
-0.0121388806923
-0.0160335542254
-0.0144827275784
-0.0115330636666
-0.00891685069924
-0.00623202296972
-0.00242243302719
0.00356454696938
0.0126046275787
0.0252616832979
0.0420529365887
0.0631869573401
0.0888657935061
0.119039774109
0.153698270112
0.192624113217
0.235675213273
0.282454841983
0.332730773334
0.385987853197
0.441877813892
0.499867354576
0.559584641259
0.620470306744
0.682321764824
0.744838795694
0.807830541426
0.87109271927
0.934617471769
0.9983510443
1.06227036738
1.12633062241
1.19067109635
1.25527130458
1.3202202396
1.38551016066
1.45120585933
1.51724219318
1.58369151995
1.65049670669
1.71767175468
1.78511245516
1.8527473631
1.92039051793
1.98786293347
2.05485201885
2.1210669931
2.1860381844
2.24925962985
2.30991004361
2.36692496405
2.41947943144
2.46701036406
2.50907699455
2.54511507402
2.57457537496
2.59627983466
2.6089792923
2.61280133236
2.60842631242
2.59651482899
2.57756414738
2.5516676089
2.51879620814
2.47889703882
2.43198270774
2.37819867311
2.31783767363
2.25130339603
2.17914040101
2.10191097271
2.0203690642
1.9352975884
1.84746094794
1.75762365366
1.66653378589
1.57487666174
1.4833396769
1.3924775035
1.30264632834
1.21421729356
1.12755628172
1.04288481543
0.959915499243
0.878809427799
0.800298748099
0.724804633953
0.650238932319
0.575248531261
0.503420129899
0.43602145026
0.367833426895
0.294865734176
0.224210007776
0.171656113528
0.122752690152
0.0591447077678
-0.000588244463106
-0.0510289380404
-0.111398696185
-0.272206950861
-0.357017491037
-0.419181149605
-0.457904155941
-0.486328160246
-0.488958930634
-0.468524527087
-0.460140014414
-0.461752607959
-0.472643851143
-0.488221691918
-0.506641939485
-0.526939735481
-0.548602073008
-0.571311395212
-0.594896012797
-0.619239393295
-0.644260820079
-0.669812996042
-0.695754123024
-0.721977395679
-0.748481350584
-0.775312160013
-0.802475984012
-0.829909286502
-0.857532191151
-0.885258176119
-0.913031411595
-0.940805625764
-0.968563628449
-0.996294224745
-1.02401157619
-1.051738917
-1.07951989037
-1.10738825774
-1.13538204015
-1.16349252893
-1.19165344784
-1.21971630911
-1.24758317393
-1.27525848137
-1.30276982623
-1.33013549765
-1.35733885154
-1.38437044393
-1.41126007904
-1.43806836167
-1.46489336785
-1.49188901079
-1.51929833515
-1.54748877047
-1.57693414289
-1.60816110182
-1.64174554245
-1.67830563296
-1.71841525266
-1.76252090485
-1.81082389018
-1.86317149237
-1.91890482028
-1.97697719323
-2.03569464149
-2.092746915
-2.14537830724
-2.19028809102
-2.22487364779
-2.24701124969
-2.25414195033
-2.24398866546
-2.21610999738
-2.17108875712
-2.11237806492
-2.04768404609
-1.97955650369
-1.90732885912
-1.83809337547
-1.78086188777
-1.74644255211
-1.74280600572
-0.000585261829585
-0.00458180078742
0.0148032548169
0.0434647280403
0.0709939030185
0.0945442427188
0.114716588224
0.132848398551
0.150247983304
0.168146518777
0.187474401801
0.208930789536
0.232996043889
0.260038324291
0.290234574988
0.323720622403
0.360444312283
0.400389363449
0.443364660313
0.489153290981
0.537393417983
0.58788651362
0.640136637965
0.693825347448
0.748582158003
0.804152244224
0.860224364885
0.916663818572
0.973293697167
1.03006007942
1.08687458622
1.14378714471
1.20076681123
1.25785141303
1.31508947515
1.37259155556
1.43031357354
1.48835913833
1.54674694079
1.60554688747
1.66476224514
1.72443963059
1.78453890348
1.84503951267
1.905818616
1.96675863735
2.02765337767
2.08825775242
2.14822139588
2.20718002644
2.26446953297
2.31916398904
2.37032015539
2.41716827277
2.45915754695
2.49588416861
2.52709443105
2.55301803461
2.57363247969
2.58771041533
2.59365176775
2.59087206395
2.57918977207
2.55853182304
2.52878291373
2.48994581013
2.44216663159
2.38572850951
2.32112809546
2.24901039238
2.17020948103
2.08570516873
1.99652083304
1.90369036426
1.80831952902
1.7113599423
1.61368280349
1.5160364522
1.41913253155
1.32346916237
1.22942682879
1.13726088375
1.04726438261
0.959453885115
0.873508760212
0.789746617143
0.708713141439
0.630155812684
0.552528147003
0.476375947729
0.40169859194
0.331407901235
0.264180509683
0.198205210193
0.139982521557
0.0867782187459
0.0197483750339
-0.0699795196514
-0.167730347686
-0.26746452256
-0.35939305586
-0.393425889393
-0.380163287568
-0.379213688618
-0.353232086166
-0.330188721102
-0.332998670966
-0.368177454429
-0.413049150068
-0.45093297262
-0.485584960257
-0.518120317716
-0.549233532708
-0.579338006679
-0.608704768154
-0.637519368096
-0.665919244197
-0.694025734173
-0.721910865176
-0.749555237791
-0.776898100716
-0.803896312664
-0.830620361239
-0.857174789762
-0.883634894448
-0.909998040089
-0.936235262185
-0.962308344901
-0.98819640968
-1.01388958338
-1.03939551464
-1.06473287843
-1.08993634759
-1.11505974625
-1.14016816662
-1.16533201191
-1.19059727047
-1.21596073098
-1.24134580493
-1.26661178695
-1.29169965435
-1.31664681515
-1.34155578145
-1.36648765006
-1.39145653193
-1.41646057013
-1.44149342504
-1.46654889369
-1.49160754763
-1.51663371127
-1.54157478546
-1.56636210383
-1.59089378717
-1.61506639579
-1.63878479486
-1.66194947034
-1.68446803215
-1.70627701838
-1.72734425852
-1.7476703629
-1.76733510542
-1.78661476125
-1.80594249902
-1.82587202077
-1.84704182593
-1.86994876664
-1.89521557776
-1.92358401698
-1.95498975017
-1.98826859233
-2.02162794627
-2.05241131815
-2.0780739856
-2.0969243721
-2.10575804683
-2.10105961314
-2.08110680456
-2.04907197588
-2.01339204352
-1.9961886531
0.0205614625739
0.0575418930002
0.109656089831
0.159991548199
0.19908953973
0.228591533957
0.251597296383
0.270764285258
0.288081611507
0.304965483858
0.322394337356
0.341199439043
0.361912716816
0.384988350905
0.410664487645
0.439141205751
0.47044916985
0.504600713355
0.54141791923
0.580854899934
0.622615256167
0.666444243734
0.71203205162
0.759151129758
0.807383890106
0.856564526618
0.906456486554
0.956921905484
1.0077959783
1.0590544928
1.11064367566
1.16256198215
1.21479837019
1.26747763826
1.32057708285
1.37418430508
1.42835320268
1.48315202744
1.53857217725
1.59467593704
1.65143135758
1.70881647396
1.7667133693
1.8249750209
1.88334692635
1.94152668494
1.99909478486
2.05564859636
2.11067042435
2.16352205361
2.21362516526
2.26047488162
2.30336778956
2.34160648073
2.37435342672
2.40092965662
2.42067220119
2.43326646299
2.43919564655
2.43972309773
2.43408885512
2.42142251069
2.40118104415
2.37303616424
2.33682197647
2.29245118162
2.23993407933
2.17945210956
2.11135171379
2.03618362973
1.95466484265
1.86766049479
1.77620032567
1.68137853919
1.58420782322
1.48575639507
1.38693208895
1.28843989438
1.19088420384
1.09493224324
1.00094534799
0.908865543837
0.819288809595
0.732529392727
0.648587222351
0.567217603536
0.488329735218
0.412303334837
0.341431672236
0.27372990003
0.206042673316
0.148369959263
0.0966467726679
0.0321754332609
-0.0526387364442
-0.153734198639
-0.247015157032
-0.316862286829
-0.367408376469
-0.387064013835
-0.380529110081
-0.359922256012
-0.362443007882
-0.38236959257
-0.389338665976
-0.403176344148
-0.439826883474
-0.49881029023
-0.561803497976
-0.616230434801
-0.663197901891
-0.70463012974
-0.742144499182
-0.776865006906
-0.80955529549
-0.840731045791
-0.870769266911
-0.899964963167
-0.928499768987
-0.956407792141
-0.983646307067
-1.01019069342
-1.03613785577
-1.06164407009
-1.08683490268
-1.11175313125
-1.13640012784
-1.16075903161
-1.18482192815
-1.20859009937
-1.23208078038
-1.25532392536
-1.27836802773
-1.30128243876
-1.32415175586
-1.34705764256
-1.37003796746
-1.39305865332
-1.41599744562
-1.43869369732
-1.46107498126
-1.48320246692
-1.50519320442
-1.52712234227
-1.54902437337
-1.57091905551
-1.59282420681
-1.61476298899
-1.63675302499
-1.6588129488
-1.68095796375
-1.70320483734
-1.72555454718
-1.74802043144
-1.77063318754
-1.79342725006
-1.81643053587
-1.8396727193
-1.8631746405
-1.8869442767
-1.91100217346
-1.935353178
-1.95992134509
-1.9845822373
-2.0091632297
-2.03336862064
-2.05703310423
-2.0800771537
-2.10207608095
-2.12225372022
-2.1398880615
-2.15418514121
-2.16493407836
-2.17318740338
-2.17690952918
-2.1752283407
-2.16894449528
-2.16124846561
-2.15934450539
-2.17679676111
0.053559503175
0.169807126133
0.260845699088
0.323340797499
0.36131009189
0.385061504884
0.401056646119
0.413053660409
0.423047397134
0.432490470304
0.442257675869
0.453071260833
0.465400064055
0.479697580636
0.496200555308
0.515160895172
0.536614042547
0.560668937013
0.587252420547
0.616273359195
0.647526406997
0.680942709756
0.716171406328
0.753036488901
0.79130607944
0.830799324142
0.871263503905
0.912625342631
0.954741510998
0.997580517697
1.04105675696
1.08523593032
1.13009160504
1.1756617417
1.22199361191
1.26918132331
1.3172043434
1.36615523045
1.41605095769
1.46691725794
1.5187154104
1.57139910337
1.62482953849
1.67883112787
1.73311582423
1.7873596962
1.84115802961
1.8940857238
1.94565550266
1.99538158592
2.04254839486
2.08643346563
2.12640657416
2.16193875449
2.19249231796
2.21758455384
2.23667183819
2.24914759794
2.25556700743
2.25597225028
2.25021923922
2.23771321961
2.21776853571
2.18974018449
2.15307777421
2.10746162325
2.05283789262
1.98943860344
1.9177806989
1.83861165908
1.75285495281
1.66159381532
1.56604353524
1.467308692
1.36643009979
1.26445208352
1.16240528015
1.06089873178
0.960270900868
0.86194483773
0.766389734556
0.673559807159
0.583628975518
0.497091825619
0.414792419509
0.337185511182
0.26114705429
0.187661058148
0.123955134144
0.0612367358968
-0.0169226388194
-0.0937913777388
-0.184885005523
-0.27998320934
-0.363513015491
-0.42743551546
-0.462826684445
-0.479779649234
-0.485331996841
-0.47396987038
-0.457374576447
-0.453514056159
-0.474960988982
-0.507698819598
-0.536092248079
-0.569547664782
-0.615338415044
-0.671686705063
-0.729095186903
-0.780801887703
-0.826326051096
-0.86662761193
-0.902915449439
-0.936199104122
-0.967249101471
-0.996615289376
-1.0247415683
-1.05195837348
-1.07845647844
-1.10424768255
-1.12923400001
-1.15338196283
-1.17677446306
-1.19960498061
-1.22201898969
-1.24409465901
-1.26584617735
-1.28727276108
-1.30836806934
-1.32913936907
-1.34960478288
-1.36980119889
-1.3897861508
-1.40964132221
-1.4294699249
-1.44935867327
-1.46934185654
-1.48935650475
-1.50924699059
-1.52884621618
-1.54807885521
-1.56703288962
-1.58582720493
-1.6045491742
-1.62324468105
-1.64194395777
-1.6606743253
-1.67946028853
-1.69832049529
-1.71727011585
-1.73632000804
-1.75548051187
-1.77475417278
-1.79415341609
-1.8137007945
-1.83342745622
-1.85336373963
-1.87354317584
-1.89399325132
-1.91473406859
-1.93580509808
-1.95725280652
-1.97908204867
-2.00125422515
-2.02368230696
-2.04619359003
-2.06870060794
-2.09112947754
-2.11311751173
-2.13398119064
-2.1529593979
-2.16927217048
-2.18260806612
-2.19349068384
-2.20065090594
-2.2035544712
-2.20360248977
-2.2043649022
-2.21300776693
-2.23966209182
0.0984743194322
0.336086763536
0.461580186341
0.515678854165
0.537701539768
0.547317819129
0.551795189325
0.554300802283
0.556149439776
0.558180165464
0.560799990795
0.564571978049
0.569778005107
0.576817880973
0.585845213704
0.597104570005
0.610634509667
0.626534706761
0.644699392043
0.665194130946
0.687826263524
0.712477837546
0.738974574861
0.767212325812
0.796895468485
0.827954500791
0.860213827535
0.893600467985
0.927981868591
0.96335821504
0.9996718019
1.03693328974
1.07513260052
1.11437204892
1.15462571379
1.19596704167
1.23843839547
1.28208046937
1.32686912551
1.3728109307
1.41981885044
1.46778414292
1.51650184324
1.56571744189
1.61507802953
1.66418612574
1.71258131322
1.75988047332
1.80563785155
1.84939625903
1.89059537897
1.92867657174
1.96308786796
1.99334757544
2.01899102827
2.03951610257
2.05439483149
2.0634058884
2.06782565856
2.06724811928
2.06120961983
2.04901598074
2.02976148891
2.00245846418
1.96621465318
1.92034646331
1.86451576867
1.79879155112
1.72375196858
1.64038982646
1.54980213046
1.45326518749
1.35229078199
1.24825981427
1.14214067484
1.03500465832
0.928846099438
0.824079164247
0.721012753093
0.620934970787
0.524633773352
0.432273441431
0.344834243315
0.260037799056
0.179069895417
0.106112831383
0.0352781779557
-0.0394918776391
-0.116816118447
-0.207695327165
-0.301622795149
-0.393737920437
-0.483326729665
-0.552973230545
-0.594836197831
-0.612326589356
-0.61153551572
-0.60690934832
-0.603305111357
-0.598489647924
-0.599357002599
-0.613969048245
-0.643442080268
-0.678502758397
-0.712588675344
-0.74974996524
-0.793186689721
-0.841715589128
-0.890694331344
-0.936429731742
-0.977921125967
-1.01535369722
-1.04936145453
-1.08063946937
-1.10978824871
-1.13730341089
-1.16361405934
-1.18905319578
-1.21377015815
-1.23773020243
-1.26079196803
-1.28289306746
-1.30413289926
-1.32471083838
-1.34479161932
-1.3644715348
-1.38378496902
-1.40274276671
-1.42134703665
-1.43960868569
-1.45755015046
-1.47521369016
-1.49266486674
-1.50999852358
-1.52732662992
-1.54473831552
-1.56225042196
-1.57977406397
-1.59713508718
-1.61416141667
-1.63080214379
-1.64714386292
-1.66330242426
-1.67936636964
-1.69538836728
-1.71140796457
-1.72746113441
-1.74357642837
-1.75977734865
-1.7760786775
-1.7924945248
-1.8090351456
-1.82571223587
-1.84254285006
-1.85955550434
-1.87678467739
-1.89426739426
-1.91204138168
-1.93014184167
-1.94859745806
-1.96744613041
-1.98672438839
-2.0064360781
-2.0265498066
-2.04699246367
-2.06762647674
-2.088357058
-2.10907017107
-2.1294368917
-2.14890017756
-2.16681042242
-2.18255957324
-2.19591219674
-2.20721359134
-2.21558622232
-2.22096912225
-2.22499598726
-2.23118338221
-2.24569572696
-2.27565383108
0.16794167312
0.566828194728
0.704847292513
0.721423767997
0.714776042779
0.704598086556
0.694631737024
0.685705095071
0.677598151954
0.670572784661
0.664640379742
0.66017383049
0.657298969709
0.65635498091
0.657402722844
0.660667958177
0.666115090359
0.673879900706
0.683866569277
0.696054514114
0.710294396156
0.726599701052
0.744716843303
0.764583148919
0.786043052053
0.809007258609
0.833292977447
0.858881291848
0.885656454982
0.913614659139
0.942682113214
0.972920694709
1.0042990271
1.03685146839
1.07060835124
1.10562944648
1.14188435088
1.17941503514
1.21818236291
1.25812825637
1.29911613448
1.34097546408
1.3834431153
1.42621641336
1.46890911965
1.51112842573
1.55247201312
1.59262307959
1.63131928235
1.66836480175
1.7033670412
1.73585156241
1.76548849635
1.79153113797
1.81344173789
1.83061528284
1.8425420924
1.84953144639
1.85305762075
1.8527716364
1.84810025154
1.83813274082
1.82161751086
1.79702534036
1.76281046743
1.71778183512
1.66119731395
1.5929579389
1.51376203187
1.42491051137
1.32789944012
1.22424418907
1.1161452647
1.00606331186
0.894731865796
0.783341028549
0.674192215729
0.567867362866
0.464281646016
0.365780070554
0.27040904517
0.178500650834
0.0955243115823
0.015523624249
-0.0657478831107
-0.142041709142
-0.218988675397
-0.301372838189
-0.394867166712
-0.492641192013
-0.580677612506
-0.655003580509
-0.712791590071
-0.746962017283
-0.760563512858
-0.760578521816
-0.754937066937
-0.75231644648
-0.754700318841
-0.76104402922
-0.774199641454
-0.796428144778
-0.826359983085
-0.859052322527
-0.891911661169
-0.926691374606
-0.964879859949
-1.00583940771
-1.04721157125
-1.08684179339
-1.12371508437
-1.15763303537
-1.18882014213
-1.21768407204
-1.24463752609
-1.27010886692
-1.29448027547
-1.31804899882
-1.3409134573
-1.3629724662
-1.38406489052
-1.40411310107
-1.42323549123
-1.44162354601
-1.45945567012
-1.47683401104
-1.49381258771
-1.51040939597
-1.52663729668
-1.5425094815
-1.55805411989
-1.57331761002
-1.58837310065
-1.60332545728
-1.618288602
-1.63334941376
-1.6485050105
-1.6636458386
-1.67858861712
-1.69316912975
-1.70735819403
-1.72123337107
-1.73490683719
-1.74846012545
-1.76195243136
-1.77543231044
-1.78894274075
-1.80251901554
-1.81618597544
-1.82996121328
-1.8438589123
-1.85789228857
-1.87207768892
-1.88643693939
-1.90100220609
-1.91581192508
-1.93090790619
-1.946333607
-1.96213184642
-1.97834075013
-1.99500126232
-2.01215065958
-2.0297968997
-2.04791770703
-2.06645293982
-2.08528995243
-2.10433165413
-2.12344425089
-2.1423297799
-2.16051858546
-2.17745904749
-2.19265826848
-2.20594159211
-2.21757975578
-2.22696559074
-2.23435595648
-2.24145986366
-2.25170469815
-2.27015196329
-2.3016713018
0.270860162338
0.859994006178
0.971748859738
0.923607044352
0.882806528007
0.850689374912
0.824274167561
0.801620755159
0.781305466636
0.763089914301
0.746650844853
0.732322037098
0.720057144187
0.710145696523
0.702523127996
0.697374633581
0.694605652521
0.694297985966
0.696265765364
0.700574928099
0.707025393755
0.715574900759
0.726065928451
0.738450682261
0.752494027509
0.76817442896
0.785334358579
0.803930686307
0.823834888109
0.84504546682
0.867486492747
0.891157011847
0.916024317418
0.942141856153
0.969463762924
0.99802124466
1.02779919518
1.05877224872
1.09084692714
1.12392642963
1.15781802965
1.19229849788
1.22706649284
1.26180579258
1.29616623549
1.32983192965
1.36254322953
1.39420785997
1.42486568541
1.45468239053
1.48361938793
1.51124740708
1.53715446392
1.5600117457
1.5787878987
1.59260990679
1.60112847669
1.60579836895
1.60827990562
1.60832601077
1.60551272491
1.59881712408
1.58642105988
1.56582809292
1.53437192134
1.48993630922
1.43148985782
1.35898862467
1.27339631391
1.17723571777
1.07305784653
0.962331365424
0.848124453732
0.733531451695
0.619380808699
0.506122838146
0.397347357971
0.291513400286
0.188170191583
0.0941960603006
0.00389181600835
-0.0873786922241
-0.169566472216
-0.248094251701
-0.325543761908
-0.405273636965
-0.487676942239
-0.57426228855
-0.662347541383
-0.743154579541
-0.808722730766
-0.857893533843
-0.890508118796
-0.906924171755
-0.912362478639
-0.912412045315
-0.912427555608
-0.916501222614
-0.925286520539
-0.938309433329
-0.956430545606
-0.979910637334
-1.00730903931
-1.03622444946
-1.06563838659
-1.09638474617
-1.12918454326
-1.163694593
-1.19863399557
-1.23266729924
-1.26494741018
-1.29512955109
-1.32321402374
-1.34938938425
-1.37393562409
-1.3971981142
-1.41951951686
-1.44112315758
-1.46204423337
-1.48212850706
-1.50119375612
-1.5191886371
-1.53623092888
-1.55250531053
-1.56818017932
-1.58336402219
-1.59811885495
-1.61247378063
-1.62644825782
-1.64006141173
-1.65334543268
-1.66635135856
-1.67915954346
-1.69187864125
-1.70462265426
-1.71746329847
-1.73038102553
-1.7432512315
-1.75589383192
-1.76817088103
-1.78006307848
-1.7916420164
-1.80300391173
-1.81422287454
-1.82535907665
-1.83646597966
-1.84759306456
-1.85878130958
-1.87005851779
-1.88144533483
-1.89295585359
-1.90460615673
-1.91641432794
-1.92840635806
-1.94061636842
-1.95308711081
-1.96586423844
-1.97899739479