/*--------------------------------*- C++ -*----------------------------------*\
| =========                 |                                                 |
| \\      /  F ield         | OpenFOAM: The Open Source CFD Toolbox           |
|  \\    /   O peration     | Version:  v1806                                 |
|   \\  /    A nd           | Web:      www.OpenFOAM.com                      |
|    \\/     M anipulation  |                                                 |
\*---------------------------------------------------------------------------*/
FoamFile
{
    version     2.0;
    format      ascii;
    class       volVectorField;
    location    "4";
    object      U;
}
// * * * * * * * * * * * * * * * * * * * * * * * * * * * * * * * * * * * * * //

dimensions      [0 1 -1 0 0 0 0];


internalField   nonuniform List<vector> 
12225
(
(9.73065064294 0.0338209820436 0)
(9.48929158179 0.0400815956629 0)
(9.2411511704 0.0413743704768 0)
(8.99635887022 0.0412066718739 0)
(8.76004955444 0.0404790800491 0)
(8.53410378604 0.0395827418776 0)
(8.31902477716 0.038678934681 0)
(8.11465321163 0.0378254897987 0)
(7.92049109684 0.0370391344908 0)
(7.73587915274 0.036323503046 0)
(7.56008891992 0.0356815282263 0)
(7.39236267866 0.0351202401985 0)
(7.231919585 0.0346532581657 0)
(7.07794893775 0.0343036690537 0)
(6.92956554015 0.0341124317649 0)
(6.78567977851 0.0341678019182 0)
(6.64486989249 0.0348100649268 0)
(6.49809391463 0.0298648751661 0)
(10.0101587969 0.0624442484701 0)
(10.0265987711 0.0725616269518 0)
(10.0197156051 0.073029468339 0)
(9.99686467611 0.0717223927921 0)
(9.96441126446 0.070260340165 0)
(9.92579931215 0.0691205266975 0)
(9.88300428954 0.0683766533293 0)
(9.83722233297 0.0679669539395 0)
(9.78919192555 0.0678082069711 0)
(9.73937375638 0.0678365089532 0)
(9.68804898219 0.068018392404 0)
(9.63536806077 0.0683508398651 0)
(9.58136595977 0.0688602115332 0)
(9.52595951847 0.0696061057026 0)
(9.46891246412 0.0707010009673 0)
(9.4097603066 0.0723740921352 0)
(9.34826429555 0.0752412048559 0)
(9.27816426818 0.0815636518582 0)
(10.0175822288 0.0533560979762 0)
(10.0473349989 0.0633911158195 0)
(10.0655878573 0.0633656304486 0)
(10.0742649597 0.0623114762688 0)
(10.0774429115 0.0617968507894 0)
(10.0772910988 0.0620207140491 0)
(10.0748666743 0.0628413289465 0)
(10.0706770738 0.0640587681266 0)
(10.0649394323 0.0655138753223 0)
(10.0577198812 0.0671116299243 0)
(10.0490049714 0.0688181393451 0)
(10.0387338693 0.0706512556142 0)
(10.0268063608 0.0726750351317 0)
(10.0130778862 0.0750043867234 0)
(9.99734637582 0.0778312471148 0)
(9.97934997107 0.081491554935 0)
(9.95917176288 0.0865865830598 0)
(9.93374156897 0.0930251917561 0)
(10.0137265854 0.0445805961875 0)
(10.0392964618 0.05776604541 0)
(10.0582903983 0.0603492848442 0)
(10.0699219776 0.0611714591786 0)
(10.0772271194 0.0620860184 0)
(10.0821347593 0.0633822555579 0)
(10.0856087039 0.0649947754521 0)
(10.0880968866 0.0667998929742 0)
(10.0897669472 0.0687082449782 0)
(10.0906388527 0.0706853801872 0)
(10.0906563782 0.0727489153931 0)
(10.0897233638 0.0749610406525 0)
(10.0877192016 0.0774259266543 0)
(10.0845048041 0.080297122187 0)
(10.0799305366 0.08380172781 0)
(10.0738657695 0.0882807705695 0)
(10.0664293377 0.0942110266176 0)
(10.0562134965 0.101519507047 0)
(10.0103948432 0.0375594452293 0)
(10.0314827594 0.0525596407892 0)
(10.0490734327 0.0569644723986 0)
(10.0607522126 0.0587451572643 0)
(10.0685349293 0.0601260905595 0)
(10.0740884421 0.061616694249 0)
(10.0783208447 0.063286658404 0)
(10.0816799645 0.0651024987012 0)
(10.0843512085 0.0670335130842 0)
(10.0863772528 0.0690823423232 0)
(10.0877256417 0.0712899821721 0)
(10.0883257879 0.0737342630547 0)
(10.0880884596 0.0765311006161 0)
(10.0869182207 0.0798427468244 0)
(10.0847298584 0.0838956448877 0)
(10.0814801253 0.0890003078961 0)
(10.077283847 0.0955451390268 0)
(10.0715265117 0.103686883087 0)
(10.0078413741 0.0317930403467 0)
(10.0251002978 0.0474662226698 0)
(10.0410041315 0.0533288243832 0)
(10.0523449894 0.0560311762652 0)
(10.0602248647 0.0579697198979 0)
(10.0659910267 0.0598303492713 0)
(10.070459831 0.0617844271408 0)
(10.0740584938 0.0638585657807 0)
(10.0769776719 0.0660569237391 0)
(10.0792756156 0.0684019373593 0)
(10.0809403112 0.0709461127326 0)
(10.0819256639 0.0737746652899 0)
(10.0821729561 0.0770083830047 0)
(10.0816267134 0.0808102171124 0)
(10.0802537873 0.0853959248676 0)
(10.0780715804 0.0910411839527 0)
(10.0752182003 0.098070986609 0)
(10.0715087998 0.106738270405 0)
(10.0059071534 0.0270488501278 0)
(10.0199729297 0.0426426240797 0)
(10.0341289257 0.0496218835099 0)
(10.0449480485 0.0531801497255 0)
(10.0527969758 0.055672812196 0)
(10.0586874434 0.0579060588945 0)
(10.0633218879 0.0601354513578 0)
(10.0670943881 0.0624408395849 0)
(10.0701933314 0.0648598588933 0)
(10.0726878233 0.0674361189846 0)
(10.0745832551 0.0702357283289 0)
(10.0758557786 0.0733525723263 0)
(10.076474509 0.0769115252206 0)
(10.0764189686 0.0810726401556 0)
(10.07569822 0.0860356558002 0)
(10.0743748925 0.0920391122819 0)
(10.0726125935 0.0993474819124 0)
(10.0704328192 0.108184441175 0)
(10.0044507251 0.0231367305978 0)
(10.0158883706 0.0381617990923 0)
(10.0283336941 0.0459055899719 0)
(10.0384986266 0.0502055655952 0)
(10.0462114117 0.0532191134563 0)
(10.0521629465 0.0558155582193 0)
(10.0569284413 0.0583191787076 0)
(10.06085948 0.0608579682575 0)
(10.0641367174 0.0635010251766 0)
(10.0668369248 0.0663117543942 0)
(10.0689809396 0.0693678940861 0)
(10.0705655435 0.0727686914172 0)
(10.0715853228 0.0766380428614 0)
(10.0720501736 0.0811263778252 0)
(10.0720029011 0.0864105101151 0)
(10.0715387653 0.0926876847875 0)
(10.0708371741 0.100161014538 0)
(10.0700381445 0.108986264601 0)
(10.0033586645 0.0198961831254 0)
(10.0126582013 0.0340556384229 0)
(10.0234972837 0.0422369608675 0)
(10.0329232838 0.047138215847 0)
(10.0404102436 0.0506227280888 0)
(10.046365296 0.0535647507957 0)
(10.0512315524 0.0563362800549 0)
(10.055310598 0.0591048135698 0)
(10.0587702642 0.0619662541785 0)
(10.0616917471 0.0650004398622 0)
(10.0641090511 0.0682934965345 0)
(10.0660374104 0.0719462442203 0)
(10.0674937763 0.0760771002564 0)
(10.0685131354 0.0808219868043 0)
(10.0691635384 0.0863309514464 0)
(10.0695610849 0.092759327891 0)
(10.0698866191 0.100252368776 0)
(10.0703524787 0.108898324648 0)
(10.0025419754 0.0171938710947 0)
(10.0101206021 0.030325764517 0)
(10.0195014418 0.0386590095635 0)
(10.0281503084 0.0440035649537 0)
(10.0353415005 0.0478898888081 0)
(10.0412493704 0.0511468941539 0)
(10.0461888993 0.0541708495018 0)
(10.0504069033 0.0571581690499 0)
(10.0540539308 0.0602258582494 0)
(10.0572122667 0.0634662957228 0)
(10.059926305 0.0669706221879 0)
(10.0622268078 0.070837810741 0)
(10.0641491382 0.0751771574812 0)
(10.0657474283 0.0801067713853 0)
(10.0671064599 0.0857482939898 0)
(10.0683519963 0.0922170252794 0)
(10.0696551203 0.0996074301604 0)
(10.0712769867 0.107953041305 0)
(10.0019307797 0.0149249634476 0)
(10.0081375179 0.0269664419479 0)
(10.0162311934 0.0352208742171 0)
(10.0241064246 0.0408459655834 0)
(10.0309552435 0.0450461233007 0)
(10.0367752698 0.0485696725706 0)
(10.0417649748 0.0518150992339 0)
(10.0461148927 0.0549964805543 0)
(10.04995473 0.0582455340618 0)
(10.0533644768 0.0616628035337 0)
(10.0563957493 0.0653408275652 0)
(10.0590913299 0.0693733016638 0)
(10.0615004208 0.073857338258 0)
(10.0636900913 0.0788912075111 0)
(10.065753837 0.0845683454326 0)
(10.0678180394 0.0909679408038 0)
(10.0700347163 0.098142892434 0)
(10.0726985692 0.10608790892 0)
(10.0015089345 0.0131245095197 0)
(10.0067226156 0.0241529898071 0)
(10.0137974656 0.0321826954606 0)
(10.020995745 0.037938147928 0)
(10.0275092248 0.042349977393 0)
(10.0332229606 0.0460731465162 0)
(10.0382439342 0.0494912612032 0)
(10.042712303 0.0528249428982 0)
(10.0467361544 0.0562139089633 0)
(10.0503902958 0.059762559777 0)
(10.0537297159 0.0635618256964 0)
(10.0568045159 0.0676983801517 0)
(10.0596721177 0.0722564390618 0)
(10.0624058599 0.0773153569401 0)
(10.0651007783 0.0829440612823 0)
(10.0678772185 0.0891928918799 0)
(10.0708665638 0.0960845218379 0)
(10.074389413 0.103589534269 0)
(10.0011847436 0.0115849527147 0)
(10.0055991021 0.0216195654355 0)
(10.0117991404 0.0292914620385 0)
(10.0183700625 0.035042764192 0)
(10.0245454492 0.039574947759 0)
(10.0301358433 0.0434403070479 0)
(10.0351731816 0.0469916354053 0)
(10.0397512595 0.0504451025214 0)
(10.0439560584 0.0539418000057 0)
(10.0478551007 0.0575858319087 0)
(10.0515041299 0.061464170622 0)
(10.0549574635 0.0656547289984 0)
(10.0582768219 0.0702282641717 0)
(10.0615376295 0.0752460240395 0)
(10.0648322133 0.0807551385218 0)
(10.0682714979 0.0867821903457 0)
(10.0719641716 0.0933265882551 0)
(10.0762548182 0.100342015267 0)
(10.0009074131 0.0100430906922 0)
(10.0046147531 0.0189808601368 0)
(10.0099957205 0.0261393186631 0)
(10.015939962 0.0317564996218 0)
(10.0217562751 0.0363245034449 0)
(10.0272092582 0.040280293073 0)
(10.0322662867 0.0439299314513 0)
(10.0369750703 0.0474741678624 0)
(10.0413964407 0.0510485605637 0)
(10.0455873651 0.05475262679 0)
(10.0496007914 0.0586656963405 0)
(10.053491331 0.0628542819619 0)
(10.0573209048 0.0673734743358 0)
(10.061162071 0.0722655013523 0)
(10.0650991888 0.0775560427961 0)
(10.0692281277 0.0832501113951 0)
(10.0736311889 0.0893278521613 0)
(10.0786728481 0.0957321824158 0)
(10.0006823397 0.00850889894892 0)
(10.0038005526 0.0162613660931 0)
(10.0084608701 0.0227397604091 0)
(10.0138192413 0.0280538196443 0)
(10.0192805939 0.0325235238777 0)
(10.0245934444 0.0364703340836 0)
(10.0296767819 0.0401413933556 0)
(10.0345367153 0.0437101694495 0)
(10.0392079279 0.0472980716926 0)
(10.0437331396 0.0509935476695 0)
(10.0481583366 0.0548639916994 0)
(10.0525337927 0.0589614274404 0)
(10.0569161495 0.0633239553476 0)
(10.0613696059 0.0679748039869 0)
(10.0659651125 0.0729205563233 0)
(10.0707794288 0.0781486466319 0)
(10.0758658832 0.0836264631004 0)
(10.0816070527 0.0892924790474 0)
(10.0005129477 0.00696746241177 0)
(10.0031786262 0.0134435205953 0)
(10.0072603492 0.0190653611583 0)
(10.0121270015 0.0238778364782 0)
(10.0172824365 0.0280730341917 0)
(10.0224826472 0.0318669914906 0)
(10.0276162935 0.0354406825143 0)
(10.0326559273 0.0389292492443 0)
(10.0376107479 0.0424302477499 0)
(10.0425069628 0.0460139792219 0)
(10.0473791558 0.0497313508376 0)
(10.0522679456 0.0536173579531 0)
(10.0572193016 0.0576927635969 0)
(10.0622838757 0.0619637913245 0)
(10.0675148878 0.0664217048086 0)
(10.0729673507 0.0710422403431 0)
(10.0786660808 0.0757861121638 0)
(10.0850096001 0.0805942661781 0)
(10.0004004829 0.00537259524932 0)
(10.002764184 0.0104554235544 0)
(10.0064500939 0.0150271683084 0)
(10.0109772336 0.0191118018568 0)
(10.0159322944 0.0228144156661 0)
(10.0210902165 0.0262620062018 0)
(10.0263246299 0.029568103621 0)
(10.0315839655 0.0328217805371 0)
(10.0368555132 0.0360884706601 0)
(10.0421477932 0.0394144345592 0)
(10.0474807908 0.0428300768317 0)
(10.0528812245 0.0463525164211 0)
(10.0583800889 0.0499862392216 0)
(10.0640106945 0.0537239043755 0)
(10.0698064777 0.0575463750577 0)
(10.0758003024 0.0614238781392 0)
(10.0819913727 0.0653167976123 0)
(10.088789585 0.0691737975685 0)
(10.0003468456 0.00362950601913 0)
(10.0025749521 0.00713536997705 0)
(10.0060899617 0.010424364722 0)
(10.0104927607 0.013523118414 0)
(10.0154191834 0.0164779159577 0)
(10.0206595888 0.0193414965864 0)
(10.026081251 0.0221623050653 0)
(10.0316176262 0.0249795456211 0)
(10.0372393713 0.0278217691155 0)
(10.0429390692 0.0307072236249 0)
(10.0487213729 0.0336443635476 0)
(10.0545972866 0.0366325252244 0)
(10.0605811002 0.0396622155967 0)
(10.0666881976 0.042715905894 0)
(10.0729331973 0.0457686319876 0)
(10.0793299276 0.0487893143631 0)
(10.0858577004 0.051741935441 0)
(10.0929366127 0.0545845449237 0)
(10.0003677128 0.00154194934069 0)
(10.0026713048 0.00313440382552 0)
(10.0063140799 0.00481969147094 0)
(10.0108948099 0.00663052494257 0)
(10.0160470964 0.00855662232502 0)
(10.0215602347 0.0105760424405 0)
(10.0272986203 0.0126695066816 0)
(10.0331902369 0.0148239345122 0)
(10.039197495 0.017029378009 0)
(10.0453022884 0.019276448639 0)
(10.0514966114 0.021553120403 0)
(10.0577771434 0.02384405224 0)
(10.0641427788 0.0261294541809 0)
(10.0705929037 0.0283860037126 0)
(10.0771262153 0.0305867749428 0)
(10.0837412739 0.0327028095078 0)
(10.0904027039 0.0347035624775 0)
(10.0975323232 0.0365567932554 0)
(10.0004915954 -0.000628021396761 0)
(10.003139304 -0.00100576875504 0)
(10.0072766424 -0.000939557659212 0)
(10.0123816555 -0.000407613727523 0)
(10.0180210118 0.000503582576368 0)
(10.0239668839 0.00168721611958 0)
(10.0300918424 0.00305679935702 0)
(10.0363367999 0.00455148540314 0)
(10.0426731263 0.00612977364383 0)
(10.0490851374 0.00776063955116 0)
(10.055561992 0.00941850937929 0)
(10.0620940957 0.011078544637 0)
(10.0686724223 0.0127161398745 0)
(10.075287732 0.014305386048 0)
(10.0819303976 0.0158206260877 0)
(10.0885915569 0.0172358633686 0)
(10.0952294799 0.0185268915042 0)
(10.1022648979 0.0196694250088 0)
(10.0006762313 -0.00270536050648 0)
(10.0038387686 -0.00488679088507 0)
(10.0086777123 -0.0061847872758 0)
(10.0144667804 -0.00664446321511 0)
(10.0206764053 -0.00647883348788 0)
(10.027071462 -0.00589818642035 0)
(10.0335520964 -0.00505381018245 0)
(10.0400892391 -0.00404274879613 0)
(10.0466740644 -0.00292562996924 0)
(10.0533010473 -0.00174417535687 0)
(10.0599623172 -0.000530476101292 0)
(10.0666473294 0.000686736799983 0)
(10.0733434946 0.00188087210063 0)
(10.0800377758 0.00302542047401 0)
(10.0867167566 0.00409547077231 0)
(10.0933691252 0.00506702834382 0)
(10.0999515148 0.00591881380137 0)
(10.1068882556 0.00663113125904 0)
(10.000969773 -0.00497998943516 0)
(10.0049160172 -0.00898192863249 0)
(10.0107363594 -0.0114728439524 0)
(10.0173865904 -0.0126849457742 0)
(10.0242356016 -0.0130425372104 0)
(10.0310786498 -0.0128843846153 0)
(10.0378781918 -0.0124224182406 0)
(10.0446548362 -0.0117775994517 0)
(10.0514299423 -0.0110200936738 0)
(10.0582130623 -0.0101940593022 0)
(10.0650017238 -0.00933271620347 0)
(10.0717856379 -0.0084638418207 0)
(10.0785500935 -0.00761427150978 0)
(10.0852790207 -0.00680878998024 0)
(10.0919563974 -0.00607219604582 0)
(10.0985687047 -0.00542637486356 0)
(10.1050720442 -0.00489197898932 0)
(10.1118902529 -0.00448577156014 0)
(10.0014286704 -0.00759741432613 0)
(10.0065205902 -0.0134372563901 0)
(10.0136292777 -0.0168801262863 0)
(10.021273533 -0.0185608539059 0)
(10.0287670735 -0.019211984591 0)
(10.0360070734 -0.0193090052474 0)
(10.0430594535 -0.0191061671949 0)
(10.0500111483 -0.0187316419387 0)
(10.0569187119 -0.01825193061 0)
(10.0638072044 -0.0177063650286 0)
(10.0706797701 -0.0171237015729 0)
(10.0775259354 -0.0165290218529 0)
(10.0843290044 -0.0159463842185 0)
(10.0910696961 -0.0153995596759 0)
(10.0977292862 -0.0149116643227 0)
(10.104292239 -0.0145051057745 0)
(10.1107141183 -0.0142010734324 0)
(10.1174225173 -0.0140189374492 0)
(10.0021421802 -0.0107315151068 0)
(10.0088666022 -0.0183531853269 0)
(10.0175774546 -0.0223903838967 0)
(10.0262755225 -0.0242120061645 0)
(10.034347391 -0.0249325314766 0)
(10.0418893257 -0.0251372915725 0)
(10.0491072773 -0.0250907697428 0)
(10.0561619551 -0.0249067914849 0)
(10.0631436495 -0.0246356970667 0)
(10.0700906148 -0.0243043073921 0)
(10.0770087957 -0.0239322667908 0)
(10.0838866797 -0.0235389374269 0)
(10.0907040866 -0.0231437408598 0)
(10.0974380784 -0.0227674934318 0)
(10.1040654793 -0.022431084754 0)
(10.1105658193 -0.0221575057722 0)
(10.1168902404 -0.0219703140556 0)
(10.1234586935 -0.0218945661837 0)
(10.0032431795 -0.0145997021805 0)
(10.0122305851 -0.0237766957898 0)
(10.0228137936 -0.0279229908272 0)
(10.0325205168 -0.0295520484416 0)
(10.0410354182 -0.0301542297521 0)
(10.0487536863 -0.0303602856827 0)
(10.056040575 -0.0304080702168 0)
(10.063127645 -0.0303802801533 0)
(10.0701331281 -0.030303473758 0)
(10.0771037053 -0.0301878808977 0)
(10.0840453319 -0.0300422540575 0)
(10.0909432899 -0.0298776490368 0)
(10.0977735223 -0.0297069322763 0)
(10.1045082885 -0.029543894785 0)
(10.1111183275 -0.0294041597812 0)
(10.117576095 -0.0293067709423 0)
(10.1238252323 -0.0292792065818 0)
(10.1302961566 -0.0293642574588 0)
(10.0049173454 -0.0194675553857 0)
(10.0169422274 -0.0296702960632 0)
(10.0295537012 -0.0333464470655 0)
(10.040102453 -0.0344902840208 0)
(10.0488708238 -0.03481844214 0)
(10.0566190987 -0.0349043734213 0)
(10.0638651888 -0.03491737754 0)
(10.0708984875 -0.0348939791774 0)
(10.0778564813 -0.0348340396663 0)
(10.0847890553 -0.034734560327 0)
(10.0916994797 -0.0345990274393 0)
(10.098569396 -0.0344377963779 0)
(10.1053712701 -0.0342628460389 0)
(10.1120734226 -0.0340859220717 0)
(10.1186405821 -0.0339184671432 0)
(10.12503256 -0.033773263991 0)
(10.1311672232 -0.0336752462328 0)
(10.1374037981 -0.0336817482456 0)
(10.0074051743 -0.0256414355706 0)
(10.0233545997 -0.0358566546611 0)
(10.0379502185 -0.0384925476695 0)
(10.0490656529 -0.0390845229074 0)
(10.0578846366 -0.0393158732959 0)
(10.0655355683 -0.0395927628788 0)
(10.0726567676 -0.0399569459028 0)
(10.0795732155 -0.040355415785 0)
(10.0864274196 -0.0407291985995 0)
(10.0932637112 -0.041039666048 0)
(10.1000771095 -0.0412716414992 0)
(10.1068429982 -0.0414265175804 0)
(10.1135305804 -0.0415132867702 0)
(10.1201059617 -0.0415424307805 0)
(10.1265320967 -0.041521349904 0)
(10.1327622069 -0.0414516034693 0)
(10.1386909799 -0.0413397321516 0)
(10.1446405367 -0.0412533267814 0)
(10.0109224679 -0.0335671436849 0)
(10.0315654705 -0.0420120445532 0)
(10.0474861967 -0.042282296726 0)
(10.0582778295 -0.0410961284006 0)
(10.0662346072 -0.040033590971 0)
(10.07280952 -0.0394201066759 0)
(10.0787370517 -0.0392254181234 0)
(10.0843695145 -0.0393237219957 0)
(10.0898526666 -0.0395895398033 0)
(10.0952264888 -0.0399281237431 0)
(10.1004824542 -0.0402793221999 0)
(10.105596122 -0.0406086440069 0)
(10.1105406945 -0.0408987192481 0)
(10.1152911571 -0.0411396228951 0)
(10.1198244888 -0.0413183103034 0)
(10.1241086221 -0.04140409216 0)
(10.1280211087 -0.0413304549225 0)
(10.1316049149 -0.0410050155511 0)
(10.0119078501 -0.0437899499126 0)
(10.0321656028 -0.0531614583595 0)
(10.0406014178 -0.0542322766328 0)
(10.0404742784 -0.0534034093458 0)
(10.0355813314 -0.0521953087143 0)
(10.0279947523 -0.0511031004856 0)
(10.0188335801 -0.0502529098161 0)
(10.0087224397 -0.0496288606952 0)
(9.99800980763 -0.049174136928 0)
(9.98689225922 -0.0488323685838 0)
(9.97548782036 -0.0485597406264 0)
(9.96387678437 -0.048325739444 0)
(9.95211915917 -0.0481107194135 0)
(9.94026721668 -0.0478999549914 0)
(9.92837604909 -0.0476745264771 0)
(9.91651242389 -0.0473921090204 0)
(9.90471672208 -0.0469361376722 0)
(9.89289981597 -0.0457265700047 0)
(9.84636078076 -0.024900380787 0)
(9.71204216072 -0.030839817468 0)
(9.57124869512 -0.0326044220339 0)
(9.43050612787 -0.0330617174985 0)
(9.29364642591 -0.0329674929482 0)
(9.16227116764 -0.0326538309574 0)
(9.0369812747 -0.0322662372593 0)
(8.91788468041 -0.0318620575059 0)
(8.80483227503 -0.0314604347006 0)
(8.69755228657 -0.0310660669536 0)
(8.59572622 -0.0306787645965 0)
(8.49903057798 -0.030297206523 0)
(8.40715630643 -0.0299207949634 0)
(8.3198183003 -0.0295485476392 0)
(8.23676564218 -0.0291758604258 0)
(8.1578001531 -0.0287856295695 0)
(8.08294621544 -0.0283120470956 0)
(8.01073125938 -0.0272254954633 0)
(0.0230912089198 -0.0728249129422 1.31453041693e-19)
(0.0361006973603 -0.0487898062842 0)
(-0.0408304758274 0.0706123798257 0)
(-0.131921280719 0.118624878934 0)
(-0.231613568452 0.135522534641 0)
(-0.341281320129 0.143663813477 -2.52974898734e-20)
(-0.459235388895 0.148506555065 0)
(-0.583058701634 0.151495560617 0)
(-0.711202396575 0.153162261599 1.60742535173e-20)
(-0.842569892885 0.153803985042 0)
(-0.976263739059 0.153623958916 -1.39998779635e-20)
(-1.11155382563 0.152777099587 0)
(-1.24781562988 0.151389216108 -1.31416542052e-20)
(-1.38453282134 0.149565664191 -1.29744380358e-20)
(-1.52126214543 0.147396501878 0)
(-1.65764108056 0.144958855208 1.29665343714e-20)
(-1.79336306893 0.142319360235 1.30778382417e-20)
(-1.92818508998 0.139535123565 1.32435973825e-20)
(-2.06190717326 0.13665542693 0)
(-2.1943791029 0.133722020868 0)
(-2.32548445613 0.130770665415 0)
(-2.4551460098 0.127831324531 0)
(-2.58331172365 0.124929326278 0)
(-2.70996000796 0.122085292138 0)
(-2.83508846633 0.119316430432 -1.52247333411e-20)
(-2.95871829511 0.116636338638 -1.55672956328e-20)
(-3.08088496529 0.114055912243 0)
(-3.20164221186 0.111583257364 1.62712970779e-20)
(-3.3210532864 0.10922467148 1.6629850332e-20)
(-3.4391950164 0.10698418397 1.69910046062e-20)
(-3.55615113082 0.104864201291 0)
(-3.67201581986 0.102865187834 0)
(-3.78688625712 0.100986190055 -1.8082099988e-20)
(-3.90086578042 0.0992239334622 0)
(-4.01405718859 0.097573061852 0)
(-4.12656398372 0.0960252492336 -1.91667583553e-20)
(-4.23848125142 0.0945690986371 0)
(-4.34989525342 0.0931887149771 0)
(-4.46087260522 0.0918636340413 0)
(-4.57145652626 0.0905676765918 0)
(-4.68165440021 0.0892692934388 0)
(-4.79143309261 0.0879302932528 4.24286252207e-20)
(-4.90070564118 0.0865066431153 0)
(-5.00932407164 0.0849489661018 0)
(-5.11706694264 0.0832054560391 4.41975893274e-20)
(-5.22363640922 0.0812233845433 4.47179974931e-20)
(-5.32865515474 0.0789528545736 0)
(-5.43167251137 0.0763436055506 0)
(-5.53215704647 0.0733440926198 4.59987551214e-20)
(-5.62948156586 0.0699039203128 0)
(-5.7229105176 0.0659872071245 -4.65562523214e-20)
(-5.81162110605 0.061572276117 0)
(-5.89474140966 0.0566451502471 4.68020756281e-20)
(-5.97136129944 0.0511908984988 0)
(-6.04052708625 0.0451926692883 4.66615162063e-20)
(-6.10124159762 0.0386264802896 4.64188592659e-20)
(-6.15239112185 0.0314682597395 0)
(-6.19279210785 0.0237089413794 0)
(-6.22121525375 0.0153626337378 0)
(-6.23644508977 0.00645529287504 4.39059286884e-20)
(-6.23741490902 -0.00298179130685 0)
(-6.22334977896 -0.0128913141315 0)
(-6.19343951076 -0.0232064068562 0)
(-6.14700726819 -0.03384307264 0)
(-6.0835460881 -0.0446865041558 0)
(-6.00277125008 -0.0555888995994 0)
(-5.90467312775 -0.0663693668112 0)
(-5.78955696109 -0.0768244683021 -2.72650380195e-20)
(-5.65806661172 -0.0867379055546 0)
(-5.51118356094 -0.0958978490073 -2.02106051607e-20)
(-5.35020543505 -0.10410912032 -1.62243257377e-20)
(-5.1767007143 -0.111210297993 0)
(-4.99244982199 -0.117080823836 7.35260749692e-21)
(-4.7993756669 -0.121649064605 0)
(-4.59947105063 -0.124890639276 2.68782093497e-21)
(-4.394725273 -0.12683315456 0)
(-4.18705594593 -0.127546294332 -1.38804478137e-20)
(-3.97826646505 -0.127130757674 1.9916320234e-20)
(-3.77000237555 -0.125706934159 0)
(-3.56371827961 -0.123421277672 0)
(-3.36065605884 -0.120420893322 0)
(-3.16185941309 -0.116837117099 0)
(-2.96815635044 -0.112813436144 5.50701380401e-20)
(-2.78011370436 -0.108514235259 -6.32966016669e-20)
(-2.59820092276 -0.104014312743 1.44057773516e-19)
(-2.42284243897 -0.0992733194002 1.62659267715e-19)
(-2.25415749104 -0.0943875340063 1.82562593473e-19)
(-2.09173801582 -0.0895995606641 0)
(-1.93541316905 -0.0849015103233 0)
(-1.7857668286 -0.0799973209703 0)
(-1.64284450871 -0.0748600787122 2.80211734489e-19)
(-1.50529019404 -0.0697856856808 0)
(-1.37202486026 -0.0650469400547 0)
(-1.24387509845 -0.0605431618812 3.84136719138e-19)
(-1.12252058343 -0.05610328404 0)
(-1.00764173942 -0.0518238905531 -4.79766653189e-19)
(-0.896767927028 -0.0481392831193 0)
(-0.787377445186 -0.0454702949659 6.13665398431e-19)
(-0.680669457348 -0.0443166188648 0)
(-0.580875291317 -0.0435057068475 0)
(-0.489362440379 -0.0423097135044 0)
(-0.400886647562 -0.0411425074235 1.13544761883e-18)
(-0.314580034067 -0.0399266243936 0)
(-0.232167651276 -0.0375026857262 1.80509270472e-18)
(-0.155996649473 -0.033892385553 2.50563011302e-18)
(-0.0853810474721 -0.0292150195423 0)
(-0.00893422319156 -0.0208933096298 0)
(0.0455344291575 -0.0142865694063 0)
(0.105007209083 -0.0109885593667 2.61132853529e-18)
(0.163155655893 -0.00944287812844 0)
(0.217441013595 -0.00864782520444 0)
(0.267971672154 -0.00816770906103 1.57560842795e-18)
(0.315362826504 -0.00782845116864 1.40438099213e-18)
(0.360219867845 -0.00755417863274 0)
(0.403059570292 -0.00732160666879 -1.16245075384e-18)
(0.444299223578 -0.00712116795752 -1.07318692408e-18)
(0.484280579827 -0.00695597994947 9.97930446176e-19)
(0.523279125535 -0.00682595397385 0)
(0.561526881831 -0.00673448758725 0)
(0.599218673951 -0.00667897218481 0)
(0.636523411573 -0.00665804850293 -7.84491188733e-19)
(0.673578224276 -0.00666643765189 0)
(0.710491928737 -0.00670191059113 -7.1005640687e-19)
(0.747347994438 -0.0067590471 0)
(0.784219514856 -0.00683568221092 0)
(0.821171685452 -0.00692509881061 0)
(0.858265782605 -0.00702328588246 5.97319606174e-19)
(0.895549773931 -0.00712273618889 5.7453406653e-19)
(0.933059199177 -0.00721922022752 0)
(0.970811538262 -0.00730588915103 0)
(1.0088114232 -0.00737903834343 0)
(1.04704791098 -0.00743275623631 0)
(1.08550020803 -0.00746391489637 0)
(1.12413493495 -0.0074675379039 0)
(1.16291108594 -0.0074410500429 9.07824843053e-19)
(1.20177715539 -0.00738040642649 0)
(1.2406754465 -0.00728359563922 0)
(1.27953902287 -0.0071476242971 0)
(1.31829608383 -0.00697109748638 -8.13392251337e-19)
(1.35686813737 -0.00675185047435 -7.93444742214e-19)
(1.395173377 -0.00648861768217 7.74791212899e-19)
(1.43312296288 -0.00618033265631 7.5736304921e-19)
(1.47062100163 -0.0058269467733 0)
(1.5075639949 -0.00542950316746 0)
(1.54384497896 -0.00499032835138 0)
(1.57935769561 -0.00451223549417 6.98717405399e-19)
(1.61399821303 -0.0040007948694 0)
(1.64766270703 -0.00345988432891 0)
(1.68025363597 -0.00288826090853 -6.6499039372e-19)
(1.71168225854 -0.00228591665616 0)
(1.74186623063 -0.00165743572332 -6.46755580337e-19)
(1.7707274107 -0.00100992017445 0)
(1.79819493949 -0.000351551947612 -6.31563273352e-19)
(1.8242071732 0.000309442838169 0)
(1.84871437622 0.000965062494173 0)
(1.87167886232 0.00160776851535 0)
(1.89307674109 0.00222976113903 0)
(1.91289765089 0.00282281722961 0)
(1.9311442681 0.00337919264009 0)
(1.9478290259 0.00389193421216 0)
(1.9629726412 0.0043547316991 0)
(1.97660132186 0.00476203555618 -5.93261086952e-19)
(1.98874683031 0.00510881886681 0)
(1.99944032775 0.00538630041127 0)
(2.008710996 0.00558835392715 -5.88737863949e-19)
(2.01659448437 0.00571268429223 0)
(2.02314645976 0.0057525881305 0)
(2.02843587076 0.00570382300134 -5.87146892126e-19)
(2.03273032871 0.0055838652599 0)
(2.03606138002 0.00544663641559 0)
(2.03809127899 0.00535492208535 -5.87587111766e-19)
(2.03839151828 0.00536846236887 5.88578743967e-19)
(2.0363758033 0.005560534915 -5.9025594224e-19)
(2.03124265591 0.00601069732293 0)
(2.02189632052 0.0068114083352 0)
(2.00681218539 0.00809301062208 -1.20472426376e-18)
(1.9838321138 0.010052063029 0)
(1.94961046488 0.0130261954425 1.2441540049e-18)
(1.90331867967 0.0174971777637 1.2781135814e-18)
(1.75769997884 0.0260544413782 0)
(-0.0518812360731 0.0717904386683 -2.04328490072e-19)
(-0.145250131529 0.18107374043 0)
(-0.24035415545 0.24759189083 5.24013458095e-20)
(-0.34273470256 0.295502489658 -4.11467680922e-20)
(-0.448533761383 0.327407793387 -3.45070416406e-20)
(-0.56143708889 0.349504610852 1.47697285717e-20)
(-0.680915899804 0.365220318327 2.70267345508e-20)
(-0.80535006818 0.376332465873 0)
(-0.933503012388 0.383882546555 -1.14213808661e-20)
(-1.06434500256 0.388572182371 2.25728190323e-20)
(-1.19701402398 0.390915335195 3.26983140971e-20)
(-1.33080112295 0.391315031889 -2.17514190917e-20)
(-1.46511100879 0.390101710948 3.22343315411e-20)
(-1.59945406113 0.387555114739 1.06003281361e-20)
(-1.73342064477 0.383915935513 0)
(-1.86667870972 0.379393448949 -1.0935251789e-20)
(-1.99895535753 0.374170132417 -1.11745997358e-20)
(-2.13003659042 0.368405274108 -1.14492510778e-20)
(-2.25975269816 0.362237611887 2.40304415437e-20)
(-2.38797859698 0.355787479298 0)
(-2.51462225758 0.349158902249 2.5324419278e-20)
(-2.63962579513 0.342441259559 0)
(-2.76295593464 0.335710995352 -2.6737461809e-20)
(-2.88460494442 0.329032882409 0)
(-3.00458324057 0.32246160472 4.21449939642e-20)
(-3.122921282 0.316042744564 -1.46817874745e-20)
(-3.23966335985 0.309814135126 -2.97656399915e-20)
(-3.35486883796 0.303806741857 -4.56524100707e-20)
(-3.46860714921 0.298045699964 -1.5507299964e-20)
(-3.58096010531 0.2925506673 -1.59100235721e-20)
(-3.69201771716 0.287336494867 0)
(-3.80187975661 0.282413292347 -3.37098698773e-20)
(-3.91065173513 0.277786381324 1.71185961696e-20)
(-4.01844622126 0.273455349269 0)
(-4.1253780418 0.269413286647 0)
(-4.23156347375 0.265645101664 1.83134711132e-20)
(-4.33711354835 0.262125687415 0)
(-4.44213067088 0.258817122759 0)
(-4.54669855624 0.255666515436 0)
(-4.65087427536 0.252603483321 0)
(-4.75467635412 0.249538758912 0)
(-4.85807642454 0.246361859465 4.16695959053e-20)
(-4.96098381926 0.242941508817 8.4210264965e-20)
(-5.06323372172 0.239128014289 0)
(-5.16456997299 0.234758635693 4.3740810477e-20)
(-5.26464016299 0.229663686615 -4.37119423551e-20)
(-5.36300223564 0.223674633513 0)
(-5.45913691053 0.216621058886 0)
(-5.55243273592 0.208331184713 -1.36525051308e-19)
(-5.64215662724 0.198640169876 -9.21570467468e-20)
(-5.72742587976 0.187420170498 4.59955710238e-20)
(-5.80729135115 0.174583729788 9.35257739952e-20)
(-5.88077693568 0.160067547294 4.75116358962e-20)
(-5.94688962872 0.143823524603 0)
(-6.00468847677 0.125823859003 -1.41029517822e-19)
(-6.05306919389 0.106051079782 -4.65471548709e-20)
(-6.09089303696 0.0845190263027 0)
(-6.11694624335 0.0613142036183 9.33357340323e-20)
(-6.13001433499 0.0365782143825 -9.2385412858e-20)
(-6.1289311252 0.0104687310782 -4.46214323266e-20)
(-6.11393649722 -0.0167782274895 0)
(-6.08440857673 -0.0449801681988 0)
(-6.03970452635 -0.0739809891678 0)
(-5.9792386976 -0.10357047853 7.83579461965e-20)
(-5.90254786609 -0.133459449066 0)
(-5.80935690541 -0.16327187663 -6.89330205962e-20)
(-5.69964555172 -0.192547518587 0)
(-5.57369932527 -0.220765552788 -2.92990826907e-20)
(-5.43214230412 -0.247376113088 0)
(-5.27593918984 -0.271842093344 -2.20091173799e-20)