/*--------------------------------*- C++ -*----------------------------------*\
| =========                 |                                                 |
| \\      /  F ield         | OpenFOAM: The Open Source CFD Toolbox           |
|  \\    /   O peration     | Version:  v1806                                 |
|   \\  /    A nd           | Web:      www.OpenFOAM.com                      |
|    \\/     M anipulation  |                                                 |
\*---------------------------------------------------------------------------*/
FoamFile
{
    version     2.0;
    format      ascii;
    class       volScalarField;
    location    "18";
    object      p;
}
// * * * * * * * * * * * * * * * * * * * * * * * * * * * * * * * * * * * * * //

dimensions      [0 2 -2 0 0 0 0];


internalField   nonuniform List<scalar> 
12225
(
-3.86430803048
-4.61610616204
-4.8612196508
-4.93037127853
-4.989242519
-5.04453182948
-5.08240480067
-5.10115744161
-5.10357502036
-5.09065775829
-5.0612736101
-5.01341315945
-4.94472759394
-4.85222338617
-4.73150445914
-4.57573167692
-4.37241384824
-4.10197858777
-4.03793647642
-4.62673422382
-4.86633950073
-4.93939989557
-4.99663993532
-5.0501568118
-5.08727184091
-5.10574798443
-5.10804249268
-5.09512623137
-5.06592028709
-5.0184616918
-4.95045300333
-4.85900490315
-4.73997010926
-4.58721716106
-4.39131744109
-4.16345865037
-4.18042521565
-4.61347521166
-4.85311170709
-4.93906611012
-4.99806487817
-5.05137073955
-5.08922870118
-5.10881839139
-5.11216125501
-5.1003237818
-5.07246848759
-5.02685097689
-4.96141039132
-4.87365452773
-4.76026079807
-4.61699701118
-4.43928818731
-4.24008451975
-4.30471879961
-4.62553332045
-4.85667206699
-4.95212305776
-5.01093876099
-5.06210092802
-5.09937537558
-5.11927705469
-5.12317806267
-5.11219221661
-5.08576170625
-5.04240769639
-4.98036851693
-4.89766410846
-4.79197991438
-4.66102183702
-4.5037783435
-4.33129911532
-4.41518624174
-4.65230445921
-4.86229875349
-4.96174475352
-5.02024485135
-5.06947553183
-5.10642985855
-5.12715672011
-5.13230773548
-5.12298100854
-5.09890805288
-5.05891962191
-5.00161252419
-4.92558729167
-4.82955651911
-4.71289883255
-4.57697269926
-4.43120863795
-4.51398903479
-4.68921465883
-4.87349195341
-4.97434623423
-5.03388515869
-5.08205553087
-5.11886868372
-5.14056925105
-5.1472640489
-5.1400060411
-5.11881326537
-5.08286639797
-5.0311713723
-4.96293249171
-4.87780877657
-4.77650125896
-4.6618459074
-4.54231783592
-4.60315252358
-4.73314600332
-4.89084033415
-4.98962913263
-5.04967043639
-5.09653400883
-5.13272937782
-5.15518788411
-5.16358864086
-5.15882415831
-5.14111988673
-5.11000159781
-5.06489904682
-5.00559297678
-4.93254188559
-4.84739948375
-4.75378761909
-4.6592839851
-4.68445093187
-4.7816497176
-4.91419551532
-5.00808815148
-5.06808537287
-5.11403300151
-5.14993413324
-5.17355551668
-5.18426075054
-5.18271742113
-5.16930674619
-5.14390541442
-5.1063763599
-5.05702500852
-4.99693626287
-4.92837507617
-4.85525831535
-4.78422958662
-4.75938355449
-4.83294349362
-4.94308260773
-5.03015697438
-5.08938370268
-5.13466001821
-5.17044922175
-5.19534986971
-5.20860147686
-5.21068089795
-5.20210000409
-5.18307038378
-5.1538579467
-5.11520181348
-5.06862101497
-5.01669097075
-4.96327164747
-4.91397471412
-4.82919950291
-4.88578653803
-4.9768245649
-5.05608699988
-5.11381683106
-5.15860200601
-5.19456927818
-5.22101797533
-5.23722496843
-5.2435229546
-5.24050566413
-5.22865604958
-5.20857044324
-5.18130582946
-5.14863472037
-5.11320793966
-5.07861916407
-5.0494850509
-4.89491204046
-4.93933128326
-5.01463541929
-5.08591637399
-5.14159971829
-5.18604516039
-5.22254170351
-5.25086715581
-5.27042743479
-5.28146140169
-5.28460278466
-5.28053659189
-5.2701097405
-5.25459198604
-5.23586038564
-5.21647608081
-5.19964379979
-5.18902300737
-4.95219108677
-4.98866941947
-5.05239540347
-5.11672760811
-5.17024295066
-5.21450702675
-5.25183432716
-5.28222436173
-5.30523239761
-5.32105739652
-5.33034338134
-5.33389469334
-5.33271070028
-5.32815946299
-5.32210526098
-5.31692229735
-5.31542284552
-5.32052562153
-5.00686419048
-5.03747758472
-5.09191564217
-5.15001274548
-5.20134331189
-5.24555791591
-5.28400892758
-5.31675787829
-5.34349853515
-5.36441678035
-5.38015003659
-5.39156724126
-5.39974989565
-5.40609250959
-5.41236967239
-5.42071640405
-5.4335328989
-5.45302610871
-5.06682701212
-5.09266980858
-5.13905607713
-5.19122421029
-5.24031203448
-5.28471338033
-5.32485150108
-5.3607192252
-5.39211968449
-5.41924210094
-5.44269559201
-5.46335963816
-5.48232681934
-5.50093678383
-5.52079293344
-5.54371298784
-5.57165019966
-5.6061192144
-5.13193303198
-5.15418482047
-5.19417279383
-5.2412978505
-5.28848653328
-5.33353693529
-5.37611957179
-5.416058899
-5.45321321898
-5.48776489179
-5.52026915532
-5.55154516125
-5.58261195053
-5.61466192947
-5.64904917333
-5.68721910867
-5.73066247084
-5.78024442743
-5.20163459318
-5.22148356705
-5.25703144541
-5.30061923438
-5.34683114692
-5.39337387812
-5.4394167369
-5.48458429261
-5.52871746139
-5.5719637948
-5.61477854073
-5.65785500734
-5.7020434977
-5.74831463167
-5.7977048273
-5.85127189826
-5.91005096072
-5.97432977588
-5.27447960279
-5.29309203181
-5.32638080593
-5.3685199255
-5.41533644152
-5.46469901827
-5.51552037111
-5.56724734899
-5.61964735527
-5.67277838353
-5.72695206378
-5.78266649013
-5.84054018154
-5.90125505441
-5.96551286484
-6.03397936943
-6.10729722947
-6.18524573708
-5.34703108828
-5.36556393236
-5.39896519885
-5.4422577127
-5.49189798246
-5.54590983849
-5.60310647358
-5.66280740997
-5.72466964498
-5.78861434196
-5.85476904447
-5.92340051452
-5.9948599601
-6.06952707303
-6.14777709126
-6.2299342679
-6.31631558416
-6.40631139358
-5.4117012682
-5.43156518125
-5.46799236676
-5.51578879888
-5.57123525718
-5.63231740988
-5.69782751622
-5.76701846472
-5.83942411812
-5.91480682838
-5.99309890912
-6.07434245501
-6.15863244497
-6.24607505001
-6.33676113043
-6.43073709517
-6.52806129926
-6.62782215656
-5.4426124109
-5.4652287761
-5.50757340526
-5.5627629381
-5.62590551567
-5.69480688901
-5.76843985895
-5.84611933154
-5.92731323983
-6.01167474404
-6.09903118093
-6.18929628749
-6.28241990507
-6.37834522002
-6.47700884881
-6.57831298558
-6.68219812606
-6.78762739688
-5.44541042153
-5.4716492034
-5.52154187667
-5.58519543969
-5.65595198923
-5.73171235662
-5.81195364016
-5.89617543842
-5.98382072305
-6.07452290238
-6.16810082439
-6.26444053035
-6.36342345762
-6.46491202545
-6.56876051021
-6.67480995659
-6.78295309166
-6.89211484312
-5.42781605571
-5.45969062292
-5.52022010029
-5.59412469026
-5.67268456892
-5.75476372561
-5.84079650934
-5.93045559697
-6.02313475493
-6.11850803687
-6.2164679325
-6.31692499292
-6.41973163795
-6.52470914372
-6.63166575852
-6.74040113287
-6.85076075929
-6.96161100443
-5.39304184523
-5.43380026191
-5.50906895619
-5.59465664863
-5.6805295069
-5.76817008956
-5.85933413223
-5.95370897864
-6.05062798234
-6.14989099023
-6.25150767053
-6.35540116341
-6.46138545757
-6.5692436184
-6.67877057694
-6.78976211147
-6.90208378186
-7.01464351967
-5.34298971959
-5.39810258319
-5.49327033063
-5.59101666585
-5.68287146283
-5.77502869962
-5.87036224111
-5.96819713916
-6.06788963232
-6.16955285848
-6.27339483919
-6.37936947131
-6.48725280165
-6.59678881825
-6.70774007274
-6.81986111448
-6.9329455304
-7.0458036188
-5.27844053394
-5.35686841593
-5.47747626292
-5.58618414012
-5.68234324087
-5.77871734564
-5.87831127312
-5.97959814394
-6.08200554921
-6.18600434113
-6.29197515618
-6.39989259295
-6.50952506428
-6.62061974425
-6.73293687296
-6.84620504153
-6.96017891365
-7.07366052817
-5.19902332541
-5.31504464988
-5.46530567248
-5.58106762822
-5.67856965374
-5.77740596234
-5.87949606681
-5.98254941204
-6.08633745994
-6.19165142367
-6.29890470259
-6.40801618441
-6.51874163181
-6.63085344558
-6.74412215919
-6.85822239498
-6.97272673964
-7.08607157263
-5.10373567282
-5.27884324292
-5.45980079421
-5.57925137728
-5.67880280551
-5.78128150528
-5.88599139381
-5.99047148729
-6.09529058904
-6.20159238932
-6.30975879028
-6.41964175689
-6.53101841271
-6.643733218
-6.75762685423
-6.87239107689
-6.98749417558
-7.10102360591
-4.99065513989
-5.25464510017
-5.45489074121
-5.56846070382
-5.66827326036
-5.77410146384
-5.88107832935
-5.98683197064
-6.09277154842
-6.20026455885
-6.30957145787
-6.42044518513
-6.53267227758
-6.64617654254
-6.76089819728
-6.87662627858
-6.99280165941
-7.10694852691
-4.85847528308
-5.26203376
-5.47359262228
-5.57545347772
-5.67291397451
-5.779489377
-5.88648054916
-5.99177884918
-6.09743861912
-6.20492644979
-6.31436292925
-6.42539428689
-6.53779139998
-6.65152492834
-6.76663322742
-6.88312536016
-7.00092065695
-7.11861457
-4.6875883941
-5.24385367637
-5.46837315992
-5.5669798615
-5.66603933823
-5.77489452286
-5.88316918255
-5.989157937
-6.09534938274
-6.20332240675
-6.3131788226
-6.42454874419
-6.53721942931
-6.65119735726
-6.76657509406
-6.88351467698
-7.0023648691
-7.12749491281
-3.04368322883
-3.04949434417
-3.0569501376
-3.06035404983
-3.0621677763
-3.0709182898
-3.09405438555
-3.13357750031
-3.19189791851
-3.27115981592
-3.37318646983
-3.49948020152
-3.65124796845
-3.82941222621
-4.03464664497
-4.26739031139
-4.52788763822
-4.81619987584
-5.13224643767
-5.47580964727
-5.84657369664
-6.24412143637
-6.66796941623
-7.11755501975
-7.59226564563
-8.09141759516
-8.61427683195
-9.16003106471
-9.72780286402
-10.3166149132
-10.9253948928
-11.5529369676
-12.1979016543
-12.858774713
-13.5338640159
-14.221261331
-14.9188421824
-15.6242344773
-16.3348276371
-17.0477554008
-17.7599182062
-18.4679839121
-19.1684272704
-19.8575553029
-20.5315665439
-21.1866002511
-21.8188041555
-22.4243958292
-22.9997239879
-23.5413262119
-24.045967595
-24.5106881593
-24.9328227481
-25.3100440496
-25.640372012
-25.9222046968
-26.1542935228
-26.3357219026
-26.4658315303
-26.5441935821
-26.570627286
-26.5453049502
-26.4687870862
-26.3419650151
-26.1661323318
-25.9433225003
-25.6763961293
-25.3686791878
-25.0236702796
-24.6448492636
-24.2355219403
-23.7985965035
-23.336417246
-22.8505267207
-22.3415237489
-21.8088428272
-21.2506557505
-20.6636663859
-20.0430188547
-19.3820576188
-18.6722562085
-17.9030354859
-17.0618745932
-16.1344718885
-15.1055862102
-13.9601903526
-12.6853398326
-11.2720410906
-9.71742106815
-8.02634841197
-6.21239008648
-4.29776824934
-2.31211466363
-0.290463326161
1.72937025675
3.70956785377
5.61497368868
7.41532940332
9.08682696239
10.6127802087
11.9835892377
13.1961405609
14.2526944515
15.1593360308
15.9244085534
16.5578932123
17.0704931864
17.4753281485
17.7863271969
18.0197823068
18.190987257
18.3163354417
18.398522869
18.4322581267
18.4212606338
18.374864369
18.3020282168
18.209951771
18.1042807972
17.9895198962
17.8692434952
17.7463229491
17.623016613
17.5011186651
17.3819712224
17.2665827468
17.1556212146
17.0495438266
16.9485805492
16.8528442493
16.7622915881
16.6768249921
16.5962700126
16.5205147935
16.4494478619
16.3829039382
16.3206391783
16.2624099729
16.207915958
16.1568517162
16.1089001552
16.0637646745
16.0211670538
15.9808568015
15.9426040113
15.906196681
15.8714346651
15.8381345669
15.806123506
15.7752424153
15.745346129
15.7163031281
15.6879891073
15.6602906046
15.6331010934
15.6063261102
15.5798812852
15.5536894386
15.527672869
15.5017675424
15.4759225272
15.4500904175
15.4242171751
15.398268595
15.3722190842
15.3460531187
15.3197551119
15.2933275616
15.2667930794
15.2401912249
15.2135733477
15.1870294948
15.1606958762
15.1347664076
15.1094915827
15.0852431942
15.0625904134
15.0423439499
15.0269051844
15.0094009351
-3.02190120207
-3.02873671175
-3.04252327472
-3.06092938869
-3.07148221476
-3.07694634991
-3.09576240999
-3.13303822748
-3.19060499762
-3.27014130454
-3.373196333
-3.50108537486
-3.65487220023
-3.83536604273
-4.04314505137
-4.27857011538
-4.5418183347
-4.83289826974
-5.1516847493
-5.49792967611
-5.87129383187
-6.27134984393
-6.69760892621
-7.14951618521
-7.62646937264
-8.12780609905
-8.65281477695
-9.20071480392
-9.7706586997
-10.3617054249
-10.9728149693
-11.6028172114
-12.2504005025
-12.914078023
-13.592174195
-14.2827926797
-14.9838055123
-15.692829099
-16.4072239118
-17.1240854633
-17.8402585455
-18.5523458885
-19.2567416658
-19.9496674359
-20.6272309973
-21.2854850151
-21.9204961083
-22.5284125869
-23.1055294898
-23.6483452714
-24.1536080485
-24.6183618852
-25.0399764485
-25.4161754878
-25.745043374
-26.0250480206
-26.2550302327
-26.4341488326
-26.5617998131
-26.6375183808
-26.6611418025
-26.6330327003
-26.5538352859
-26.4236881211
-26.2429201956
-26.014048927
-25.7409080237
-25.4271980202
-25.0766647843
-24.6929887065
-24.279647579
-23.8397306448
-23.3757571211
-22.8894672993
-22.3816520565
-21.8519648842
-21.2987742891
-20.7189887224
-20.1079186528
-19.4590666196
-18.7639482805
-18.0119140522
-17.1901525459
-16.2838685202
-15.2769779494
-14.1533470013
-12.8986779703
-11.5026586208
-9.96124830997
-8.27854506082
-6.46794863861
-4.55197919351
-2.56093903864
-0.530677473126
1.50016785531
3.49318716777
5.41293918658
7.22910540837
8.91774901559
10.4618302201
11.8508264103
13.0801310379
14.1500360299
15.0649623274
15.8326936334
16.4651546432
16.9755554781
17.3807866511
17.6981362155
17.9465559318
18.1350651459
18.2666260655
18.3479868151
18.3826673023
18.375507005
18.3341328394
18.2663534436
18.1788991763
18.0773111691
17.9660913827
17.8488768184
17.7285865281
17.6075479525
17.4875913943
17.3701188612
17.2561594721
17.146431079
17.041405997
16.9413638948
16.8464362281
16.7566375172
16.6719102766
16.5921389965
16.5171474368
16.4466919738
16.3805572005
16.3185886346
16.260603583
16.206327648
16.1554541596
16.1076717771
16.0626839929
16.0202169969
15.9800230857
15.9418748348
15.9055601476
15.870880864
15.8376526707
15.8057055515
15.7748825126
15.7450398233
15.7160442855
15.6877723938
15.6601124742
15.6329596414
15.6062182641
15.5798005159
15.553631096
15.527639747
15.5017604985
15.4759349202
15.4501140006
15.4242518345
15.3983143412
15.3722738854
15.3461147023
15.3198247117
15.2934021272
15.2668612589
15.2402447743
15.2136127618
15.1870496662
15.1606807666
15.1346886872
15.1093202322
15.0849321095
15.062058524
15.0414065244
15.0252532078
15.0032413893
-2.97307828059
-2.98786224577
-3.00654692907
-3.03065341426
-3.05967249177
-3.09345241484
-3.13695951752
-3.19457169425
-3.26970831945
-3.36498227587
-3.48238585436
-3.62344710897
-3.78933216614
-3.98090106751
-4.19876064105
-4.44329453989
-4.71470416058
-5.01302875644
-5.33818133403
-5.68996077325
-6.06808235807
-6.47218198508
-6.90184001139
-7.3565772163
-7.83587115003
-8.33914386672
-8.86576966335
-9.41505565239
-9.98624058337
-10.5784683246
-11.1907785148
-11.8220747592
-12.4711090991
-13.1364473877
-13.8164511032
-14.5092438787
-15.212695965
-15.9243996145
-16.6416661835
-17.3615187375
-18.0807055212
-18.7957109658
-19.5027910277
-20.1980174709
-20.8773464045
-21.5366880287
-22.1719847246
-22.7792872102
-23.3548266146
-23.8950718499
-24.3967839516
-24.8570629804
-25.2733712696
-25.6435389409
-25.9657756929
-26.2386915706
-26.461261283
-26.6327381079
-26.7524324385
-26.819791985
-26.8346977264
-26.7974335431
-26.7078870298
-26.5654304255
-26.3719227183
-26.1311920004
-25.8467196008
-25.5222573926
-25.1617276591
-24.7690540097
-24.3479946521
-23.9019569731
-23.4338057294
-22.9456551686
-22.4386788889
-21.9129222726
-21.3671215864
-20.7985192287
-20.2027027526
-19.5733871421
-18.9021431835
-18.1781346147
-17.3880048861
-16.5159927465
-15.5445011906
-14.455371848
-13.2319394795
-11.8615521198
-10.3381930511
-8.66483056502
-6.85472970784
-4.93125790621
-2.92609214281
-0.876625020751
1.17694674944
3.19488763932
5.14076005016
6.98341431892
8.69769085152
10.2650604297
11.6732204428
12.9161136505
13.993644275
14.9111328891
15.6781787336
16.311779451
16.8291512895
17.2504111516
17.5888988801
17.8509167371
18.046144582
18.1833187122
18.2695349128
18.3095497152
18.3087449885
18.2740383688
18.2126196206
18.1309544728
18.0345443737
17.9279198242
17.8147843833
17.6981090545
17.5802845906
17.4631796554
17.3482459964
17.2365388976
17.1288223828
17.0255924004
16.9271630197
16.8336803794
16.7451923177
16.66164101
16.5829234278
16.5088740725
16.4393117122
16.3740149473
16.3127825819
16.2554320923
16.201727592
16.1513666734
16.1040449246
16.059470943
16.017375964
15.9775176626
15.9396733658
15.9036349517
15.8692063393
15.836206357
15.8044679244
15.7738357897
15.7441661546
15.7153284667
15.6871987707
15.6596647684
15.6326236018
15.6059833745
15.5796592894
15.5535723696
15.5276508975
15.5018324963
15.4760597731
15.4502856739
15.4244647981
15.3985614512
15.3725470519
15.3463955892
15.3200909393
15.2936401359
15.2670623407
15.2403853251
15.2136601715
15.1869712828
15.1604317059
15.1341993965
15.1084857383
15.0835796353
15.0598837216
15.0378358423
15.0186244959
14.9901485129
-2.94919661759
-2.96905534311
-2.999136133
-3.03726722123
-3.08415655775
-3.14048936313
-3.20807072924
-3.28925711579
-3.38655830623
-3.50226232453
-3.63831440337
-3.79629701254
-3.97745802993
-4.18274120487
-4.41283327358
-4.6681946466
-4.94910335569
-5.25567762441
-5.58791341939
-5.94569812779
-6.32884133256
-6.7370789869
-7.17009691151
-7.62752646336
-8.10895933751
-8.61393496984
-9.14194655837
-9.69242028942
-10.2647120032
-10.8580788133
-11.4716668314
-12.1044763991
-12.7553428944
-13.4228985912
-14.1055502849
-14.8014414903
-15.5084326811
-16.2240732429
-16.9455967099
-17.6699133519
-18.3936251328
-19.1130388299
-19.8242068166
-20.5229816405
-21.2051014607
-21.8662761278
-22.5022789498
-23.1090336253
-23.6826938491
-24.2197105868
-24.716891812
-25.1714446163
-25.580982723
-25.9434981693
-26.2573920284
-26.5214900565
-26.7349530082
-26.8971254383
-27.0072617412
-27.0647985122
-27.069622078
-27.0214966475
-26.9187822558
-26.7613335519
-26.5527637164
-26.2971301947
-25.9980252123
-25.6594628384
-25.2856688124
-24.8809388265
-24.4494663958
-23.9951560084
-23.5214256544
-23.0309821808
-22.5256036535
-22.0059350791
-21.4712740793
-20.9193420314
-20.3460852566
-19.7454423061
-19.1090070201
-18.425647921
-17.6812613461
-16.8587517405
-15.9384856518
-14.8995654745
-13.7220606087
-12.3899031048
-10.8940498609
-9.23534349187
-7.42644761748
-5.49158622985
-3.4641899991
-1.38373985981
0.707158794586
2.76591973251
4.75306291029
6.63469637397
8.38259423085
9.97612831513
11.4025873279
12.6564174861
13.7406189549
14.6651914654
15.4442135675
16.0986226688
16.6436559217
17.0876054774
17.4403807294
17.7139085735
17.9189828952
18.064471258
18.1576778553
18.2046037979
18.2113254354
18.184545493
18.1310127634
18.0569043131
17.9675664227
17.8674780999
17.7603279382
17.6491083822
17.5362316942
17.4236061976
17.3127100685
17.2046420627
17.1001973888
16.9999148478
16.9041412274
16.813057989
16.7267396139
16.6451645408
16.5682402703
16.4958164257
16.4277274322
16.3637844086
16.3037962382
16.2475599576
16.1948294365
16.1453184007
16.0987393897
16.0548162373
16.0132956208
15.9739471497
15.9365572129
15.9009238885
15.8668578654
15.8341816784
15.8027320621
15.7723591299
15.7429201524
15.7142856909
15.6863371244
15.658966698
15.6320757679
15.6055689805
15.5793614618
15.5533782035
15.5275505828
15.5018155356
15.4761154617
15.4503987182
15.4246219414
15.3987424638
15.3727279796
15.3465622981
15.3202393727
15.2937540191
15.2671106235
15.2403408322
15.2134927125
15.1866320531
15.1598448685
15.13324336
15.1069791885
15.081241961
15.0562267808
15.0319558582
15.0085247766
14.9735425527
-3.00583477564
-3.02977393573
-3.066353247
-3.11470185058
-3.17497544044
-3.24762441645
-3.33377013718
-3.43485257774
-3.5524601039
-3.68815667499
-3.84338726678
-4.01941127928
-4.21728169978
-4.43783594536
-4.68171592034
-4.94938040999
-5.24113754827
-5.55715966401
-5.89751614646
-6.26218311881
-6.65107155431
-7.0640298482
-7.50086487486
-7.96133626275
-8.4451697557
-8.95204302648
-9.48158973852
-10.033377085
-10.6069000623
-11.201550449
-11.8166012781
-12.4511681745
-13.1041860422
-13.7743658062
-14.4601672421
-15.1597553982
-15.8709755692
-16.5913198372
-17.3179196378
-18.0475372404
-18.7765830956
-19.5011319811
-20.2169713006
-20.9196685012
-21.6046778951
-22.267447944
-22.9035307315
-23.5086811649
-24.0789560671
-24.610797937
-25.1011061944
-25.547273613
-25.9471385372
-26.2989654348
-26.601468218
-26.8537860488
-27.0553653683
-27.2054955033
-27.3034382696
-27.3487579173
-27.3409416324
-27.2779669809
-27.1575361892
-26.981903052
-26.7556179277
-26.4820669608
-26.1650136007
-25.808768725
-25.4180011859
-24.9975615112
-24.5522709322
-24.0867102365
-23.6050163223
-23.1106458834
-22.6061244829
-22.0928117346
-21.5706547123
-21.037893369
-20.4908103346
-19.9235351755
-19.3277144091
-18.6920737715
-18.0020257252
-17.2393747217
-16.3825372244
-15.407643363
-14.290784777
-13.0113328067
-11.5556277346
-9.92069899144
-8.11722090289
-6.17013713414
-4.11561755623
-1.99651006188
0.140478259159
2.24761351631
4.28008707332
6.20074936731
7.97910342909
9.59402182329
11.0361953172
12.3033146733
13.404683089
14.3541053238
15.1661760303
15.8522281293
16.4193877678
16.8808160172
17.2493476234
17.5368522919
17.7539577491
17.9098915932
18.0125275026
18.0687270317
18.085032553
18.0680698277
18.0242701866
17.9595539627
17.879088125
17.7872790203
17.6877728438
17.5835792019
17.4771187237
17.3703432976
17.2647516379
17.1614960806
17.0613998349
16.9650581087
16.8728450682
16.7849920702
16.7015922353
16.6226676335
16.5481410161
16.4778933612
16.4117690267
16.3496244738
16.2912952022
16.2365626104
16.1851538475
16.136802796
16.0912434681
16.0482218687
16.0075021809
15.9688675969
15.9321152638
15.8970515463
15.8634946271
15.8312759174
15.8002359634
15.7702282631
15.7411183419
15.7127811072
15.6851027109
15.6579738044
15.631293725
15.6049745789
15.5789355382
15.5531019702
15.5274037278
15.5017768726
15.4761645527
15.4505168925
15.4247862914
15.3989352039
15.3729425117
15.346792085
15.3204595327
15.2939309356
15.2672153265
15.2403369691
15.213324304
15.186216716
15.1590653047
15.1319420609
15.1049189687
15.0780586258
15.0513446073
15.0243800375
14.9964273038
14.9552299397
-3.15081072887
-3.17417217445
-3.21208229277
-3.26512210943
-3.33317912547
-3.41640153192
-3.51537896187
-3.63093425048
-3.76401534555
-3.91559488933
-4.086613372
-4.27792689544
-4.49028527233
-4.72431173808
-4.98050944934
-5.25925969341
-5.56084280957
-5.88544280958
-6.23317219144
-6.60407561934
-6.99815293546
-7.4153575196
-7.85561439487
-8.31881202087
-8.80481280011
-9.31343718582
-9.84446547236
-10.3976129813
-10.9725217151
-11.5687261721
-12.1856342634
-12.8224839181
-13.4783147711
-14.1519187833
-14.8418070878
-15.546159166
-16.2627912935
-16.9891157086
-17.7221285284
-18.458398917
-19.1940892727
-19.9249763719
-20.6465087812
-21.3538897544
-22.042209512
-22.7065824939
-23.3422861573
-23.9448835899
-24.5103605929
-25.0352350311
-25.5166233609
-25.9522445333
-26.3403047486
-26.6794897767
-26.968960397
-27.2082578524
-27.3970140041
-27.5345325553
-27.6200830369
-27.6529840587
-27.6315519567
-27.5514926178
-27.4119251102
-27.2176978724
-26.972595407
-26.6795613765
-26.3427261736
-25.9669182105
-25.5574547676
-25.1198937893
-24.659772186
-24.1823672148
-23.6925007676
-23.1943151431
-22.6909870587
-22.1844523378
-21.6751611931
-21.1617524193
-20.6408124921
-20.1068102067
-19.5518458317
-18.9652384413
-18.3328661661
-17.6363724925
-16.8527051405
-15.9547351626
-14.9133961671
-13.7015723534
-12.2987154539
-10.695707505
-8.89997189959
-6.93809767296
-4.85186770514
-2.69006042818
-0.504903625062
1.64996874911
3.72349746251
5.67729154672
7.48227475937
9.11879622217
10.5850599203
11.8820258357
13.0206552182
14.0096774345
14.852434516
15.5616609499
16.1500902597
16.6308439207
17.0167045384
17.3196437849
17.5505142118
17.7189003837
17.8331774457
17.9007596108
17.9285318168
17.9230949833
17.8906919423
17.8370189808
17.7670912725
17.6852082557
17.5949765157
17.4993826415
17.4008639428
17.3013811459
17.2024698588
17.1053091634
17.0107711555
16.91948512
16.8318737506
16.7482037943
16.668609103
16.593133921
16.5217423385
16.4543431704
16.3908161589
16.3310526666
16.2749099545
16.2221456411
16.1724776424
16.1256602426
16.0814540676
16.0396303613
15.9999748131
15.9622871361
15.926377485
15.8920660073
15.8591807825
15.8275600248
15.7970549758
15.7675266883
15.7388463589
15.7108929355
15.6835513224
15.6567172822
15.630299909
15.6042156995
15.5783839132
15.5527297418
15.527184299
15.5016872325
15.4761848008
15.4506245665
15.4249623876
15.3991696426
15.3732220286
15.3470853766
15.3207282092
15.294143126
15.2673334456
15.2403062617
15.2130698612
15.185640573
15.1580405955
15.1302816501
15.1023578909
15.0742132461
15.0456033898
15.0157619176
14.9833781333
14.9364561035
-3.35528697761
-3.37674593497
-3.41416658931
-3.46884908649
-3.54069809549
-3.62987681389
-3.73671543657
-3.86166179514
-4.00524261473
-4.16801066074
-4.35051531152
-4.55326836001
-4.77673299007
-5.02130593604
-5.28732253038
-5.5750497035
-5.88470089929
-6.21643390275
-6.57036978257
-6.94659047949
-7.34515695816
-7.76610376749
-8.20945305041
-8.67520342933
-9.16333797753
-9.67380571633
-10.2065208699
-10.7613355699
-11.3380286361
-11.9362678367
-12.5555869292
-13.1953370293
-13.8546528271
-14.5323958475
-15.2271145405
-15.9369851962
-16.6597729279
-17.3927819273
-18.1328373004
-18.8762702859
-19.6189422612
-20.3562735024
-21.0833137824
-21.7948419473
-22.4855294236
-23.1501216142
-23.7836229124
-24.3814608963
-24.9396529147
-25.4549192897
-25.9247162258
-26.347154131
-26.7209225419
-27.0452718173
-27.3199461473
-27.5449839969
-27.7200119054
-27.844386102
-27.9174382414
-27.93772228
-27.9010905158
-27.803808674
-27.6479398442
-27.4372769429
-27.1742517932
-26.8622787446
-26.5060711055
-26.111132834
-25.6834703751
-25.229312509
-24.7548296363
-24.2658664297
-23.7677452963
-23.2650464892
-22.7613109061
-22.2588064627
-21.7584039579
-21.2593287064
-20.7589982307
-20.2529674345
-19.7348114716
-19.1956344331
-18.622870981
-17.998608113
-17.2980840168
-16.4897565432
-15.5374152766
-14.4054275319
-13.0648720225
-11.4998773093
-9.71441872823
-7.7384034664
-5.6228480126
-3.42414963911
-1.20003142117
0.992443194571
3.0981970445
5.07998309771
6.91465225642
8.58452883591
10.0911126382
11.4333098643
12.6090087006
13.6263644661
14.4954112477
15.2285158543
15.8387529727
16.3394021545
16.7434293568
17.0629910969
17.3091841375
17.491887231
17.6198541442
17.7008579684
17.7420104933
17.7498983598
17.7306308197
17.6897140535
17.6320225518
17.5617369366
17.4824142347
17.3969995925
17.3079373163
17.2171836141
17.1263097866
17.0365138291
16.9487201999
16.8635871877
16.7815933596
16.7030346285
16.6281004518
16.5568548407
16.4893073254
16.4254049718
16.365069408
16.3082381411
16.2547731727
16.2043923378
16.1568364004
16.1118873857
16.0693377127
16.0289859628
15.9906408942
15.9541216334
15.9192550871
15.8858735157
15.8538172121
15.8229384056
15.7930970014
15.7641611878
15.7360081843
15.7085202306
15.6815900943
15.6551248323
15.6290381256
15.6032467823
15.5776713918
15.5522403746
15.5268880733
15.5015593794
15.4761991933
15.4507558711
15.4251907024
15.3994762198
15.3735750729
15.3474434002
15.3210585208
15.2944105102
15.2674896031
15.2402869482
15.2127920883
15.1850015649
15.1568940486
15.1284234869
15.0995118078
15.0699722894
15.0393526194
15.0065811244
14.9699808307
14.9179771823
-3.58593611532
-3.60563811857
-3.64239816769
-3.6974976081
-3.7709886954
-3.86320015806
-3.97441217722
-4.10491321369
-4.25500074528
-4.42496688784
-4.6150955371
-4.82564717547
-5.05686098438
-5.30894400877
-5.58208010042
-5.87642281418
-6.19210913132
-6.52925405684
-6.8879659991
-7.26834083548
-7.67047633077
-8.09446307482
-8.54039558229
-9.00835855884
-9.49843181448
-10.0106697955
-10.5450982665
-11.101684557
-11.6803233552
-12.2807957205
-12.9027419869
-13.5456081884
-14.2086060955
-14.8906494504
-15.590306
-16.3057301853
-17.0346156475
-17.7741369292
-18.5209228601
-19.2710371697
-20.0200043604
-20.7628499728
-21.4941875856
-22.208339851
-22.8995353266
-23.5621471446
-24.190936526
-24.7812612819
-25.329250682
-25.8319187136
-26.2871554108
-26.6936625335
-27.0509128515
-27.3591010044
-27.6188732489
-27.8307499062
-27.9944292972
-28.1091484745
-28.1739958622
-28.1866972608
-28.1411682436
-28.0335731483
-27.8665462644
-27.6426214996
-27.3640970325
-27.0352262481
-26.6614047218
-26.2488091073
-25.8040766169
-25.33405064
-24.8454417025
-24.3444775872
-23.8367018912
-23.326773198
-22.8183346217
-22.3140023352
-21.8154343708
-21.3231865232
-20.8364072442
-20.3524910976
-19.8668885928
-19.372543093
-18.8582103846
-18.3058750081
-17.6885067938
-16.9696914856
-16.1057062143
-15.0524106651
-13.7736437912
-12.2490139145
-10.4803255277
-8.50066751472
-6.37057072679
-4.15310398219
-1.90870252934
0.306890901569
2.4384417204
4.45042175856
6.32426651467
8.03903491278
9.58416322008
10.9578420964
12.1629250744
13.2071238055
14.1009371071
14.8568613068
15.4882742564
16.0087129705
16.4313094063
16.7683874214
17.031205524
17.229863955
17.3733415059
17.46963976
17.5259748802
17.5489202047
17.54445222
17.5179299114
17.4740757277
17.4169713455
17.3500933245
17.2763575232
17.1981820651
17.1175339443
17.0359925575
16.9547932113
16.874889263
16.7969880203
16.7216045595
16.6490847282
16.5796572973
16.5134324359
16.4504527921
16.3907104897
16.3341834616
16.2808638956
16.230573616
16.1830122912
16.137965132
16.0952487095
16.0546876446
16.0161093803
15.9793483063
15.9442439433
15.9106391266
15.8783828316
15.8473330545
15.8173537499
15.7883134033
15.7600914868
15.7325726272
15.7056473353
15.6792206443
15.6532054314
15.627517806
15.6020771961
15.5768098613
15.5516481022
15.5265321785
15.5014069924
15.4762184275
15.4509201747
15.425475429
15.3998487242
15.373996744
15.3478805246
15.3214777613
15.2947683625
15.2677310094
15.2403392786
15.2125711667
15.1843897604
15.1557299917
15.1264978641
15.0965350284
15.0655291781
15.0328385508
14.9971792848
14.956691329
14.9003528568
-3.81251917524
-3.83098327131
-3.86733620007
-3.92244492351
-3.99657690066
-4.09022150469
-4.20368502214
-4.33721412422
-4.49100451846
-4.66521026448
-4.85995937227
-5.07535314355
-5.31148034968
-5.56841358497
-5.84622371163
-6.14497479245
-6.46473888306
-6.80558963991
-7.16761674178
-7.55091744583
-7.95560901158
-8.38181745148