/*--------------------------------*- C++ -*----------------------------------*\
| =========                 |                                                 |
| \\      /  F ield         | OpenFOAM: The Open Source CFD Toolbox           |
|  \\    /   O peration     | Version:  v1806                                 |
|   \\  /    A nd           | Web:      www.OpenFOAM.com                      |
|    \\/     M anipulation  |                                                 |
\*---------------------------------------------------------------------------*/
FoamFile
{
    version     2.0;
    format      ascii;
    class       volScalarField;
    location    "18";
    object      pa;
}
// * * * * * * * * * * * * * * * * * * * * * * * * * * * * * * * * * * * * * //

dimensions      [0 2 -2 0 0 0 0];


internalField   nonuniform List<scalar> 
12225
(
84.8234528029
83.9703451387
84.8743395938
84.6926994926
84.8361565029
84.8072105432
84.8706666976
85.1439110002
85.819923362
86.96411714
88.4754820226
89.977205382
90.9138140169
91.1770123032
92.4101539991
98.4859916216
110.762116897
114.511367885
103.517241689
96.3454060383
96.3038637857
96.5237270537
96.8622317883
97.2806483429
97.8844084239
98.7916408249
100.078361851
101.704250207
103.480413443
105.009939494
105.885928637
106.389334816
108.440059578
115.01160278
124.335625107
120.911264501
81.1343105376
89.5968789767
89.2231213705
89.1044015974
89.0072199365
89.0331760036
89.2793180029
89.8522300402
90.8028503513
92.0565025198
93.3965221046
94.4422360902
94.9093111335
95.2613574262
97.3537030307
103.283858421
110.481274922
108.505836121
100.532395251
92.9122657969
92.7122495786
92.6783730064
92.6849693609
92.7873557962
93.0956342987
93.7014776227
94.6301968854
95.7893416803
96.9396446178
97.7151887861
97.9055713393
97.9673432318
99.2740585854
102.733617388
105.655698868
102.55342061
82.1963296396
89.7967569595
90.7527186289
90.5307832366
90.5947957503
90.70085284
91.0373338722
91.6545003292
92.5843250358
93.74713497
94.9441483067
95.9027180809
96.5389516893
97.2850904249
98.978186193
101.560495986
102.616850551
99.5988668546
97.9217104794
91.9025138771
91.7490312114
91.7584109769
91.7839206879
91.8742300341
92.1267195223
92.5836750568
93.2524057856
94.0583777145
94.8480090973
95.4610134613
95.9428446418
96.6995352372
98.1802001219
99.8961861456
100.063384323
97.6361429636
89.2025824407
90.9036508642
91.2433069319
91.2875211529
91.4486473485
91.6657816029
92.0329945433
92.5605717592
93.2307076848
93.958534948
94.6155437795
95.1122823426
95.5486385964
96.2375427053
97.3474412709
98.3136328719
98.019650909
96.1363822373
92.4134104731
91.1545056431
91.3572624739
91.3894662503
91.5386656132
91.7468384663
92.0930280055
92.5739609828
93.1607813498
93.7718090346
94.3079115828
94.7277474105
95.1344272289
95.7206696147
96.4739034095
96.9100233101
96.4077608209
94.9284288073
91.5881332551
91.2111385826
91.3837469735
91.4491233037
91.6100549166
91.8273166136
92.1550535701
92.5844489979
93.0820229134
93.5785581379
94.0059985709
94.3546993689
94.7079318091
95.1573585255
95.6062804548
95.7013518753
95.1289200317
93.9421596451
91.6020220581
91.2581457169
91.4273768249
91.5068912362
91.670576275
91.8859254144
92.1874082201
92.5613707049
92.9735777061
93.3690471835
93.7046846255
93.9856819145
94.2660304282
94.5691707235
94.7800811049
94.6687108269
94.0928512477
93.1190215609
91.5172606811
91.3226340284
91.4727726726
91.5628442136
91.7174297611
91.9201500603
92.1864800507
92.5014797651
92.8329198845
93.1397867393
93.396208392
93.6101938651
93.8081425433
93.9760462098
94.0139217165
93.7848173215
93.2342475335
92.4207667396
91.4634856827
91.3798000673
91.5024391067
91.5951844295
91.7339988649
91.9170120425
92.145643695
92.4056653565
92.6684531634
92.9037736375
93.0952148679
93.2478906172
93.3693439789
93.4327950362
93.3621949944
93.077657375
92.5627806858
91.8629257037
91.4480749718
91.4426835445
91.5268666163
91.6170325309
91.7358260373
91.8947609879
92.0840431216
92.2910965524
92.4912225819
92.6626433291
92.7944934887
92.8870256237
92.9369902413
92.9157107305
92.7704450425
92.45784387
91.9795362739
91.3713922585
91.4443690281
91.5050484924
91.5463548839
91.6266372106
91.7188939313
91.8467455841
91.9907592413
92.14124513
92.2774101963
92.3843223881
92.4532669764
92.4818562646
92.4609305279
92.3671447995
92.1678353475
91.8429827444
91.4039452174
90.8768608157
91.4468464213
91.5555989673
91.5570906492
91.6173523572
91.6777760473
91.766553218
91.8609884051
91.9524422948
92.0250387644
92.067197259
92.0730537689
92.0375425535
91.9526063536
91.8021805545
91.5686046425
91.2450687146
90.8453345066
90.390027091
91.4771968974
91.6000743615
91.5595268455
91.5924888221
91.6148662361
91.6598338311
91.7014042893
91.7339993744
91.7442666742
91.7245831479
91.6694680727
91.5756108019
91.4374114593
91.2465596061
90.9943650196
90.6808971168
90.3188246812
89.9247743686
91.5083612084
91.6209031517
91.5426624475
91.5391894825
91.5197028895
91.516777931
91.5049245804
91.4803491891
91.4323785336
91.3558448977
91.2473486675
91.1054346646
90.9281232172
90.7118117038
90.4534571728
90.1548651999
89.8280233971
89.4848632014
91.4959067627
91.5918565078
91.4731761619
91.4258143808
91.3615874508
91.3091543629
91.2453571386
91.1671089627
91.066676983
90.9409071534
90.7886985423
90.6106388811
90.4070827021
90.177390969
89.9203078172
89.6384975518
89.3415962564
89.0386283468
91.850486232
91.7546544346
91.5731304229
91.476864573
91.371984981
91.2760343913
91.1687007195
91.0469391285
90.9056615521
90.7431744606
90.5607133949
90.3598221287
90.1427345406
89.9097166131
89.6602822679
89.3968397575
89.1285637491
88.8686547836
90.3579142675
90.8662208622
90.7777024451
90.679121474
90.5521902138
90.4266266106
90.2906604965
90.1388066591
89.9704985499
89.7835307901
89.5816612872
89.3666360285
89.1422848292
88.9074129977
88.6629732055
88.4082913418
88.1501957308
87.8818894775
94.0522468642
92.6075783187
92.2112568419
92.0650156775
91.9287984984
91.7920360861
91.6402233069
91.4726542126
91.2874345748
91.0862429609
90.8706393337
90.6449752558
90.4115945133
90.1723672659
89.925348902
89.6731900982
89.4263112569
89.2277499366
85.534619317
89.2124532258
89.5968574757
89.5389214341
89.3842768155
89.2319444102
89.0598498773
88.8793443272
88.6887329251
88.4885150296
88.2823567487
88.071182799
87.8572814077
87.6400669239
87.419573897
87.1965885417
86.972489453
86.6954633819
101.418402846
94.1841924501
92.9618241971
92.8232790826
92.691588843
92.5354511322
92.3592415173
92.166764516
91.9605066056
91.7440968787
91.5173974056
91.285268171
91.049392389
90.8113055386
90.5685986349
90.3200767646
90.0723415862
89.9181441608
75.3296657232
88.0762627206
89.8837608727
89.7989874453
89.641494575
89.4613986209
89.2550309086
89.036946746
88.8074098793
88.568318005
88.32205213
88.0694052461
87.8126060204
87.5513046845
87.2873474987
87.0289189448
86.7898463148
86.4823244538
113.786382637
95.2143049401
92.3882869733
92.5720125343
92.4086713972
92.2565204924
92.0710982931
91.8881248617
91.70923432
91.5382816662
91.3731732313
91.21046331
91.046107772
90.8776373766
90.7022013362
90.5141006271
90.3079045092
90.2006943513
62.8375909584
86.292749285
90.0089938669
89.5811295749
89.4453626226
89.1951817793
88.9577644115
88.7029399267
88.4447731916
88.1821309477
87.912086887
87.6287373942
87.3283902625
87.0111163071
86.6846466795
86.3703073417
86.1005161231
85.7556683338
115.666808531
95.8738661729
93.4675778077
93.7807414563
93.5490586723
93.3932992653
93.1846668757
92.9850592583
92.7817144072
92.5818568178
92.3810369048
92.1757928866
91.967135678
91.7622301665
91.5756077677
91.4196678578
91.2830773494
91.2736914176
70.3088680359
88.358116654
88.6754149466
88.559158629
88.3076479142
88.1053327983
87.8917596883
87.6739456203
87.4557512387
87.2398761033
87.0252959901
86.8089291722
86.5913421722
86.3734570842
86.1558342672
85.9372331765
85.7112438145
85.3040332831
107.870629772
97.3524715173
96.8334921747
96.5895963066
96.3809794679
96.1438142736
95.909963545
95.6628604822
95.4089160161
95.1501932617
94.8870094706
94.6181876749
94.3442791813
94.0594882221
93.7514127645
93.4015024292
92.9699795225
92.6502152119
83.772012867
83.3763941657
83.3655317399
83.2098957897
83.1835263407
83.13533066
83.0798925883
83.0108815292
82.9272424156
82.8336888127
82.7335217551
82.6322711833
82.5362424649
82.4447288777
82.3462528251
82.2459819465
82.2192463062
82.263768234
82.3235716207
82.3107873583
82.3025639449
82.3019240809
82.3130176224
82.3326678945
82.357628376
82.3804717619
82.3965548656
82.4045035208
82.4082338542
82.4140802478
82.4282286341
82.456481628
82.500749697
82.5629848872
82.6405414266
82.7329242397
82.8352901023
82.9467105758
83.0623106267
83.1817830933
83.3010355659
83.4205221644
83.5371701696
83.651859102
83.7627117276
83.8707859563
83.9749597741
84.0760881025
84.1738939896
84.2689488023
84.3615408029
84.451856694
84.5405565274
84.6274368806
84.7132477634
84.79756546
84.880843732
84.9625579799
85.0427982503
85.1210895933
85.1970088896
85.2703511951
85.3401651414
85.4067443653
85.4686520102
85.5266542325
85.5792360234
85.6274057613
85.6697011667
85.7073252449
85.738974736
85.7654672903
85.7862239327
85.8017337673
85.8117460376
85.8164051104
85.8159072875
85.8100638369
85.7993616323
85.7834903335
85.7633946908
85.740058799
85.7168548926
85.6937129269
85.6699890228
85.644742423
85.6180096479
85.5898816827
85.5609562062
85.531620412
85.5024767576
85.4738445212
85.4461473861
85.4194276562
85.3938653666
85.3692240877
85.3452256032
85.3215352919
85.2975635236
85.2727385719
85.2458632345
85.2159194054
85.1807159833
85.1386561979
85.0869471676
85.023836295
84.9478236644
84.8577278075
84.7558697077
84.6420476178
84.5172485868
84.3823494855
84.2385472486
84.0852844545
83.9211811425
83.7439217998
83.5514787861
83.3414646864
83.1126870504
82.8701518078
82.6268343823
82.3998462799
82.2015030621
82.0437397215
81.9272905364
81.8391023402
81.7534310801
81.63419846
81.46682699
81.2972694359
81.1569485154
81.049635743
80.9722872898
80.9190775467
80.8855919673
80.8683702124
80.8648125708
80.8733807587
80.8925633364
80.9211604365
80.9575820712
81.0008908422
81.0500318711
81.1046901352
81.1640431711
81.2277843632
81.2950071788
81.3654837075
81.4384867097
81.5141866434
81.5925970449
81.6750072211
81.7626082456
81.8574459916
81.9608738013
82.074598245
82.1993912677
82.3360565465
82.4851311545
82.6470377985
82.8220276124
83.0098941583
83.2103932396
83.422760472
83.6464551105
83.8802813701
84.1233127298
84.3737007616
84.6298993431
84.8891087217
85.1489920533
85.4054923749
85.6552404147
85.8923849958
86.1120203784
86.3057038629
86.4663536412
86.5821409424
86.6434331231
86.6344888832
86.5429227481
86.3487091419
86.0366122513
85.5815831909
84.9644769017
84.1530622039
83.1217052385
81.8297410501
80.2461942578
78.3248079147
76.029777466
73.3124981775
70.1402120211
66.4554234366
62.1867702541
57.2247959969
51.4774997364
44.8881215603
82.2748672989
82.265088858
82.2668730978
82.2831414926
82.3085272242
82.3368719857
82.3623686271
82.379886139
82.3891378665
82.3937479677
82.3997352313
82.4132633019
82.4384670069
82.4784323358
82.5330744115
82.6026646303
82.684576858
82.7780723049
82.879734466
82.9888504011
83.1021019763
83.2192140027
83.337350426
83.4564465301
83.5742039185
83.6907350595
83.8042921176
83.9149250706
84.0213001407
84.123267735
84.2199405341
84.310967898
84.3958583227
84.474029082
84.5452627343
84.6089222909
84.6648960835
84.7124975118
84.7516024395
84.7815805719
84.8021613659
84.8129057878
84.8133690215
84.8034104899
84.7824415361
84.7507312051
84.7076674421
84.6538981077
84.588887912
84.5136957669
84.4280704614
84.3329863406
84.2285162174
84.1156515551
83.9948073476
83.8669127318
83.7326683767
83.5927370153
83.4480130212
83.2989919144
83.1467118948
82.9913148645
82.8328910802
82.6686318014
82.4968896096
82.3205670363
82.1428344141
81.9652399905
81.7893182931
81.6162418926
81.447404965
81.2839539837
81.1271010632
80.9776902675
80.8366002935
80.704298707
80.5811271846
80.4671075777
80.3621678814
80.2661722018
80.1789767097
80.1006285431
80.0310964199
79.970770168
79.9197327076
79.8787483484
79.8482045681
79.8292866227
79.8224174681
79.8298665929
79.8523376734
79.8905044205
79.9427759042
80.0065437209
80.0785701556
80.1550212046
80.2305636986
80.2992184226
80.3567981953
80.4015090315
80.4323206111
80.4527107946
80.4739272338
80.5107327787
80.5733974946
80.6709409171
80.8129389774
80.9995208524
81.1801303907
81.3247943194
81.4627981521
81.5886976849
81.6784262403
81.7602347662
81.8415028399
81.9212795131
81.999143544
82.0747261573
82.1483614594
82.2206593681
82.292136866
82.362868452
82.4325924731
82.5010475356
82.5681715494
82.6341026406
82.6990269046
82.7632025238
82.8268705313
82.8904391397
82.9543059092
83.0192611237
83.0863383806
83.1572820182
83.2339200159
83.3177554407
83.409441656
83.5096326028
83.6193243503
83.7395811907
83.8712025184
84.014814632
84.1707155075
84.3388229317
84.5188090342
84.7101220051
84.9121704484
85.1241195322
85.344971098
85.5732622453
85.8072552559
86.0446023406
86.2826324616
86.5178114708
86.7462257459
86.9626323601
87.1613076568
87.3345270655
87.4741481946
87.5692505583
87.6087829457
87.5781035607
87.463149008
87.2451674971
86.9068437072
86.4246460751
85.7769606924
84.9329283605
83.8641481837
82.5321331193
80.9045558608
78.9384036353
76.5984637148
73.8432123274
70.6447439382
66.9535476829
62.6972299978
57.7479629429
52.0255544477
45.4621100575
82.2067539849
82.2079483322
82.2398844745
82.2807075319
82.3080909631
82.3181018124
82.311307106
82.2874440324
82.2498746139
82.2056015898
82.162824706
82.1281489253
82.1047819741
82.0942924312
82.0955056214
82.1079420765
82.1292325136
82.1589218854
82.194664118
82.2363634691
82.2819230391
82.3314372657
82.3830833147
82.4370429056
82.4917650871
82.5474427449
82.602903911
82.6582980166
82.7127810669
82.7664234693
82.8187469275
82.8697440173
82.9192348933
82.9671684
83.0136181796
83.0584157283
83.1017717196
83.1434808258
83.1836615422
83.222088885
83.2587666453
83.2935094792
83.326142781
83.3566143281
83.3845866237
83.4102159046
83.4330481657
83.4534233564
83.4709416984
83.4859841963
83.4982212429
83.5081383356
83.5154332074
83.520449476
83.5231736816
83.5238614285
83.522579225
83.519383765
83.5143815356
83.5075009337
83.4989103019
83.4888104328
83.4788087406
83.4714194762
83.4655615207
83.4587200005
83.4505731735
83.4411161711
83.43003034
83.4166585161
83.4003570036
83.3805251304
83.3566863629
83.3285063843
83.2956798689
83.2579906279
83.2152494475
83.1672169573
83.1136633425
83.0543726274
82.9891158228
82.9176897635
82.8398587187
82.7554578805
82.6642987332
82.5665447049
82.462675455
82.3536520106
82.2417165004
82.129594499
82.0220269536
81.9233937147
81.8366849285
81.7633469116
81.702279823
81.6514012416
81.6057244394
81.5582469154
81.502281299
81.4318468197
81.3390850443
81.2233698088
81.095917867
80.9640627327
80.8315753234
80.7296407381
80.7117664665
80.7549428174
80.8064833389
80.9100010286
81.1144205414
81.3113147898
81.4284081331
81.4900279492
81.5249465152
81.5479240018
81.5672830494
81.5871953475
81.6103068831
81.6380015283
81.670936169
81.7086881945
81.7505945933
81.7956825802
81.8435692825
81.8938679075
81.946787118
82.0024195453
82.0613321679
82.1238720914
82.1909467034
82.2632181494
82.3415368037
82.4262281803
82.5175994304
82.6158236465
82.721789577
82.8369583209
82.9628692535
83.1004868936
83.2505643267
83.4136241136
83.5898376336
83.7789193817
83.9802591176
84.1930554133
84.4164452313
84.6493274997
84.8904223598
85.1379825668
85.3900777649
85.6441487163
85.8974732943
86.146395811
86.3871490183
86.6145258506
86.8231615167
87.0054962687
87.1539066592
87.2577259352
87.3064385258
87.28566014
87.1818828426
86.9767113624
86.6533719737
86.1887311083
85.5612703214
84.7403546598
83.6972890639
82.3927538085
80.7911671216
78.8465728099
76.5210941301
73.7725240155
70.5692939075
66.8634739232
62.6014843044
57.7025363184
52.1061628781
45.7525378826
82.1657626694
82.135258165
82.2083164398
82.2871747599
82.323401119
82.3315942052
82.3252420115
82.3051595277
82.2730446673
82.2352393288
82.1994980548
82.1717861141
82.1544989717
82.1485490618
82.1525841715
82.1660914045
82.1871130439
82.2153696812
82.2490784998
82.2881903716
82.3310258684
82.3775809825
82.4262717368
82.4770136507
82.5283893646
82.5802889433
82.6315000777
82.6819210165
82.730596326
82.7774585582
82.8218171736
82.8636666896
82.9026313887
82.9387042201
82.9717357089
83.001772412
83.0287707253
83.0526982179
83.0735848554
83.0913376086
83.1059159443
83.1172358445
83.1251691304
83.1296976577
83.130610728
83.1279926415
83.1216016197
83.1115993025
83.0976772201
83.0801109203
83.0586454391
83.0334437269
83.0043790598
82.9716357481
82.93510304
82.8949309462
82.8511343375
82.8037382873
82.7528006534
82.6982850844
82.6403234267
82.5783629648
82.5111697401
82.438345696
82.3629765372
82.2859563178
82.2077634459
82.1291377877
82.0512895566
81.9752880617
81.9021807087
81.8328510285
81.7680481867
81.7082875129
81.6539382796
81.6051337057
81.5617581955
81.5235885151
81.4902463337
81.4613283936
81.4363680845
81.4149432025
81.3965525611
81.380727726
81.3668609319
81.3543802765
81.3425686717
81.3309878231
81.3193049674
81.3088803026
81.3020105603
81.3017824577
81.3109639451
81.3312625767
81.3630378893
81.4055780574
81.4557146215
81.5072528313
81.5515526684
81.5764357878
81.5692319479
81.5257597724
81.4447781026
81.3144798909
81.1464732091
80.9957155454
80.8887422147
80.7832913761
80.7029198812
80.770922149
80.9886789474
81.2076574169
81.3618119599
81.4650886463
81.5413390857
81.6050116458
81.6639889559
81.7219644108
81.7807739285
81.8412402625
81.9034837948
81.9669683375
82.0309358413
82.0946895853
82.1579303297
82.2206107201
82.2830631257
82.345685849
82.4091085772
82.4738926219
82.5408511942
82.6104625167
82.683298849
82.7595929209
82.8399657204
82.9254970889
83.0182298897
83.12015105
83.2326597507
83.3567860697
83.4933666401
83.6431445692
83.8063813096
83.983011159
84.1724977387
84.3742768385
84.5874979189
84.8112616393
85.0442406333
85.284925322
85.5312485814
85.7808628451
86.030790832
86.2776041856
86.5170874682
86.7442936911
86.9533426823
87.137073943
87.2871798592
87.3934639117
87.4445905653
87.4268395918
87.3257443304
87.1239682692
86.8038365814
86.343624706
85.7209056602
84.9070528929
83.8723518663
82.5788057792
80.9870053862
79.0505564345
76.7270517756
73.9708468664
70.7420234396
66.9920585785
62.6897516836
57.8234805429
52.3597927014
46.2780303134
82.2069449475
81.9992113144
82.1036928231
82.2339594766
82.2869077074
82.305553515
82.3135081321
82.3082170154
82.2885577446
82.260117521
82.2301554085
82.2039624634
82.1837535007
82.1705150513
82.1635745362
82.162878244
82.1672744616
82.1767834598
82.1902675197
82.2078224256
82.2283454712
82.2518594327
82.2772943585
82.3046005802
82.3327574481
82.3616615222
82.3904061102
82.4188903851
82.4463331973
82.4726931133
82.4973698217
82.5204202328
82.5414106212
82.560538542
82.5775780477
82.5927170017
82.6059186409
82.6173734135
82.6270874744
82.6352097996
82.641795507
82.6469664794
82.650781057
82.6533849833
82.6548318551
82.6553142414
82.654857854
82.6536755172
82.6518039199
82.6493900049
82.6464296959
82.643141373
82.639465316
82.6355685178
82.6314612051
82.627287219
82.6230382402
82.6187944913
82.6145336081
82.6102537359
82.6060623144
82.6026595454
82.600666304
82.5978939763
82.5920856296
82.5823180555
82.5682040261
82.5493326427
82.525603969
82.4970421002
82.4640136767
82.426999083
82.3867187866
82.3439502539
82.2994245422
82.2537491799
82.2073789252
82.1604925819
82.1130659503
82.0648686141
82.0155189083
81.9645343661
81.9113859389
81.8555577869
81.7966205504
81.7342584786
81.6683854058
81.5991267211
81.5272915275
81.4546408676
81.3852543663
81.3233051225
81.2729650734
81.2374776435
81.2209378782
81.2264481708
81.2541724258
81.2997627412
81.3562887733
81.4125626861
81.4589703791
81.4865549103
81.4773319106
81.4180831657
81.3397349165
81.2722694124
81.1647583859
80.9840811302
80.8515779923
80.889367316
81.0505795583
81.2205756962
81.3528692037
81.4486073774
81.5198875252
81.5767977632
81.6262511567
81.6727641601
81.7191425914
81.7673613908
81.8181648152
81.8717722651
81.9276068194
81.9853749994
82.0445468302
82.105183955
82.167146736
82.2308568145
82.2964480246
82.3645116585
82.4351574653
82.5090635245
82.5866132834
82.6685618897
82.7554426637
82.8484610825
82.9488469367
83.0580811347
83.1772379448
83.3071922715
83.4487141687
83.602377413
83.7685302282
83.9470498227
84.1376509528
84.3396899763
84.5525100595
84.775092919
85.0063419697
85.2446660641
85.4882754313
85.7347479046
85.9814199604
86.2248316146
86.4610816975
86.6851429508
86.8914051625
87.0726815757
87.2209001234
87.3257684412
87.3760629437
87.357931137
87.2568480769
87.0553430394
86.735640266
86.2760423552
85.6542158206
84.8419913604
83.8099554274
82.5207718452
80.9345784622
79.0050210052
76.6876943643
73.9349554663
70.7017437824
66.9389518101
62.6246539479
57.7811471704
52.3971237825
46.4807886558
82.2806790717
81.715033541
81.9044884838
82.1280193677
82.2085244206
82.2429838121
82.2665220457
82.2756273669
82.2695818141
82.2540396217
82.2352450668
82.2173091574
82.2020293241
82.1903695095
82.1822139336
82.1778135648
82.1766160554
82.1787799253
82.1836463642
82.1913160983
82.2010846473
82.2129784427
82.2262746112
82.2409025888
82.2561597597
82.2719247412
82.2875088512
82.3027963461
82.3171450866
82.3305121016
82.342321236
82.3526586468
82.361101278
82.3678234384
82.3725469443
82.3755645821
82.3767066905
82.3762367806
82.3741222752
82.3705694024
82.3655987183
82.359375714
82.3519707751
82.3435287309
82.3341602102
82.3239950254
82.3131715312
82.3017797205
82.28990569
82.2776244882
82.2649794858
82.2519513433
82.2385646967
82.2248319381
82.2107059633
82.1962089985
82.181252097
82.1657563956
82.1494520946
82.1320427309
82.1128962766
82.0910630925
82.0670614834
82.042879798
82.0194212032
81.9968364908
81.9752135778
81.9543929451
81.9341904083
81.914269701
81.8943704972
81.874271078
81.8538938494
81.8332325693
81.812447601
81.7917225731
81.771233282
81.7511466906
81.731548479
81.7124254954
81.6936549299
81.6749876967
81.6560603031
81.6363753806
81.6153662151
81.5923220043
81.5664920589
81.5371034853
81.5032261499
81.4651716546
81.4239234762
81.3817723012
81.339721963
81.2997572971
81.2649243701
81.2394965706
81.2267135929
81.2296712892
81.2515882758
81.2919513101
81.345163071
81.3951998387
81.4244868604
81.4409286362
81.4689201238
81.4737340367
81.373230652
81.1946662169
81.0730637933
81.0789478847
81.1681142108
81.2759776164
81.3736975237
81.4552876625
81.5236927554
81.5834135133
81.6386273077
81.6922762394
81.7462794452
81.8016512947
81.858548369
81.9165576687
81.9750267393
82.0334686333
82.0915941955
82.1494672245
82.2073011947
82.2656132489
82.3249467319
82.3860750417
82.4497691787
82.5171059461
82.5888603544
82.6658912521
82.7487716059
82.8384741388
82.936313405
83.0437780312
83.1619277088
83.2915229942
83.433192513
83.5873751793
83.7543193267
83.9339224974
84.1258932234
84.3296442472
84.5444652867
84.7693540913
85.0031162804
85.2441730453
85.4906186968
85.7400717883
85.989704476
86.2361298021
86.4753072135
86.7023649827
86.9114144476
87.0954328306
87.2459695849
87.3530199385
87.4048400771
87.3879557096
87.287127943
87.0853438125
86.7638397217
86.3014839678
85.6748772782
84.8568802676
83.8173230601
82.5208232853
80.9279354067
78.9951534587
76.6782336667
73.9319252582
70.7105324856
66.9659658374
62.6709367634
57.8392902312
52.4609991396
46.5445638384
82.2871960621
81.2659269114
81.6661821586
82.0079904319
82.1013244076
82.1413525817
82.1713685785
82.1893364247
82.1946856689
82.1917364944
82.1847818221
82.1764060802
82.1679239093
82.1601521164
82.15336652
82.1479724637
82.1438994507
82.1414111447
82.1402652307
82.1406266752
82.1421559104
82.1449035135
82.1484738154
82.1528423308
82.1575681305
82.1625757488
82.1674064396
82.1719853209
82.1758464606
82.1789816186
82.1809723444
82.1819233596
82.1814742969
82.1798875694
82.1769231936
82.172882157
82.1676635403
82.1615897963
82.154620031
82.1470300354
82.1388556961
82.1303051105
82.1214724361
82.1125170118
82.1035878218
82.094805132
82.0863455569
82.0782844564
82.0708074997
82.0639163452
82.057742428
82.0523061271
82.0476538979
82.0437864924
82.0407282598
82.0385248271
82.0371679844
82.0366531253
82.0367674037
82.0373772786
82.0385369702
82.0401690842
82.0408912695
82.0397133169
82.036418668
82.0307774786
82.0225455821
82.0115012333
81.9976219734
81.9810094096
81.9620186594
81.9410877455
81.9187809853
81.8956502778
81.8721558185
81.8486338168
81.825290824
81.8021414362
81.7790682153
81.7558328391
81.7321102255
81.7075392176
81.6817669776
81.6544674408
81.6254798345
81.5947984653
81.5627433036
81.529583478
81.4962044085
81.4640314726
81.4351457312
81.4106109211
81.3874437016
81.3636676468
81.3376461213
81.3114857546
81.2888013127
81.2780718841
81.2874580085
81.3152989166
81.3518330092
81.3831181356
81.4064588318
81.4504549508
81.5204941558
81.5460164539
81.467077215
81.3342297476
81.2415822252
81.2240685496
81.259716381
81.3193062156
81.3855235199
81.4497589158
81.5093613227
81.5643484796
81.6161940263
81.6663378464
81.7162632296
81.7667816007
81.8185153553
81.871388407
81.9255529137
81.9808017758
82.0373906853
82.0952472998
82.1547813916
82.2160547392
82.2796380155
82.3457480971
82.4151119177
82.4879259232
82.5648089314
82.6460153538
82.7325753683
82.8255587039
82.92666192
83.0372883793
83.1584524221
83.2908702715
83.435033017
83.5913725458
83.7600083506
83.9409428535
84.1338097062
84.3381870777
84.5533168497
84.7783697308
85.0121128338
85.2531272242
85.4994858843
85.7489579127
85.9986937766
86.2453883534
86.4849954096
86.712720447
86.9226885914
87.1078274931
87.2596501966
87.3680394979
87.4212412612
87.4055848122
87.3057743356
87.1044352911
86.7825112055
86.3183213639
85.688004892
84.863950771
83.8158228378
82.5088400545
80.905397202
78.964388362
76.6444062542
73.9032721835
70.6996036671
66.9859208826
62.7255171954
57.8990575511
52.4842503047
46.4692812776
82.150716816
80.7110760275
81.445054916
81.8770086157
81.9568918373
81.9979712987
82.0314657475
82.0578660811
82.0737721357
82.0820045387
82.0854020104
82.0857091758
82.0841170015
82.0814140529
82.0781427172
82.0747788698
82.0715520881
82.0687688466
82.0664559391
82.0647777886
82.0636078741
82.0630034885
82.0627453017
82.0628106661
82.0629357777
82.0630709722
82.062910245
82.0624202895
82.061285101
82.059534739
82.056858232
82.0533894538
82.0488866654
82.0435606516
82.0372387478
82.0302220257
82.0223916579
82.0140295735
82.0050952931
81.9958097216
81.9861675878
81.9763201465
81.9663071966
81.9562191923
81.9461471347
81.9361363516
81.9263261031
81.9167293127
81.9074984825
81.8986538196
81.8903572564
81.8826185983
81.8755588551
81.8691807279
81.8634941983
81.8585444657
81.8543954908
81.8511419831
81.8485530766
81.8461272971
81.8429792299
81.8392934212
81.8354625416
81.8317118432
81.8282586982
81.8251593233
81.8220562131
81.8182003731
81.8127992453
81.8052140231
81.7952181384
81.782984816
81.7690248606
81.7540023876
81.7386450826
81.7235678731
81.7091873209
81.6956998204
81.6830460973
81.670935643
81.6589239632
81.6464751418
81.6329251651
81.617561532
81.5995647284
81.5782789796
81.5533735623
81.5251555014
81.4949700837
81.4667118169
81.4448156188
81.43219365
81.4268523949
81.4253945239
81.4256022815
81.4285994041
81.4358212988
81.446980659
81.4605982989
81.4649828842
81.4447200738
81.4059428178
81.3884602135
81.4310565608
81.5086715558
81.5444637786
81.5025468858
81.4235384456
81.3620927245
81.3390021652
81.3500809475
81.3849341487
81.4334700847
81.4878301028
81.5433876804
81.5981843436
81.6519679517
81.7052889183
81.7588954001
81.8133112511
81.8687242747
81.9250110412
81.9819799592
82.0393715953
82.09707833
82.1550077032
82.2133117941
82.2721769369
82.332103077
82.3936065085
82.4574789259
82.524364591
82.5951854463
82.6708408803
82.7526230055
82.8418073323
82.939878083
83.0481393992
83.1674142949
83.2982751195
83.4411173389
83.5962837188
83.7638907846
83.9439056839
84.1359997237
84.3397236756
84.5543641422
84.7790573372
85.0126174296
85.2535825821
85.5000891349
85.7498700946
86.000178133
86.2476680696
86.488390373
86.7174805029
86.9292037392
87.116402197
87.2707291201
87.3819125535
87.4383492229
87.4261394962
87.3300985413
87.1324107108
86.8139229776
86.3522582584
85.7232689486
84.8985063873
83.8474656586
82.5353658235
80.9261466937
78.9806168322
76.6599015974
73.925047733
70.7390565304
67.0558268127
62.8283228636
58.0039183036
52.5402247095
46.4032350497
81.8600763651
80.146576223
81.2506986774
81.707609171
81.7665512562
81.8177934945
81.8575040623
81.8945187076
81.9197623675
81.9371863994
81.9488412804
81.9563357876
81.9609926275
81.9636040216
81.9648839928
81.9653186602
81.9652992728
81.9651170957
81.9649252135
81.9648606597
81.9649072604
81.9650856385
81.9652800649
81.9654753461
81.9655044915
81.9653513924
81.9648370911
81.963972978
81.9625653239
81.9606815054
81.9581422566
81.9550832642
81.9513374438
81.9471213045
81.9423082341
81.9371205721
81.9314820175
81.9256052556
81.9194208728
81.9130826861
81.9065440627
81.8998798759
81.8930669111
81.8861137756
81.8790314496
81.8717821175
81.8644158954
81.856882885
81.8492983006
81.8416525625
81.834143598
81.8268676165
81.8200423506
81.8137748535
81.8082396593
81.8036133384
81.800213855
81.7985502983
81.7989725673
81.8010826237
81.8032469729
81.8037850208
81.8017315675
81.7973060715
81.791490424
81.7853286604
81.7792792248
81.7730768611
81.7660333167
81.7574035145
81.7467575746
81.7340585217
81.7196804254
81.7042766641
81.6885492237
81.6731957216
81.6587375425
81.6455038923
81.6335102381
81.6225244995
81.6121600778
81.6021014193
81.5919395869
81.5811166673
81.5689135214
81.554283861
81.5366866997
81.5157750474
81.4935962541
81.4741305851
81.4642399157
81.4677000478
81.4852954352
81.5145636386
81.5522679736
81.594900925
81.6360473449
81.6587936451
81.6417413054
81.5728383338
81.467218216
81.3726524659
81.3455868092
81.4013787383
81.489298374
81.5407058723
81.5337615844
81.4944075443
81.4547623239
81.4314638263
81.4292393081
81.4462763337
81.4771924179
81.5162180367
81.5589461939
81.6029620911
81.6472047522
81.6917391441