/*--------------------------------*- C++ -*----------------------------------*\
| =========                 |                                                 |
| \\      /  F ield         | OpenFOAM: The Open Source CFD Toolbox           |
|  \\    /   O peration     | Version:  v1806                                 |
|   \\  /    A nd           | Web:      www.OpenFOAM.com                      |
|    \\/     M anipulation  |                                                 |
\*---------------------------------------------------------------------------*/
FoamFile
{
    version     2.0;
    format      ascii;
    class       surfaceScalarField;
    location    "18";
    object      phi;
}
// * * * * * * * * * * * * * * * * * * * * * * * * * * * * * * * * * * * * * //

dimensions      [0 3 -1 0 0 0 0];
oriented        oriented;


internalField   nonuniform List<scalar> 
24170
(
3.07350726478e-06
1.1489923503e-07
2.98659630462e-06
8.69114094156e-08
2.9066433944e-06
7.99534981138e-08
2.82965090136e-06
7.69931671966e-08
2.75583836004e-06
7.38131553268e-08
2.68533705967e-06
7.05018908447e-08
2.61799994891e-06
6.73377079821e-08
2.55360667183e-06
6.43938161847e-08
2.49192713461e-06
6.16800918781e-08
2.43272115059e-06
5.92064758291e-08
2.37572975794e-06
5.69919093279e-08
2.32066582167e-06
5.50643966535e-08
2.26720050243e-06
5.34657913961e-08
2.21493586768e-06
5.22650682692e-08
2.16334492389e-06
5.15913840311e-08
2.11160428222e-06
5.17410575608e-08
2.05793489424e-06
5.36698053582e-08
6.06402421914e-08
1.99729502875e-06
3.43160791679e-06
1.00540716251e-07
3.42656978663e-06
9.19499629496e-08
3.4197004468e-06
8.68233880266e-08
3.40983417729e-06
8.68600818462e-08
3.39744564811e-06
8.62022773435e-08
3.38318590446e-06
8.47622137997e-08
3.36741459917e-06
8.31095811124e-08
3.35034990716e-06
8.1459032805e-08
3.3321464396e-06
7.98840749674e-08
3.31290436339e-06
7.84490226843e-08
3.29266545173e-06
7.72312880619e-08
3.27140746708e-06
7.6322811475e-08
3.24903289733e-06
7.58407831089e-08
3.22534247609e-06
7.59558897807e-08
3.19997646024e-06
7.69577940673e-08
3.17230490482e-06
7.94129906234e-08
3.14137265708e-06
8.46024207487e-08
9.40446920648e-08
3.10796852791e-06
3.6800259344e-06
8.30319681818e-08
3.68446410571e-06
8.75122150295e-08
3.68717078277e-06
8.41172332844e-08
3.68877691437e-06
8.52545042049e-08
3.68905963943e-06
8.59200606906e-08
3.68823133315e-06
8.55909946012e-08
3.6864200407e-06
8.49213435488e-08
3.68366248057e-06
8.42170166914e-08
3.67996437483e-06
8.35826022684e-08
3.67531253979e-06
8.31012369342e-08
3.66966976332e-06
8.28744465036e-08
3.66296779658e-06
8.30251260326e-08
3.65509840397e-06
8.37105173484e-08
3.64589976165e-06
8.51548497919e-08
3.6351429098e-06
8.77149537703e-08
3.62256187831e-06
9.19943093012e-08
3.60812555864e-06
9.90390019948e-08
1.09323274405e-07
3.59284717135e-06
3.93973435187e-06
6.86862841955e-08
3.94583767426e-06
8.14093135012e-08
3.94936333347e-06
8.0592097788e-08
3.95220109723e-06
8.24173198082e-08
3.95414872112e-06
8.39729856423e-08
3.95529753608e-06
8.44427112272e-08
3.95576658556e-06
8.44528103814e-08
3.95558918158e-06
8.43949036981e-08
3.95475534887e-06
8.44168989963e-08
3.95323529848e-06
8.46217206468e-08
3.95098142938e-06
8.51287321412e-08
3.94792591793e-06
8.60810281807e-08
3.94397895235e-06
8.76578567109e-08
3.93903028239e-06
9.01038748734e-08
3.93296700379e-06
9.37785704261e-08
3.92574657808e-06
9.9215047991e-08
3.91762145879e-06
1.07164389699e-07
1.17859485256e-07
3.90908549815e-06
4.21855081392e-06
5.72628575763e-08
4.22511913409e-06
7.48414181216e-08
4.22876485573e-06
7.69468727862e-08
4.23168868697e-06
7.9493985901e-08
4.23386334708e-06
8.17987945553e-08
4.23528956063e-06
8.30169308704e-08
4.23606987104e-06
8.36729271247e-08
4.236250063e-06
8.42151018676e-08
4.23582861381e-06
8.48387322971e-08
4.23478290836e-06
8.56677804383e-08
4.23307646971e-06
8.68355207857e-08
4.230659859e-06
8.849796543e-08
4.22747392393e-06
9.08441083481e-08
4.22346067229e-06
9.41174245808e-08
4.21859394116e-06
9.86455833719e-08
4.21295146231e-06
1.04857777701e-07
4.20685796468e-06
1.13258110188e-07
1.23995695577e-07
4.20072191067e-06
4.51816429424e-06
4.81859983402e-08
4.52474276443e-06
6.82633774421e-08
4.52854655058e-06
7.31435840235e-08
4.53150356542e-06
7.65374981491e-08
4.53377703999e-06
7.95258233545e-08
4.53531769678e-06
8.14767645345e-08
4.53619635805e-06
8.27947333788e-08
4.53646402451e-06
8.39478839011e-08
4.53612774625e-06
8.51754318655e-08
4.53517259422e-06
8.66233374989e-08
4.53357321609e-06
8.84352763071e-08
4.53129822528e-06
9.07733175069e-08
4.52831718085e-06
9.38254890864e-08
4.52461654637e-06
9.78183788556e-08
4.52023319377e-06
1.03029227147e-07
4.51531394334e-06
1.09777286472e-07
4.5102022306e-06
1.18370016917e-07
1.28846570507e-07
4.50535155058e-06
4.83992521792e-06
4.09810104618e-08
4.8462246251e-06
6.19644004191e-08
4.85016604834e-06
6.92026282152e-08
4.85315529647e-06
7.35487135469e-08
4.85549406779e-06
7.71874841029e-08
4.85712926318e-06
7.98419804328e-08
4.85809851764e-06
8.18258683897e-08
4.85845022766e-06
8.35965473359e-08
4.85819816547e-06
8.54278478874e-08
4.85733487063e-06
8.7486974848e-08
4.85584598466e-06
8.99244865217e-08
4.85371806213e-06
9.29015520147e-08
4.85094819607e-06
9.65956519738e-08
4.84756175776e-06
1.01205099169e-07
4.84364304176e-06
1.06948198713e-07
4.83937887336e-06
1.14041669408e-07
4.83510378328e-06
1.2264529056e-07
1.32703058752e-07
4.83124749829e-06
5.18531879481e-06
3.52434802254e-08
5.19116469759e-06
5.61189276335e-08
5.19518428845e-06
6.51835122768e-08
5.19822122358e-06
7.05122559412e-08
5.2006280043e-06
7.47811699743e-08
5.20237220616e-06
7.80982211811e-08
5.20346239794e-06
8.07361094759e-08
5.20393738061e-06
8.31219694166e-08
5.20381566801e-06
8.55499564722e-08
5.20309853568e-06
8.82044718059e-08
5.20178439922e-06
9.12389754151e-08
5.19987902575e-06
9.48072508173e-08
5.19740650582e-06
9.90684817187e-08
5.19442617532e-06
1.04185709387e-07
5.19105738309e-06
1.10317247545e-07
5.18750796805e-06
1.17591286869e-07
5.18409377403e-06
1.26059656953e-07
1.35594775303e-07
5.18120227631e-06
5.55593340629e-06
3.0647783188e-08
5.56124322756e-06
5.08095288024e-08
5.56526801886e-06
6.11591642431e-08
5.56836058699e-06
6.74201209444e-08
5.5708418013e-06
7.23003654067e-08
5.57270515874e-06
7.62352526579e-08
5.57393997729e-06
7.95016612184e-08
5.57457344103e-06
8.24888609339e-08
5.57462792659e-06
8.54958096627e-08
5.57411506544e-06
8.87176582562e-08
5.57304766822e-06
9.23066752838e-08
5.57145100827e-06
9.6404205765e-08
5.56937394739e-06
1.01145818734e-07
5.56690338132e-06
1.06656539334e-07
5.56418185691e-06
1.13038998627e-07
5.56142293714e-06
1.20350383811e-07
5.55891306493e-06
1.28569748149e-07
1.37533121837e-07
5.5569749587e-06
5.95349175963e-06
2.69324499185e-08
5.95825038817e-06
4.6051337182e-08
5.96221287204e-06
5.71971347248e-08
5.96536111647e-06
6.42723309121e-08
5.9679299197e-06
6.97319999708e-08
5.96993060211e-06
7.42349959916e-08
5.97134300807e-06
7.80896595288e-08
5.9721832709e-06
8.16489920803e-08
5.9724759315e-06
8.52035163969e-08
5.97224267377e-06
8.89512588651e-08
5.97151051028e-06
9.30391697674e-08
5.97032264447e-06
9.7592388294e-08
5.96874871898e-06
1.02720027341e-07
5.96689581139e-06
1.08509718096e-07
5.96491908514e-06
1.15015947756e-07
5.96302733991e-06
1.22242321329e-07
5.96147593076e-06
1.30121351016e-07
1.38473788087e-07
5.96053557368e-06
6.37985357554e-06
2.38913331138e-08
6.38409201379e-06
4.18133431724e-08
6.38794394101e-06
5.33456698208e-08
6.39114539846e-06
6.10713233466e-08
6.39382130969e-06
6.70565253288e-08
6.39598572243e-06
7.20709963751e-08
6.39761502063e-06
7.64607642571e-08
6.39871627901e-06
8.05481124631e-08
6.39931466615e-06
8.46054931045e-08
6.39944079442e-06
8.88254703079e-08
6.39913490055e-06
9.33453955255e-08
6.3984558569e-06
9.82717291893e-08
6.39748955932e-06
1.03686632805e-07
6.39635605254e-06
1.0964348855e-07
6.39521420508e-06
1.16158040699e-07
6.3942601655e-06
1.23196543589e-07
6.39371513002e-06
1.30666644907e-07
1.38395332213e-07
6.39379392566e-06
5.74301064078e-06
2.17154522943e-08
5.74623445663e-06
3.85899948057e-08
5.74938454229e-06
5.01960574756e-08
5.75213101668e-06
5.83253019083e-08
5.75449453807e-06
6.46934481261e-08
5.75647734955e-06
7.00885979645e-08
5.75805847529e-06
7.48800414254e-08
5.7592388106e-06
7.9368148476e-08
5.76003921574e-06
8.38054357585e-08
5.76049103704e-06
8.83739659686e-08
5.76063682821e-06
9.31999077254e-08
5.76053575618e-06
9.83731457031e-08
5.76026864636e-06
1.03953955296e-07
5.75994145982e-06
1.09970979951e-07
5.75968553603e-06
1.16414121432e-07
5.75965371383e-06
1.23228587652e-07
5.76001005494e-06
1.30310491852e-07
1.37491515369e-07
5.7609142487e-06
7.00029754718e-06
1.95736840906e-08
7.00363496498e-06
3.52529970789e-08
7.00711706128e-06
4.67143795725e-08
7.01030914027e-06
5.51336467289e-08
7.01315144769e-06
6.18515367446e-08
7.01562677374e-06
6.76136700678e-08
7.01770920106e-06
7.2797978884e-08
7.01939597881e-06
7.76817275197e-08
7.02071044067e-06
8.24912911481e-08
7.02169335847e-06
8.73913622786e-08
7.02240134774e-06
9.24922872082e-08
7.02291017624e-06
9.78645623891e-08
7.02331835014e-06
1.03546129088e-07
7.02374774653e-06
1.09541729241e-07
7.02434158176e-06
1.15820569899e-07
7.02525689425e-06
1.22313338383e-07
7.02665324622e-06
1.28914550351e-07
1.35472334645e-07
7.02867257019e-06
8.53294771601e-06
1.74733507931e-08
8.53638052653e-06
3.18205918255e-08
8.54020594171e-06
4.2889367949e-08
8.54391829578e-06
5.14216521945e-08
8.54736949394e-06
5.8400726691e-08
8.55050905327e-06
6.44744420336e-08
8.55330223228e-06
7.00051626026e-08
8.55574185413e-06
7.52424000699e-08
8.55785271656e-06
8.03807528015e-08
8.55968421507e-06
8.55601766233e-08
8.56130638325e-06
9.08704880078e-08
8.56281025044e-06
9.63610297358e-08
8.56430850666e-06
1.02048143315e-07
8.56593380093e-06
1.07916715047e-07
8.56783334399e-06
1.139211701e-07
8.57016060821e-06
1.19986378371e-07
8.57306276755e-06
1.26012462476e-07
1.31869621163e-07
8.57666601244e-06
1.04013058568e-05
1.53868259135e-08
1.0404866587e-05
2.82602589133e-08
1.04090905013e-05
3.86658181005e-08
1.0413442806e-05
4.70697362644e-08
1.04176945647e-05
5.41492781983e-08
1.04217510647e-05
6.04183161337e-08
1.04255622691e-05
6.61942230176e-08
1.04291147838e-05
7.16902346245e-08
1.04324325197e-05
7.70632392124e-08
1.04355705366e-05
8.24226233381e-08
1.04386081611e-05
8.78331208711e-08
1.04416466495e-05
9.33230393967e-08
1.04448055535e-05
9.88894182623e-08
1.04482192988e-05
1.04503390132e-07
1.045202893e-05
1.10111637229e-07
1.04563740804e-05
1.15641563674e-07
1.04613813764e-05
1.21005326809e-07
1.26098170805e-07
1.0467152988e-05
1.26789433816e-05
1.32337228636e-08
1.26827535631e-05
2.44504750197e-08
1.2687530467e-05
3.38893046274e-08
1.26927430898e-05
4.18574563346e-08
1.26980997162e-05
4.87930296558e-08
1.27034561355e-05
5.50621908406e-08
1.27087393764e-05
6.09113509254e-08
1.27139247679e-05
6.65050684386e-08
1.27190309025e-05
7.19575456665e-08
1.2724111156e-05
7.7342594112e-08
1.27292464796e-05
8.26983904843e-08
1.27345372891e-05
8.8032387374e-08
1.27400995925e-05
9.33277245261e-08
1.27460559169e-05
9.8547100397e-08
1.27525302595e-05
1.0363790544e-07
1.27596361431e-05
1.08535551507e-07
1.27674721918e-05
1.13169940854e-07
1.17461714211e-07
1.27761083422e-05
1.54555584554e-05
1.08556309204e-08
1.54598814191e-05
2.01279066452e-08
1.54655410529e-05
2.82300737169e-08
1.54720174916e-05
3.53814044744e-08
1.54789717697e-05
4.1839134308e-08
1.54862101542e-05
4.78241782769e-08
1.54936282445e-05
5.34936136164e-08
1.55011820227e-05
5.89516481898e-08
1.55088751682e-05
6.42647391599e-08
1.55167489281e-05
6.94692744908e-08
1.55248714551e-05
7.45762162814e-08
1.5533329047e-05
7.95752645542e-08
1.55422173598e-05
8.4439708437e-08
1.55516345021e-05
8.9130433406e-08
1.5561672342e-05
9.36002674524e-08
1.55724107834e-05
9.77975701905e-08
1.55839101051e-05
1.01670658046e-07
1.05165243168e-07
1.55962071063e-05
1.88405157484e-05
7.97768185088e-09
1.88458347489e-05
1.48093414746e-08
1.88529872672e-05
2.10779914025e-08
1.88614286287e-05
2.6940492861e-08
1.88707677635e-05
3.2500420914e-08
1.88807582435e-05
3.78341530468e-08
1.88912548445e-05
4.29974037663e-08
1.89021820263e-05
4.80249298709e-08
1.89135153941e-05
5.29317303415e-08
1.89252690921e-05
5.77160882323e-08
1.89374825472e-05
6.2363091333e-08
1.89502108874e-05
6.68474806768e-08
1.89635142561e-05
7.11366132536e-08
1.89774521408e-05
7.51931382718e-08
1.89920746237e-05
7.89779568997e-08
1.90074201177e-05
8.24526958075e-08
1.9023508356e-05
8.55823824263e-08
8.83330173514e-08
1.90403412713e-05
2.29672431149e-05
4.07224857277e-09
2.29744519242e-05
7.60105081615e-09
2.29841986045e-05
1.13318720972e-08
2.29958049557e-05
1.53346655556e-08
2.3008786836e-05
1.95190862029e-08
2.3022832369e-05
2.37891481083e-08
2.30377438692e-05
2.80864223867e-08
2.30533997078e-05
3.23696476454e-08
2.30697329082e-05
3.65990001041e-08
2.30867158149e-05
4.07337748743e-08
2.31043445743e-05
4.47347383436e-08
2.31226286751e-05
4.85640392243e-08
2.31415800212e-05
5.21855951321e-08
2.3161208591e-05
5.55652709912e-08
2.31815144371e-05
5.8672315062e-08
2.32024876787e-05
6.14802196965e-08
2.32241020145e-05
6.39680215597e-08
6.61182584047e-08
2.32463176097e-05
1.68141777295e-05
5.99861179811e-10
1.68204608941e-05
1.31845223842e-09
1.68287842462e-05
3.00889127811e-09
1.68385330805e-05
5.58647932126e-09
1.68493319997e-05
8.72046734803e-09
1.68609584564e-05
1.21634373467e-08
1.68732634986e-05
1.57815966381e-08
1.68861475189e-05
1.94864155098e-08
1.68995462971e-05
2.32003391892e-08
1.69134228245e-05
2.68580505955e-08
1.69277520701e-05
3.04055623932e-08
1.694251779e-05
3.379914758e-08
1.69577028718e-05
3.70005055002e-08
1.69732912671e-05
3.99777439472e-08
1.69892599673e-05
4.27035595828e-08
1.70055835411e-05
4.51575551301e-08
1.70222268644e-05
4.73245028208e-08
4.91940337411e-08
1.70391519976e-05
1.46382823399e-05
-3.11338726471e-09
1.46448505889e-05
-5.24938704715e-09
1.46532488394e-05
-5.38882622256e-09
1.46628045821e-05
-3.96885335451e-09
1.46732090703e-05
-1.68341083198e-09
1.46842982181e-05
1.07462566055e-09
1.46959519105e-05
4.12859006308e-09
1.4708085102e-05
7.35346823892e-09
1.47206451305e-05
1.06409648294e-08
1.47335968184e-05
1.39065866002e-08
1.47469139524e-05
1.70890700516e-08
1.47605717447e-05
2.01415301905e-08
1.47745468312e-05
2.30260885276e-08
1.47888133626e-05
2.57113430403e-08
1.48033450415e-05
2.81725884442e-08
1.48181116523e-05
3.03909738791e-08
1.48330830393e-05
3.23538657975e-08
3.40526099041e-08
1.48482243225e-05
1.27442770285e-05
-7.25805931959e-09
1.27513027487e-05
-1.22746768289e-08
1.27597885766e-05
-1.38742516084e-08
1.27690638119e-05
-1.32436200423e-08
1.27789533695e-05
-1.15725502614e-08
1.27893607115e-05
-9.3321601055e-09
1.28001901027e-05
-6.70041424461e-09
1.28113780139e-05
-3.83396783013e-09
1.28228898494e-05
-8.70471134698e-10
1.28347020309e-05
2.09480944278e-09
1.2846792299e-05
4.99925043172e-09
1.28591374913e-05
7.7967094308e-09
1.28717130852e-05
1.04509870769e-08
1.2884492156e-05
1.293262107e-08
1.28974458994e-05
1.52193115115e-08
1.29105426735e-05
1.72945165928e-08
1.29237487609e-05
1.91481001081e-08
2.07738266673e-08
1.29370279723e-05
1.10957745723e-05
-1.21031720088e-08
1.11034112662e-05
-1.99109907414e-08
1.11119151331e-05
-2.23777001168e-08
1.11207931556e-05
-2.2121224643e-08
1.1130076572e-05
-2.08555209551e-08
1.11397254844e-05
-1.89806794942e-08
1.11496690253e-05
-1.66435305212e-08
1.11598723167e-05
-1.40368490133e-08
1.11703203938e-05
-1.1318204528e-08
1.1180997889e-05
-8.58221577684e-09
1.1191885475e-05
-5.88803285307e-09
1.12029623871e-05
-3.27962364622e-09
1.12142058704e-05
-7.9225179935e-10
1.12255920758e-05
1.54709442857e-09
1.12370941958e-05
3.71730804652e-09
1.12486871807e-05
5.70216511467e-09
1.12603480347e-05
7.48725432499e-09
9.06094145998e-09
1.12720615566e-05
9.66112048716e-06
-1.80087553819e-08
9.66946486124e-06
-2.82549912166e-08
9.67783232602e-06
-3.07447968235e-08
9.68619677785e-06
-3.04852732442e-08
9.69480154753e-06
-2.94599029519e-08
9.70361878645e-06
-2.77974873634e-08
9.71260344807e-06
-2.56278095254e-08
9.72175840504e-06
-2.31914494946e-08
9.73109220236e-06
-2.06516496467e-08
9.74060144756e-06
-1.80911280678e-08
9.75027390426e-06
-1.55600969095e-08
9.76009231628e-06
-1.30976766223e-08
9.77003551294e-06
-1.07349222056e-08
9.7800779818e-06
-8.49504473443e-09
9.79019139668e-06
-6.39565991635e-09
9.80034570476e-06
-4.45185071175e-09
9.8105109554e-06
-2.67765657315e-09
-1.08706922868e-09
9.82065929561e-06
8.4128693013e-06
-2.55252114102e-08
8.42187610591e-06
-3.72614091898e-08
8.42988485986e-06
-3.87531585438e-08
8.43768099042e-06
-3.8280990958e-08
8.44562118788e-06
-3.7399712075e-08
8.4536463192e-06
-3.58222842979e-08
8.46174304542e-06
-3.37241479037e-08
8.46994460046e-06
-3.13926564142e-08
8.47827166291e-06
-2.89783963061e-08
8.48672692551e-06
-2.65460804739e-08
8.49530382914e-06
-2.41366432061e-08
8.50399025598e-06
-2.17837225467e-08
8.51276897226e-06
-1.95132699103e-08
8.52161760053e-06
-1.73432910761e-08
8.53050930296e-06
-1.5287017054e-08
8.53941525284e-06
-1.3357530983e-08
8.54831315397e-06
-1.15750545905e-08
-9.97653949398e-09
8.55720282463e-06
7.32701843138e-06
-3.52589612182e-08
7.33639279106e-06
-4.66354006216e-08
7.34378869152e-06
-4.61486963391e-08
7.3509368328e-06
-4.54287256455e-08
7.35812573191e-06
-4.45882242147e-08
7.36529010374e-06
-4.29862762214e-08
7.37247445333e-06
-4.09081400563e-08
7.37973455046e-06
-3.86524294166e-08
7.38709337992e-06
-3.63369427748e-08
7.39455477633e-06
-3.40071669413e-08
7.40211470253e-06
-3.16962608945e-08
7.40976371222e-06
-2.94323915427e-08
7.41748689896e-06
-2.72361034525e-08
7.4252631252e-06
-2.51191936617e-08
7.43306359162e-06
-2.30871905923e-08
7.44084956154e-06
-2.11432333176e-08
7.44857263504e-06
-1.92977611723e-08
-1.75897006266e-08
7.45618626162e-06
6.38295042605e-06
-4.81430595062e-08
6.39212612122e-06
-5.58107492314e-08
6.39891518895e-06
-5.29374249373e-08
6.40554693754e-06
-5.20600291653e-08
6.4120463682e-06
-5.10873464179e-08
6.41840789418e-06
-4.93475178646e-08
6.42474037573e-06
-4.72402898355e-08
6.43111193447e-06
-4.50236943747e-08
6.43754816006e-06
-4.27729075347e-08
6.4440575981e-06
-4.05163650985e-08
6.45064127301e-06
-3.82795053036e-08
6.45729394777e-06
-3.60848655803e-08
6.46400514881e-06
-3.39470405143e-08
6.47075838828e-06
-3.18721506001e-08
6.47752850222e-06
-2.98570734841e-08
6.48427463924e-06
-2.78891365451e-08
6.49093238118e-06
-2.59552395467e-08
-2.4074493231e-08
6.49741770187e-06
5.5620333087e-06
-6.47114794062e-08
5.56969210369e-06
-6.34691895544e-08
5.57565494159e-06
-5.8899906196e-08
5.58146758728e-06
-5.78721743864e-08
5.58691494711e-06
-5.65343139284e-08
5.59211229146e-06
-5.45445555938e-08
5.59719436483e-06
-5.23220306597e-08
5.6022219179e-06
-5.00509547284e-08
5.60722333204e-06
-4.77740838851e-08
5.61221699446e-06
-4.55096822682e-08
5.61721464752e-06
-4.32768061948e-08
5.622221891e-06
-4.10918425755e-08
5.62723979129e-06
-3.89647166339e-08
5.63226529874e-06
-3.68974046895e-08
5.6372884855e-06
-3.48800503155e-08
5.64227863394e-06
-3.28791247396e-08
5.64714059447e-06
-3.08168094155e-08
-2.847899387e-08
5.65154542224e-06
4.84609620758e-06
-8.32000184749e-08
4.84782010598e-06
-6.51926937272e-08
4.84870649596e-06
-5.97858671762e-08
4.84832276386e-06
-5.74878681082e-08
4.84678209593e-06
-5.49931935737e-08
4.84451786027e-06
-5.22799596376e-08
4.84178596525e-06
-4.95897616055e-08
4.8387349548e-06
-4.69996138544e-08
4.83547815784e-06
-4.45169838535e-08
4.83210949933e-06
-4.21406329066e-08
4.82870436499e-06
-3.98712394036e-08
4.8253217154e-06
-3.77088952375e-08
4.82200831374e-06
-3.56510508385e-08
4.8188031302e-06
-3.36919429275e-08
4.81574267519e-06
-3.18193712147e-08
4.81286347981e-06
-2.99996796295e-08
4.81019259759e-06
-2.81455976092e-08
-2.54508703965e-08
4.80716491925e-06
4.1194762441e-06
4.05428358374e-06
3.99449776829e-06
3.93700994474e-06
3.88201678809e-06
3.82973687078e-06
3.78014715013e-06
3.73314757465e-06
3.68863064372e-06
3.64649007983e-06
3.60661889117e-06
3.5689100409e-06
3.53325904366e-06
3.49956714907e-06
3.46774782451e-06
3.43774821951e-06
3.40960273232e-06
3.38415190355e-06
6.28451577276e-08
-6.28404463368e-08
1.00016253307e-07
-3.71656128834e-08
9.79732414841e-08
2.04559513976e-09
5.90471760162e-08
3.8930894068e-08
-2.64667390858e-08
8.55154847863e-08
-1.53281158453e-07
1.26817625331e-07
-2.91030801381e-07
1.37749620548e-07
-4.3717363759e-07
1.46144950446e-07
-5.91077638889e-07
1.53903902614e-07
-7.51917437741e-07
1.60841814325e-07
-9.18842336374e-07
1.66924989096e-07
-1.09104185912e-06
1.72201570699e-07
-1.26778338143e-06
1.76741733425e-07
-1.44840065692e-06
1.8061929862e-07
-1.63230516863e-06
1.83904726811e-07
-1.81896697955e-06
1.86663751255e-07
-2.00792306338e-06
1.8895616376e-07
-2.19875760991e-06
1.9083641316e-07
-2.39111049716e-06
1.9235303626e-07
-2.58465815257e-06
1.93549498586e-07
-2.77912166389e-06
1.94463670739e-07
-2.97424832358e-06
1.9512857239e-07
-3.16981975906e-06
1.95571784518e-07
-3.36563401728e-06
1.95816256656e-07
-3.5615130641e-06
1.95879599194e-07
-3.75728591742e-06
1.9577484198e-07
-3.95279512521e-06
1.95509771757e-07
-4.14788086614e-06
1.95087700574e-07
-4.34238694105e-06
1.94506767873e-07
-4.5361457815e-06
1.93760780959e-07
-4.72898380175e-06
1.92838663468e-07
-4.92070737041e-06
1.91725464699e-07
-5.11110853856e-06
1.90401893157e-07
-5.29995229891e-06
1.88845603367e-07
-5.48698272738e-06
1.87031040149e-07
-5.67191193988e-06
1.84931020922e-07
-5.8544280515e-06
1.82516775889e-07
-6.03418614408e-06
1.79759951945e-07
-6.21081825544e-06
1.76632863163e-07
-6.383927053e-06
1.73110702192e-07
-6.55309809723e-06
1.69171844076e-07
-6.71789629898e-06
1.64800080872e-07
-6.87788026301e-06
1.59984738786e-07
-7.03260110316e-06
1.54722628182e-07
-7.18161803853e-06
1.49017617609e-07
-7.32449834384e-06
1.42881989026e-07
-7.46083295643e-06
1.36335284222e-07
-7.59023624359e-06
1.29404957275e-07
-7.71235994033e-06
1.22124429366e-07
-7.82689116293e-06
1.14533024481e-07
-7.9335638134e-06
1.06673666517e-07
-8.03215441097e-06
9.85927055816e-08
-8.12249020648e-06
9.033721934e-08
-8.20444273031e-06
8.19549385886e-08
-8.27793265301e-06
7.34915914169e-08
-8.34292234032e-06
6.49924036777e-08
-8.39942043679e-06
5.65001429024e-08
-8.4474720018e-06
4.80545898017e-08
-8.48716180482e-06
3.96920188574e-08
-8.51860213519e-06
3.1443642158e-08
-8.54193881193e-06
2.3339202721e-08
-8.55734135895e-06
1.54060779264e-08
-8.56499862553e-06
7.65976934151e-09
-8.56509865321e-06
1.03709826538e-10
-8.55791823453e-06
-7.17778768171e-09
-8.54386375297e-06
-1.4050599208e-08
-8.5234046623e-06
-2.04563611882e-08
-8.49702540807e-06
-2.63752719949e-08
-8.46521625169e-06
-3.18065159599e-08
-8.42844893529e-06
-3.67634096169e-08
-8.38717240627e-06
-4.12740199513e-08
-8.34178874235e-06
-4.5379737692e-08
-8.29264686165e-06
-4.91393207665e-08
-8.2400130623e-06
-5.26294400621e-08
-8.18405984227e-06
-5.59500886262e-08
-8.12482905976e-06
-5.92254026142e-08
-8.06221572019e-06
-6.26091579715e-08
-7.99592582009e-06
-6.62837538124e-08
-7.92545871911e-06
-7.04627826287e-08
-7.85006567389e-06
-7.538631071e-08
-7.76874154261e-06
-8.13192822345e-08
-7.68019490659e-06
-8.85393491173e-08
-7.58286365967e-06
-9.73264776695e-08
-7.47491529482e-06
-1.07939757739e-07
-7.35431297319e-06
-1.20596019617e-07
-7.21887089718e-06
-1.35432341556e-07
-7.06639002418e-06
-1.52475237216e-07
-6.89478528196e-06
-1.71599660222e-07
-6.70227926356e-06
-1.92506764881e-07
-6.48757620258e-06
-2.14710107802e-07
-6.25003267533e-06
-2.37548611732e-07
-5.98979957231e-06
-2.60235710121e-07
-5.70787345866e-06
-2.81926724162e-07
-5.40607364171e-06
-3.01800396417e-07
-5.08695165097e-06
-3.19121889573e-07
-4.75365231429e-06
-3.33299713209e-07
-4.40971752577e-06
-3.43934286069e-07
-4.05889335198e-06
-3.50823629263e-07
-3.70496516127e-06
-3.53925890649e-07
-3.35157777475e-06
-3.53383569822e-07
-3.0020702195e-06
-3.4949979668e-07
-2.6594274055e-06
-3.4262509539e-07
-2.32614294476e-06
-3.3325885389e-07
-2.00424911921e-06
-3.21849943897e-07
-1.69537157373e-06
-3.08832179903e-07
-1.4002616591e-06
-2.95051869913e-07
-1.12041867142e-06
-2.79794314047e-07
-8.55162148007e-07
-2.65190342683e-07
-6.09329993585e-07
-2.45769682281e-07
-3.78891240881e-07
-2.30357852035e-07
-1.2759890824e-07
-2.51208315961e-07
1.34566872648e-07
-2.62079717392e-07
3.76433006557e-07
-2.41821772999e-07
5.87637779965e-07
-2.11164277042e-07
7.73030884799e-07
-1.85375910629e-07
9.37519108587e-07
-1.64466051617e-07
1.08416077301e-06
-1.46638405775e-07
1.21504339105e-06
-1.30876562524e-07
1.33170065248e-06
-1.16666518711e-07
1.43540280669e-06
-1.03699424931e-07
1.52720566533e-06
-9.17961625747e-08
1.60805577759e-06
-8.08205151771e-08
1.67877038416e-06
-7.06868346691e-08
1.74011817869e-06
-6.13122530467e-08
1.79278075757e-06
-5.26448602156e-08
1.83742006281e-06
-4.46206248954e-08
1.8746221814e-06
-3.7201015767e-08
1.90496094969e-06
-3.03346973872e-08
1.92894525019e-06
-2.39944677841e-08
1.94708276396e-06
-1.81432432681e-08
1.95983894069e-06
-1.27737786803e-08
1.96772121308e-06
-7.8950804767e-09
1.9713293748e-06
-3.63114958182e-09
1.97140331563e-06
-9.25370856927e-11
1.96846824414e-06
2.90756794748e-09
1.9627760984e-06
5.66815107051e-09
1.95451554779e-06
8.2285296101e-09
1.94392984159e-06
1.05536990207e-08
1.93125047129e-06
1.2638113012e-08
1.91670447313e-06
1.45039280379e-08
1.90049247462e-06
1.61693699244e-08
1.88280130476e-06
1.76546689031e-08
1.86379525609e-06
1.89749412922e-08
1.8436249991e-06
2.01449041873e-08
1.82242682517e-06
2.11756486903e-08
1.80032847628e-06
2.20792077556e-08
1.77744596169e-06
2.28646495676e-08
1.75388813223e-06
2.35421581982e-08
1.72975338257e-06
2.41193404477e-08
1.70513419894e-06
2.46050886505e-08
1.68011383581e-06
2.50057159986e-08
1.65477073371e-06
2.53292683778e-08
1.62917478357e-06
2.55811145367e-08
1.60339216025e-06
2.57685613745e-08
1.57748062294e-06
2.58963673902e-08
1.55149511731e-06
2.59713812542e-08
1.52548248719e-06
2.59974478622e-08
1.49948758427e-06
2.5981115494e-08
1.47354634405e-06
2.59264091378e-08
1.44769320851e-06
2.58399773641e-08
1.42195357619e-06
2.57253415357e-08
1.39635141535e-06
2.55897631126e-08
1.37090030193e-06
2.54374632748e-08
1.3456126802e-06
2.52761221789e-08
1.32048870367e-06
2.51111698566e-08
1.29552576298e-06
2.49525989936e-08
1.27070537758e-06
2.48087407407e-08
1.24600300737e-06
2.46934506965e-08
1.22137362054e-06
2.4619135075e-08
1.19675941778e-06
2.46067665848e-08
1.17207024306e-06
2.46802920155e-08
1.14718750668e-06
2.48765276069e-08
1.12193689788e-06
2.52427782532e-08
1.09607749631e-06
2.58539853744e-08
1.06924711772e-06
2.6823173654e-08
1.0409008408e-06
2.83410093153e-08
1.01015052803e-06
3.0743164889e-08
9.75320912312e-07
3.48248548501e-08
9.33718760402e-07
4.15979724299e-08
6.83463773386e-08
8.65371085135e-07
-2.59065784922e-08
-3.69284587261e-08
-1.01601137056e-07
3.85335676284e-08
-2.10117890412e-07
1.10564222874e-07
-3.28212586611e-07
1.57027243566e-07
-4.4200555665e-07
1.99309204466e-07
-5.52200206391e-07
2.37013505724e-07
-6.78945711919e-07
2.64495604453e-07
-8.18851573873e-07
2.8605205291e-07
-9.68703527763e-07
3.03756352683e-07
-1.12644535427e-06
3.18584965439e-07
-1.29063312293e-06
3.31113306384e-07
-1.46015792044e-06
3.41727791464e-07
-1.63412740343e-06
3.50711807792e-07
-1.81179418024e-06
3.5828751913e-07
-1.99252630232e-06
3.64637408376e-07
-2.17577735145e-06
3.69916188379e-07
-2.3610781631e-06
3.74257440833e-07
-2.54801817841e-06
3.77777712238e-07
-2.73624363029e-06
3.80578909436e-07
-2.92544279943e-06
3.82749973043e-07
-3.11534653632e-06
3.84367846176e-07
-3.30571503339e-06
3.85498338574e-07
-3.49633917791e-06
3.86196498645e-07
-3.68702860373e-06
3.86507080817e-07
-3.8776130258e-06
3.86464695719e-07
-4.06793090546e-06
3.86094103531e-07
-4.25783053349e-06
3.85410177712e-07
-4.44715946513e-06
3.84418123501e-07
-4.63576524715e-06
3.8311344962e-07
-4.82348526183e-06
3.81482291263e-07
-5.01014714145e-06
3.79501523983e-07
-5.19555945418e-06
3.77139343412e-07
-5.37951229378e-06
3.74355768507e-07
-5.56176888189e-06
3.71103737675e-07
-5.74206693885e-06
3.67330143685e-07
-5.92011195281e-06
3.62977587585e-07
-6.09558016118e-06
3.57986082087e-07
-6.26811411065e-06
3.52295497033e-07
-6.43732791394e-06
3.45847831559e-07
-6.602805727e-06
3.38590125625e-07
-6.76410964081e-06
3.30476938417e-07
-6.92078125597e-06
3.21473254869e-07
-7.07235204562e-06
3.11556657748e-07
-7.21834755479e-06
3.00719590639e-07
-7.35829937368e-06
2.88970466668e-07
-7.49175067077e-06
2.76334614625e-07
-7.61826824748e-06
2.62853837534e-07
-7.73744776202e-06
2.4858578387e-07
-7.84892418547e-06
2.3360188087e-07
-7.95237534703e-06
2.17985571113e-07
-8.04752965433e-06
2.01829227769e-07
-8.13416643491e-06
1.85231190713e-07
-8.21212005405e-06
1.68292421377e-07
-8.28127625793e-06
1.51113087449e-07
-8.34157525887e-06
1.33792494874e-07
-8.39300752105e-06
1.16427005237e-07
-8.43561060094e-06
9.91054810491e-08
-8.46946339416e-06
8.19100118794e-08
-8.49467555964e-06
6.49067738804e-08
-8.51139696141e-06
4.81680546287e-08
-8.51981784437e-06
3.17629809938e-08
-8.52014130925e-06
1.57327773762e-08
-8.51258633266e-06
1.07877662491e-10
-8.49757903908e-06
-1.49001535067e-08
-8.4757265166e-06
-2.90270428975e-08
-8.44755416696e-06
-4.22193270634e-08
-8.41352195778e-06
-5.44851769554e-08
-8.37407356026e-06
-6.58200220244e-08
-8.32964621872e-06
-7.62305616979e-08
-8.28066737841e-06
-8.57387759724e-08
-8.22755045246e-06
-9.43878108053e-08
-8.17067950232e-06
-1.02247240408e-07
-8.1103952314e-06
-1.09420410079e-07
-8.04696961995e-06
-1.16051343652e-07
-7.98058289599e-06
-1.22332991714e-07
-7.91128984718e-06
-1.28513784032e-07
-7.8389904137e-06
-1.34903963149e-07
-7.7633916469e-06
-1.41877339988e-07
-7.68397916656e-06
-1.49870186173e-07
-7.59998483165e-06
-1.59374813261e-07
-7.51036966368e-06
-1.70928981244e-07
-7.4138061114e-06
-1.85096772101e-07
-7.30868488161e-06
-2.0244165147e-07
-7.19312969615e-06
-2.23487436485e-07
-7.06504922504e-06
-2.48668844853e-07
-6.92220764309e-06
-2.78265382248e-07
-6.76234617539e-06
-3.12329263846e-07
-6.58332938009e-06
-3.50610939098e-07
-6.38333275579e-06
-3.92505195071e-07
-6.16103095419e-06
-4.37016662061e-07