/*--------------------------------*- C++ -*----------------------------------*\
| =========                 |                                                 |
| \\      /  F ield         | OpenFOAM: The Open Source CFD Toolbox           |
|  \\    /   O peration     | Version:  v1806                                 |
|   \\  /    A nd           | Web:      www.OpenFOAM.com                      |
|    \\/     M anipulation  |                                                 |
\*---------------------------------------------------------------------------*/
FoamFile
{
    version     2.0;
    format      ascii;
    class       volScalarField;
    location    "18";
    object      rho;
}
// * * * * * * * * * * * * * * * * * * * * * * * * * * * * * * * * * * * * * //

dimensions      [0 0 0 0 0 0 0];


internalField   nonuniform List<scalar> 
12225
(
0.585163703542
0.64926613414
0.628581471718
0.628813309458
0.61680133933
0.612508821142
0.606546967461
0.602534437838
0.600434057077
0.601427517392
0.606980182426
0.615701853804
0.622727505162
0.634602952712
0.658207603355
0.689259375626
0.729740502675
0.763849714829
0.75968265951
0.698612065023
0.665938821126
0.670644982856
0.661512842315
0.659161842581
0.655455113812
0.653191118031
0.651996193832
0.652551746302
0.656213810061
0.662734270873
0.669538470783
0.679582304409
0.69747908168
0.720812593948
0.746625705808
0.749330644785
0.605839333059
0.68014053293
0.661194600944
0.66310568708
0.653283216943
0.649973154866
0.645473348319
0.642494883503
0.640485335437
0.639949417063
0.641574808062
0.645486384879
0.651177189302
0.660275059328
0.67521901126
0.694125281672
0.711747043634
0.706974380603
0.672905495859
0.692304465408
0.665555694605
0.671453096297
0.662628910284
0.660933529118
0.657781876977
0.655932674915
0.654728421441
0.65458140541
0.655810155814
0.65857706754
0.663018974416
0.670094024034
0.680764478133
0.692997670922
0.701014206451
0.691478633996
0.638775028982
0.691875877881
0.666853864934
0.673871126603
0.665894207011
0.665143499235
0.662887703821
0.661959758991
0.661698408293
0.662423462444
0.664260407839
0.667294290248
0.671749781898
0.678083415466
0.686268089537
0.694021712798
0.696264697628
0.685807687813
0.651834740958
0.695776430915
0.670154012457
0.678544842457
0.671137369328
0.671116386797
0.669410361719
0.668985262712
0.669160944553
0.670198657471
0.672142153848
0.675027603851
0.679014355361
0.684217421771
0.690069203195
0.694325385776
0.693201454899
0.683295643533
0.648586862483
0.697157715638
0.672715759874
0.681979874831
0.675257377327
0.675898441944
0.674717162181
0.674741985006
0.6752734262
0.676522364917
0.678481478923
0.681142528129
0.684537721969
0.688545861431
0.692355993693
0.694025139852
0.691028014853
0.68197813227
0.650728061099
0.698659054146
0.674935086907
0.684960347635
0.67880062269
0.679977627092
0.679191900672
0.679532609235
0.680255147987
0.681552438608
0.683393632125
0.685727340523
0.688463424355
0.691328075481
0.693447499147
0.693296352314
0.689308074399
0.681131177566
0.651734011041
0.699432837557
0.676740875801
0.687285183382
0.681663665781
0.683297177765
0.682840089043
0.683399410802
0.684196420534
0.68543136154
0.687062817541
0.688990108304
0.691032696005
0.69283756936
0.693604846273
0.692193730395
0.687730015078
0.680296882164
0.652628619934
0.699767223228
0.677980074146
0.688902948838
0.683732390297
0.685740498366
0.685523721374
0.686208384985
0.687007912488
0.688130479007
0.689500291141
0.690968428626
0.692303683928
0.693151628348
0.692849854936
0.690596757769
0.685954614235
0.679214972397
0.65258446572
0.699841452144
0.67836342079
0.689626970643
0.68471555676
0.686936186944
0.686799507611
0.687506232406
0.688248408454
0.689206088744
0.690267152165
0.691278064489
0.692004859458
0.692135019714
0.691147163898
0.688505343333
0.684039061945
0.678065825554
0.648569282734
0.699718860859
0.676875201495
0.688715027611
0.68374285423
0.686058137175
0.685936148431
0.686637950978
0.687279269274
0.68806992868
0.688956254868
0.689763638909
0.690246787868
0.690107198135
0.688945592607
0.686395628024
0.682388189595
0.677232504823
0.645265219155
0.699031470116
0.675373064995
0.687619643107
0.682825493936
0.685310426439
0.685287044471
0.686062861917
0.686790651145
0.687658218299
0.688552250697
0.689293008323
0.689600603307
0.689258288922
0.687939267799
0.685425875575
0.681749599744
0.677182694856
0.641238737089
0.698172622883
0.673656150524
0.686437226852
0.681856550952
0.684695340192
0.684977908535
0.685972535816
0.68680796714
0.687674961692
0.6884533381
0.688948264594
0.68891631958
0.688206824252
0.686647201616
0.68410748132
0.680732634524
0.676675925078
0.635984131107
0.697231257025
0.671494555098
0.684999993455
0.680637649536
0.683894710155
0.684524666493
0.685778480804
0.686739766694
0.687564153381
0.688166337135
0.688342256044
0.687911613279
0.686850719628
0.685075279905
0.682559070894
0.679461445426
0.675927325239
0.63044440618
0.696223480659
0.669019966591
0.683241681052
0.678989446186
0.68260498821
0.683491108711
0.684933576785
0.685945312725
0.68671648572
0.687117875415
0.687032949866
0.686299181542
0.685021875221
0.683157388982
0.680757828021
0.677961541983
0.674869039404
0.625417968342
0.69529949953
0.666501347694
0.681304191925
0.677009546487
0.680836296489
0.681825478681
0.683322020109
0.684302222105
0.684951472004
0.685199693237
0.684919670873
0.684027907083
0.682658564289
0.680840523231
0.678604939394
0.676123752214
0.673393917991
0.620655521197
0.694587431616
0.664090102394
0.679365845891
0.674882761321
0.678772538381
0.679716456542
0.68116767713
0.68205336451
0.682580929498
0.682699489003
0.682301146825
0.681337838204
0.679976499244
0.678258302863
0.676209890273
0.673997612816
0.671586152538
0.618038595658
0.694490763216
0.662798912734
0.678256713094
0.673471819669
0.677211357212
0.677922581354
0.679163358443
0.679828833968
0.680147898094
0.680085452419
0.679556336267
0.678526881297
0.677179112198
0.675547447175
0.673646403845
0.671630601157
0.669455643724
0.623403665093
0.695124714867
0.664399856781
0.678990213597
0.673721732883
0.676781767604
0.676845750324
0.677425012173
0.67749505393
0.677284882425
0.676790367954
0.675943773029
0.674707380383
0.673249267984
0.671598932535
0.669760750074
0.667873680393
0.665903139099
0.627998796347
0.696278602153
0.66630011229
0.680258356612
0.674614045476
0.677133266497
0.676685333208
0.676785382421
0.676399227059
0.675813023585
0.675014564536
0.673960456512
0.672579128875
0.671062687514
0.669401022846
0.66761803363
0.665808553228
0.663964863365
0.630242909871
0.697161148724
0.668204637129
0.681621106059
0.675697570803
0.677741955722
0.676879171524
0.676563113547
0.675822876687
0.674938008214
0.673897749895
0.672681207669
0.671203350832
0.669633255009
0.667973314802
0.666222616691
0.664482174512
0.662706217265
0.637385803069
0.698929314339
0.669967104302
0.68289489493
0.676664484609
0.678258940307
0.676997668067
0.676304695523
0.675235679517
0.674061368935
0.672814092508
0.671429505017
0.66984158456
0.668197364484
0.666522415596
0.664766641444
0.663053517758
0.661335660942
0.632520953129
0.699355077462
0.672253848773
0.684568253245
0.678078938307
0.679210352529
0.677568509543
0.676498416358
0.675118571906
0.673692380917
0.672230848229
0.670692640781
0.668990720067
0.667277069695
0.665533610265
0.663748683849
0.662010390329
0.660307714103
0.656327540403
0.701854627697
0.67375876139
0.685376917511
0.678628078744
0.67932759495
0.677338895405
0.67597582173
0.674342129968
0.672703954127
0.671074471874
0.669433472517
0.667660439333
0.665901846395
0.664148579896
0.662343522159
0.660568476751
0.658837678115
0.618037137996
0.701541630938
0.677067556461
0.688061753946
0.681129047523
0.681424454151
0.679177476478
0.677526072683
0.675642102958
0.673760295909
0.671925372805
0.670109877764
0.6682022061
0.666311092216
0.664434269773
0.66253477855
0.660688981444
0.659035977428
0.708158077153
0.705387560334
0.679264093657
0.688439448688
0.681502337134
0.681218959705
0.678631060317
0.676648612975
0.674464230172
0.672285736315
0.670139464391
0.668159616488
0.666165454164
0.664196090147
0.662301583139
0.660386521463
0.65845407065
0.656345479424
0.566099672246
0.700276830409
0.687482752824
0.694588985565
0.687801653877
0.687346346359
0.684865468916
0.68305222807
0.681102819635
0.679165823076
0.67737697621
0.675709408844
0.673969703923
0.672242220175
0.670535163251
0.668697493367
0.666757458247
0.665196786478
0.833053376458
0.720082942431
0.694705287951
0.701120546617
0.694697588561
0.69360038961
0.69054717609
0.68780141039
0.684677871967
0.681303365518
0.677791858953
0.67450346288
0.671173551897
0.667707795641
0.664191888498
0.660611521692
0.65691855003
0.653340013465
0.649265096319
0.68248963844
0.677767951681
0.679424031917
0.671650782718
0.670646302849
0.667996923095
0.665949060812
0.66386997554
0.662045198219
0.660574539181
0.659202219495
0.657767191465
0.656661858044
0.655881947022
0.655228723956
0.654898075298
0.654132829567
0.500150431945
0.499789744906
0.499603710984
0.499622153735
0.499836215815
0.50021053815
0.500643638507
0.501101995507
0.501559077266
0.501996355885
0.502401717741
0.502768068412
0.503091982607
0.503372533989
0.503610574429
0.50380816024
0.503967961732
0.504093367904
0.504187511771
0.504253369144
0.504294206355
0.504312169925
0.50431046415
0.504289697139
0.504251661573
0.504195809831
0.50412365433
0.504034790741
0.503929727411
0.503807535685
0.50366836207
0.503511589651
0.503337518858
0.503145289808
0.502935049499
0.502706890158
0.502461921567
0.502199391765
0.501920475361
0.501625240607
0.501315081818
0.500990774517
0.500654037982
0.500306549921
0.499950463186
0.499588342265
0.499222805801
0.498856994678
0.498494176626
0.498137312206
0.497789258027
0.497451388647
0.497126840043
0.496819822169
0.496535692843
0.496279564259
0.496056825033
0.49587285001
0.495733150066
0.495642968764
0.495606366121
0.495624538252
0.495698423943
0.495830957659
0.496023088567
0.496271694434
0.496574716092
0.496930050664
0.497334377963
0.497784912448
0.498277376232
0.498807903819
0.499371727277
0.499964617446
0.500581915535
0.501219645316
0.501873847083
0.502539968748
0.503214208155
0.503893925217
0.504577065904
0.505260324001
0.505941632181
0.506618283291
0.507291055063
0.507957280863
0.50861688751
0.509276158234
0.509931359734
0.510586011718
0.511240866299
0.511896163641
0.512554103497
0.513188193356
0.5137837798
0.514378795595
0.515004967043
0.515647440476
0.51630430854
0.516969573113
0.517749055535
0.518621180928
0.518761757252
0.518805754769
0.519018246392
0.519452706762
0.520076623846
0.52041152009
0.520803137718
0.521157560272
0.521447294562
0.521693782209
0.521912143402
0.522114743347
0.522301010841
0.522474043806
0.522636569955
0.522791905723
0.522941043955
0.5230830953
0.523214766079
0.523334858268
0.523444695562
0.523545390419
0.523639798635
0.52372918691
0.523814304621
0.523895659356
0.523973625987
0.524048616765
0.524121019295
0.524191067412
0.524258962167
0.52432472772
0.524388410581
0.524449909648
0.524509180709
0.524566560032
0.524621571254
0.524674048585
0.524722181324
0.52476731705
0.524808597088
0.524844495339
0.524873319308
0.524893258702
0.524903208482
0.524902368493
0.524890045883
0.524865701284
0.52482825329
0.524776174411
0.524707745829
0.524621323946
0.524515135147
0.52438734546
0.52423590246
0.524058549638
0.523852327901
0.523613623403
0.523337087608
0.523016996013
0.52264528573
0.522210607783
0.521697478183
0.521088877851
0.520363807683
0.519505567613
0.518500881553
0.517326951593
0.515970815135
0.514435988356
0.512739605087
0.510923924414
0.509048911256
0.507058076147
0.505000859612
0.502956240371
0.501034535351
0.49954936934
0.500049587942
0.499814314365
0.499913395817
0.500200248275
0.500549597608
0.500907591568
0.501252390781
0.501573604501
0.501866674754
0.502129331802
0.502361128255
0.50256136784
0.502730893312
0.502870089
0.502980368052
0.503062884182
0.503119526517
0.503152145745
0.503163268294
0.503154424528
0.503128191361
0.503086022986
0.503030280723
0.502961175344
0.502880110477
0.502786243284
0.502680431331
0.502561834529
0.502430243557
0.502284341608
0.502123956262
0.501948098861
0.501756184883
0.501547028443
0.50132096911
0.501077300234
0.500816337468
0.500537806812
0.500242231057
0.499929486511
0.499600566502
0.499256251676
0.498898043404
0.498527699697
0.498147491381
0.497760197956
0.497369204496
0.496978136047
0.496591636723
0.496214881068
0.495855464196
0.495518417982
0.495206625017
0.494923032757
0.494671516142
0.494455914993
0.49428001347
0.494149495547
0.494070274727
0.494044414801
0.494073347352
0.494159298244
0.49430187172
0.4944970827
0.494745905999
0.495050879273
0.495412100711
0.495829172548
0.496301107385
0.49682684235
0.497404418692
0.498031686914
0.498705301264
0.499421685276
0.500176725519
0.500965764435
0.501783692297
0.502625184401
0.503484726331
0.504358294348
0.50524278395
0.506134342881
0.507028767258
0.507924157813
0.50882212124
0.509717278545
0.510602785089
0.511488119054
0.512393995233
0.513301807119
0.51418077664
0.515064371232
0.515992617694
0.51693517174
0.51780682994
0.518602680599
0.519431883282
0.520111734051
0.520786060759
0.521493428038
0.522173785905
0.522986398721
0.523586199122
0.524232938321
0.524828326241
0.525401593739
0.525736477339
0.525990531437
0.526219396178
0.526452614324
0.526688583663
0.52694242384
0.527202524357
0.527462974229
0.527720005751
0.527974168237
0.528226459739
0.528478636367
0.528731341045
0.528981843751
0.529226319003
0.529462924305
0.529691564817
0.529913906749
0.530131874974
0.530346405634
0.530558211136
0.530767733973
0.530975469676
0.531181607525
0.531386239107
0.531589389788
0.531791188821
0.531991741228
0.532191429478
0.532390585139
0.532589819255
0.5327899226
0.532991622768
0.533194619104
0.533398669426
0.533604978152
0.53381391145
0.534025170895
0.534237889172
0.534451644057
0.534666847307
0.534884504104
0.535105860893
0.535331955067
0.535563927502
0.535803010303
0.536050442795
0.536306926945
0.536572336053
0.53684583579
0.537125431999
0.537408492878
0.537691411901
0.537970870521
0.538241837633
0.538498700366
0.538735997744
0.538949602392
0.539135748307
0.53929136455
0.539419919785
0.539513525471
0.539572944232
0.539599894967
0.539592728546
0.539544528104
0.539445498969
0.539294009931
0.539019317465
0.538712461583
0.538346206804
0.53793027692
0.537506994547
0.537060583325
0.500416410181
0.500339949863
0.50037577719
0.50049337177
0.500618040617
0.500720989563
0.500811232993
0.500895348469
0.500977137026
0.501056722891
0.501133503525
0.501205851353
0.501272125674
0.501330452802
0.501379464131
0.501417963932
0.501445474807
0.50146167508
0.501466975048
0.501461821801
0.501447124111
0.501422890922
0.501390659404
0.5013500485
0.501301424769
0.501244025571
0.501178017102
0.501102118221
0.501015870071
0.5009179015
0.50080762084
0.500683561435
0.500545343377
0.500391924079
0.500222962474
0.500037930704
0.499837282394
0.499620441908
0.499387971458
0.499140143939
0.498877877027
0.498602184468
0.498314637828
0.498017128235
0.49771201423
0.497402022976
0.497090447309
0.496780879811
0.496477362211
0.496184232046
0.495907658052
0.495654046806
0.495430310862
0.495240961116
0.495089504306
0.494978752704
0.494911047073
0.494886313249
0.494903667074
0.494964626184
0.495071868023
0.49522756902
0.495437124548
0.495704305959
0.49602739985
0.496407222496
0.496844941409
0.497340676715
0.497892869249
0.49849906152
0.499155491297
0.499857693084
0.500600553747
0.501378681077
0.502186602585
0.503018858385
0.503870207355
0.504735438339
0.505609654763
0.506488146385
0.507368783297
0.508248620294
0.509123213074
0.509989745038
0.51085199667
0.511711530577
0.512554028556
0.513376510781
0.514202787888
0.515042512288
0.515861683295
0.516632439884
0.517430262488
0.518231113371
0.518999193803
0.519735916926
0.520414651822
0.520937141356
0.521533148641
0.522317977575
0.523172677948
0.523781897139
0.524103405518
0.524439173561
0.524623389426
0.524855569354
0.525243079676
0.525806060698
0.526339016841
0.526800374375
0.527230915077
0.527632603795
0.528000609214
0.528341700863
0.528661324188
0.528965318672
0.529257753616
0.529541813767
0.529818774719
0.530086721811
0.53034344543
0.530588456707
0.530823111803
0.531049651208
0.531269217445
0.531482550488
0.531690147845
0.531892407919
0.532089673735
0.532282439983
0.532471401571
0.532657264289
0.532840497555
0.533021408037
0.533200266232
0.533377415715
0.533553446105
0.533728762211
0.533903524756
0.534076566351
0.534247772035
0.534418085587
0.534588681758
0.534759228798
0.534928235439
0.535094550966
0.535257685253
0.535417657487
0.535574365029
0.535727661119
0.535877369885
0.53602351357
0.536165971036
0.536304759081
0.53644012161
0.536572557538
0.536702781401
0.5368319309
0.536961192118
0.537092254682
0.537226828915
0.537366610732
0.537513332515
0.537668858012
0.537834545483
0.5380119703
0.538203699889
0.53841004882
0.538627711764
0.538853594362
0.539082545155
0.539304647161
0.539507662717
0.539667759371
0.539758294509
0.539761465169
0.539657835725
0.539439997788
0.539151291943
0.53894481721
0.500885626404
0.500768905349
0.500509885089
0.500371859351
0.500297768397
0.500240275011
0.500205320302
0.500192900767
0.500200986625
0.500226505707
0.50026622409
0.500316171021
0.500373047231
0.500433360374
0.500494382596
0.50055361143
0.500609325573
0.500660148256
0.500705566881
0.50074456024
0.500777479503
0.500804009374
0.50082430786
0.500837727087
0.500844636651
0.500843629935
0.500834369726
0.500815530252
0.500786301359
0.500745018731
0.500690774644
0.500622215762
0.500538466472
0.500438158119
0.500321341482
0.500187077236
0.500035424557
0.499866249723
0.499680143968
0.499477396697
0.49925921673
0.499026886084
0.498782349711
0.498527929081
0.498266428235
0.498001105233
0.49773578325
0.497474354923
0.497221331783
0.496981558298
0.496759700039
0.496559319652
0.496386124195
0.496244968484
0.496140330183
0.496075958699
0.496055284412
0.49607995882
0.496148576252
0.496258413362
0.496408817133
0.496600896237
0.496837350823
0.49712354292
0.497465929134
0.497868502209
0.498333331191
0.498861492575
0.499452695504
0.500105042027
0.500815104744
0.501577797514
0.502386599447
0.503234575455
0.504114351891
0.505017637025
0.505937062113
0.506867020766
0.507800376399
0.508730376866
0.509654782246
0.510574288505
0.511480833205
0.512365115247
0.513235428944
0.514099667517
0.51494366584
0.51573400974
0.516516913482
0.517302701839
0.518057098177
0.518763249036
0.519433344169
0.520088349218
0.520696806426
0.521308641553
0.521983610811
0.52271394256
0.523547101876
0.52433891293
0.52489332705
0.525136457834
0.525309763048
0.525524066383
0.525706014188
0.526021322226
0.526548563718
0.527217249378
0.527862730571
0.528444904398
0.528969562324
0.529431553052
0.529838730172
0.530204812352
0.530539754566
0.530851692802
0.531146011466
0.53142665501
0.531694894769
0.531949787337
0.532190292833
0.53241744663
0.532634239509
0.532842943398
0.53304471885
0.533240243689
0.533430152821
0.533615080011
0.533795705349
0.533972678078
0.534146885559
0.534318901889
0.534488937365
0.534657313102
0.534824428179
0.534990979332
0.535157530443
0.535324218131
0.535490259463
0.535654310824
0.535816031561
0.535977040127
0.536139212363
0.536302510877
0.536465785826
0.536628100612
0.536789183981
0.53694918794
0.537108349603
0.537266935535
0.537425133136
0.537583133855
0.5377407973
0.537897985016
0.538054563932
0.538210375413
0.538365118607
0.5385182523
0.538669103715
0.538816948967
0.538961381939
0.53910195239
0.539238307883
0.539370707507
0.539499858386
0.539627192811
0.539756099212
0.539888698068
0.54002674683
0.540173040699
0.540329042122
0.540493201177
0.540661988853
0.540828342502
0.540974194665
0.541093575592
0.541178251072
0.541226133717
0.541286497806
0.541488387359
0.501429919596
0.500774318755
0.500121551226
0.499881183596
0.499795822106
0.499739819383
0.499706361797
0.499692668829
0.499699183369
0.499724384743
0.499767014472
0.499824497897
0.499894132477
0.49997255572
0.500057041363
0.500144669394
0.500233517557
0.500321384395
0.500407173235
0.500489798104
0.500568765455
0.500642883139
0.500712494582
0.500776422498
0.500834205658
0.500884788771
0.500927560422
0.500960830938
0.500983662834
0.500994401407
0.500992017715
0.500974751299
0.500941947891
0.500892434619
0.500825653384
0.500740877922
0.50063844526
0.500517830439
0.50037966724
0.500224395533
0.500053188375
0.499867302957
0.49966869903
0.499459597783
0.499242789518
0.499021291693
0.49879876014
0.498579022704
0.498366163411
0.498164835909
0.497981212007
0.497819635075
0.497685426274
0.497583714899
0.497518530157
0.4974933493
0.497511980733
0.497576935263
0.497688651577
0.497848559748
0.498057785009
0.498316904628
0.498626124787
0.49898457328
0.49939323825
0.499854735533
0.500371489214
0.500945250408
0.501576012353
0.502262649805
0.503002402051
0.503790960908
0.504621484467
0.505488193957
0.506384418374
0.507301590464
0.508231006055
0.509169233505
0.510112520357
0.511048045185
0.511969510243
0.512887042399
0.513794315328
0.514673036636
0.515534883287
0.51639413068
0.517230427205
0.518024024378
0.5187664246
0.519492403819
0.520219007117
0.520894064144
0.521556526377
0.522189766959
0.522847774822
0.523616296914
0.52444410692
0.525252073595
0.525954334099
0.526414054108
0.526615950834
0.526688856028
0.526825910348
0.527035678404
0.527295156115
0.527695674633
0.528231833224
0.528827558101
0.529408990039
0.529952405312
0.530441457129
0.530869611707
0.531245830014
0.531581808775
0.531886794376
0.532168465674
0.532432396162
0.53268245199
0.532920005132
0.533144747213
0.533356656848
0.533557888954
0.533751648351
0.533939804446
0.534122975338
0.534301323574
0.534475010289
0.534644292259
0.534809552002
0.534971188891
0.535129488721
0.535284751104
0.535437425737
0.535587924638
0.535736817921
0.535884765959
0.536032099099
0.536178442091
0.536322212062
0.536462030532
0.536597682577
0.536731671742
0.536866311382
0.537002009399
0.537138022775
0.537273490411
0.537408117105
0.537541934939
0.53767514498
0.537807993629
0.537940626541
0.538073160709
0.538205736108
0.538338439303
0.538471330991
0.538604334469
0.538737413609
0.53887055755
0.539003637088
0.539136497028
0.539269289882
0.539402157932
0.53953535706
0.539669535919
0.539805335803
0.539943854976
0.540087396075
0.540236935395
0.540392666354
0.540555664724
0.540725021509
0.54089784222
0.541070995819
0.541239466889
0.541393153402
0.541530930051
0.541660688808
0.541798391156
0.542003919092
0.542391422791
0.501922841643
0.500105656114
0.499243790891
0.499242403643
0.499343575846
0.499389883204
0.499410759176
0.499425824701
0.499448738095
0.499485579674
0.499539159166
0.499608123781
0.499691027939
0.499784736789
0.499887006433
0.499994866572
0.500106445902
0.500219534574
0.500333048382
0.500445070155
0.500555301519
0.500662652506
0.500766465433
0.500865661251
0.500960037449
0.501047862085
0.501128342209
0.501199892883
0.50126137893
0.501310983497
0.501347538193
0.5013695374
0.501375982449
0.50136548752
0.501337962575
0.5012925097
0.501229198394
0.50114797521
0.501049594414
0.500934532579
0.500804270516
0.500660217095
0.500504580887
0.50033970002
0.500168482381
0.499993933553
0.499819678841
0.499649140339
0.499486297239
0.499335680292
0.499203198878
0.499093104143
0.499011159046
0.498962583138
0.498952043924
0.498983669941
0.499061236549
0.499184061207
0.499350577681
0.499559822656
0.499811752108
0.500106459414
0.500445876
0.500831779902
0.501269151481
0.501761528968
0.502312496672
0.502924267602
0.503596508364
0.504326308396
0.505111218949
0.505945345313
0.506819704504
0.507725704614
0.50865927871
0.509610585757
0.510565876827
0.511519659784
0.5124757497
0.51342477794
0.514342169705
0.515263446102
0.516172058874
0.5170547386
0.51790023876
0.518704512122
0.519490104325
0.520250811971
0.520986804493
0.521716231951
0.522397091681
0.523073595068
0.523821640273
0.524581535022
0.525359628203
0.526123148416
0.526805000042
0.527360695634
0.527765444945
0.527985557744
0.528088230396
0.528199279663
0.528389587527
0.528640831991
0.528965548627
0.529393543291
0.529889530355
0.530408001581
0.530917609011
0.531400483866
0.531839891653
0.532231671913
0.532581768176
0.532897835916
0.533186692806
0.533454373849
0.533705565527
0.533943114937
0.534167888109
0.534379369487
0.534577847668
0.534765762123
0.534945758822
0.535119275066
0.535286670612
0.535447985212
0.535603311935
0.535752944161
0.535897358692
0.536037168455
0.536173086997
0.536306035872
0.536436762037
0.536565908803
0.536694209738
0.536822417939
0.536950741908
0.53707815605
0.53720274435
0.537322678132
0.53743819369
0.537551906777
0.537666112724
0.537781474276
0.537897415788
0.538013281119
0.538128752681
0.538243808393
0.538358564617
0.538472996582
0.538587164933
0.538701118646
0.538814923243
0.538928723665
0.539042598591
0.539156644101
0.539270906801
0.539385468982
0.539500333089
0.539615553549
0.539731423374
0.539848235939
0.539966472916
0.540086985173
0.540210773913
0.540339165159
0.54047440922
0.540617645016
0.540769430166
0.540930980828
0.541101263599
0.541277579322
0.541457444438
0.541637423288
0.541809073859
0.541972614219
0.542138830162
0.542330748245
0.542606349783
0.543056141911
0.502179234749
0.498716575831
0.498134786527
0.498704928159
0.499044280419
0.499192039481
0.499266337829
0.499319865753
0.499378055033
0.499448458715
0.499534844787
0.499635897262
0.499750552919
0.499875747589
0.500009749578
0.500149652533
0.500294053776
0.50044051227
0.500588092835
0.500735383651
0.500881645701
0.501025352765
0.501166514649
0.501303652503
0.501436052473
0.501562522443
0.501682220221
0.501793363858
0.501894924721
0.50198517865
0.502063033413
0.50212675735
0.50217565714
0.50220862363
0.502225121625
0.50222457045
0.502207348701
0.502173185567
0.502122962562
0.502057384172
0.50197796509
0.501886160392
0.501784173374
0.501674186591
0.501558895715
0.501440762851
0.501322896078
0.501208094631
0.501099277
0.500999907213
0.500916597646
0.50085291559
0.50081524374
0.50081082989
0.500846087687
0.50092690617
0.501056525422
0.50123165708
0.501450516348
0.501711137483
0.502012498396
0.502351909329
0.502729028322
0.503146442353
0.503611448366
0.504128110607
0.504702031993
0.505337581045
0.506034436486
0.50678851754
0.507596695999
0.508456110793
0.509353927138
0.510275994345
0.511219318516
0.512177971655
0.513136893997
0.514090203954
0.515047500519
0.515991555458
0.5169136748
0.517799838893
0.518646687312
0.519480613204
0.520292176178
0.521070707717
0.521815347306
0.522526871868
0.523242512523
0.52398633332
0.524714892178
0.525461662731
0.526215930352
0.526932297007
0.527606945529
0.528193839159
0.528665611787
0.529017173598
0.529268279352
0.52943318581
0.529578542306
0.529763490558
0.530001034348
0.530286558602
0.530637116637
0.531051241612
0.531497298597
0.531950911706
0.532395031876
0.532816299468
0.533203829127
0.533555484989
0.533874194394
0.534164207755
0.534429867706
0.534675541937
0.534904684718
0.535119413555
0.535320246938
0.535507057205
0.535680927502
0.535844498598
0.536000468399
0.536150370296
0.53629484996
0.536434181488
0.536568639375
0.536698597715
0.53682457192
0.536947169317
0.537066986479
0.53718450399
0.53730010541
0.537414304203
0.537527817123
0.537641326028
0.537754770153
0.537866723819
0.537975042883
0.538077966154
0.538176240863
0.538272435868
0.538368831866
0.538466078137
0.538563778156
0.538661492944
0.538759043231
0.538856532537
0.538953959179
0.539051381723
0.539148788657
0.539246228114
0.539343747962
0.539441386414
0.53953924411
0.539637451977
0.539736094024
0.539835264214
0.539935000761
0.540035458666
0.540137009868
0.540240067878
0.54034517011
0.540453328978
0.540565673545
0.540683571878
0.540809124031
0.540943525359
0.541087524392
0.541242458284
0.541407628843
0.541580832535
0.541760583085
0.54194526961
0.542128628532
0.542312252417
0.542507721199
0.542741690238
0.543067023319
0.543553089668
0.502071752774
0.496816066453
0.497136304951
0.498400237993
0.498875926315
0.49908953432
0.499219445463
0.499332596883
0.499450659813
0.499578518117
0.499719490578
0.499871199282
0.500033601505
0.500203776454
0.500380943036
0.500562461324
0.500747480891
0.500933909144
0.501121261502
0.501307633972
0.501492867151
0.501675632537
0.501855301438
0.502030813204
0.502201969354
0.502367096021
0.50252557883
0.502675982958
0.502817377933
0.502948156214
0.503067413751
0.503173879307
0.503266786736
0.503345070957
0.503408759186
0.503457207077
0.503490663316
0.503509300989
0.503514002762
0.503505413302
0.503485109741
0.50345444079
0.503415385352
0.503369753287
0.503319580713
0.503266549148
0.503212379641
0.503158485312
0.503106431469
0.503057986541
0.503018393423
0.502993734836
0.502992000638
0.503024747092
0.503103580226
0.503238681154
0.503430431624
0.503671992483
0.503959106865
0.504286536968
0.504647354237
0.505033959765
0.505441379832
0.505879936099
0.50635799744
0.506883379453
0.507463678168
0.508107561424
0.508818032704
0.509586637921
0.510405516568
0.511275226911
0.512185269007
0.513108993303
0.514060898623
0.515026882546
0.51598420064
0.516925010163
0.517837624354
0.518717207177
0.519585089506
0.520429546217
0.521239302792
0.522015822089
0.522756912679
0.523468515705
0.524173837212
0.524893311935
0.525629654201
0.526366790809
0.527072677293
0.527768125772
0.528415455556
0.529001527154
0.529524456809
0.529962014239
0.530309947926
0.530575672916
0.530785815676
0.530963642138
0.531151599245
0.53137054306
0.531625022932
0.531921924093
0.532267799711
0.532649216421
0.533044194878
0.533439106704
0.533823234764
0.534187806176
0.534526659804
0.534838386261
0.535124026139
0.535385716933
0.535626268651
0.535848889163
0.536056227027
0.536249902554
0.536430310161
0.536597597222
0.536753119727
0.53689930885
0.537038400997
0.537171684419
0.537299694922
0.53742260878
0.537540566793
0.53765380042
0.537762694239
0.537867749171
0.537969513334
0.538068510119
0.538165357127
0.538260800573
0.538355815637
0.538451115323
0.538546406461
0.538640036285
0.538729685246
0.53881398553
0.538893892037
0.538971836411
0.539049845874
0.539128492601
0.539207546584
0.539286700557
0.539365946209
0.539445349431
0.539524985645
0.539604868986
0.53968495823
0.539765276112
0.539845857377
0.539926787793
0.54000818915
0.54009022593
0.54017303991