/*--------------------------------*- C++ -*----------------------------------*\
| =========                 |                                                 |
| \\      /  F ield         | OpenFOAM: The Open Source CFD Toolbox           |
|  \\    /   O peration     | Version:  v1806                                 |
|   \\  /    A nd           | Web:      www.OpenFOAM.com                      |
|    \\/     M anipulation  |                                                 |
\*---------------------------------------------------------------------------*/
FoamFile
{
    version     2.0;
    format      ascii;
    class       volScalarField;
    location    "18";
    object      sensitivity;
}
// * * * * * * * * * * * * * * * * * * * * * * * * * * * * * * * * * * * * * //

dimensions      [0 2 -3 0 0 0 0];


internalField   nonuniform List<scalar> 
12225
(
-2.6078101322
-9.58272781585
-7.09365440203
-7.87969021931
-7.55580358372
-7.61659833629
-7.54548821032
-7.59962867242
-7.75778193073
-8.07844300864
-8.52698947072
-8.98441393915
-9.25158095978
-9.23354883349
-9.44027907589
-11.3778143545
-16.0918273349
-18.9471788644
-21.6556154536
-9.78206939617
-11.2952925177
-11.1300760734
-11.5300319328
-11.835536566
-12.2498577433
-12.760601958
-13.4049560425
-14.1704079099
-15.0011631898
-15.7601494772
-16.2882132416
-16.6129627841
-17.3619049806
-19.7930669323
-23.8396335003
-24.1600120171
7.94936164236
-12.3916696118
-8.41009493299
-9.75191191901
-9.310237556
-9.5235740305
-9.59622067498
-9.84610276603
-10.195354317
-10.6628952614
-11.1729025152
-11.5978144326
-11.810742345
-11.9226005279
-12.5902800108
-14.7950197484
-18.0514587508
-18.4585717312
-25.8391120961
-7.33460644886
-10.7844336688
-9.89296231317
-10.2808418276
-10.3600616074
-10.5941563571
-10.908796485
-11.3362050777
-11.8484677359
-12.3663168531
-12.7574703523
-12.9171716134
-12.9626459656
-13.4026361649
-14.759954068
-16.2924589239
-15.67356048
6.79896439429
-11.0062256454
-8.58023182859
-9.51776840171
-9.31917078696
-9.51660418308
-9.67680206493
-9.97313559072
-10.3714295447
-10.8678610508
-11.3912550029
-11.8410824012
-12.1600130107
-12.4765186926
-13.1325146127
-14.2538397124
-15.0206437588
-14.1332198558
-15.8572412781
-10.0397544567
-9.51574773631
-9.79344312875
-9.79139540891
-9.92761365656
-10.0689636226
-10.2992799644
-10.5974942819
-10.953609098
-11.3111178295
-11.6070230349
-11.836883045
-12.1399401928
-12.7313325506
-13.5300193714
-13.8520952196
-13.0277625244
-5.71062394411
-9.66024447904
-9.27746632187
-9.58610020315
-9.62573331971
-9.79283647827
-9.97271069544
-10.2231050862
-10.5215950223
-10.8487276299
-11.1549467012
-11.3997400235
-11.6036444508
-11.8834826877
-12.3472587035
-12.8380167107
-12.8825570287
-12.179768387
-9.12795369745
-9.93103704607
-9.30990257658
-9.6303229908
-9.65101417145
-9.80421817539
-9.96686869742
-10.1911268315
-10.4520188656
-10.7288280211
-10.9810941504
-11.1859677319
-11.3714584904
-11.616480297
-11.9495639749
-12.2076506723
-12.0991506616
-11.5106067791
-8.71355311332
-9.74807125669
-9.40269373669
-9.62828922573
-9.68044226968
-9.81678731044
-9.97041773965
-10.1679199908
-10.3904888332
-10.6173755479
-10.819478603
-10.9870084199
-11.1462302904
-11.3404121303
-11.5532466468
-11.6503742873
-11.4676016766
-10.9751778077
-8.97130194992
-9.7089621889
-9.46853260157
-9.64371619104
-9.70898479273
-9.82899235724
-9.96958485085
-10.1396189599
-10.3250945884
-10.5069910434
-10.6658483764
-10.7991887111
-10.9259750717
-11.0625536299
-11.1749565851
-11.1670087219
-10.9540511822
-10.5383867077
-9.1564010971
-9.65657331226
-9.54467860713
-9.66064214357
-9.73802259384
-9.83820483481
-9.96327361011
-10.104806955
-10.2547119738
-10.3961870029
-10.5171832944
-10.6178840917
-10.7086356689
-10.7890054384
-10.8236785026
-10.7504365371
-10.5300896781
-10.1753216016
-9.29881329483
-9.61625768451
-9.5959439033
-9.66386639231
-9.74690474033
-9.82819496577
-9.93692066472
-10.0525625805
-10.1720375717
-10.2806644731
-10.3708104083
-10.4426418792
-10.4997844417
-10.5346194156
-10.5177319694
-10.4102704649
-10.195231617
-9.88605052767
-9.44981407347
-9.59311777605
-9.64167354527
-9.6680276569
-9.7520568807
-9.81500070554
-9.90651789185
-9.99739066172
-10.0884820078
-10.1671972083
-10.2288300849
-10.2724715385
-10.2975622818
-10.2939413419
-10.239762558
-10.1123864963
-9.9066666365
-9.63500145051
-9.59797511093
-9.57230205724
-9.6805803159
-9.66595811697
-9.74644999179
-9.78885557711
-9.86012007358
-9.92450840551
-9.98651258775
-10.0351603968
-10.0675330506
-10.0819356851
-10.0752237113
-10.0380682399
-9.95605901401
-9.81777265464
-9.62456919648
-9.38713564615
-9.75031359773
-9.55150806801
-9.71501949193
-9.65949972485
-9.73139987763
-9.75118855581
-9.79920588805
-9.83594068552
-9.86822388895
-9.88688775521
-9.8898913264
-9.87509594625
-9.83915136781
-9.77514465548
-9.67475777074
-9.53330934141
-9.35491739975
-9.14836833107
-9.90005461992
-9.54645936244
-9.74373623519
-9.65348120427
-9.71100944363
-9.70752643563
-9.73072366211
-9.73975774983
-9.74319026007
-9.73296227339
-9.70793152923
-9.66620251731
-9.6055520175
-9.52173213274
-9.41074735134
-9.27138467166
-9.10839048132
-8.92904946359
-9.9840833738
-9.5520699907
-9.75176181825
-9.63722118446
-9.67441928189
-9.64831389213
-9.64620180011
-9.62897443585
-9.60547699274
-9.56913573154
-9.51945082327
-9.4554041406
-9.37613039229
-9.27957781048
-9.16415470308
-9.03023429709
-8.88216945994
-8.72589737163
-10.0231588749
-9.55141748008
-9.73962150714
-9.60661039658
-9.61996899598
-9.57295176844
-9.54676921741
-9.5061355499
-9.45936233169
-9.40142941406
-9.33250422674
-9.25249566188
-9.161580782
-9.0590910981
-8.94449925699
-8.81873412772
-8.68563405615
-8.55058871653
-10.1413062805
-9.59218931403
-9.70975584238
-9.56143530139
-9.54950257506
-9.48477246399
-9.43759137043
-9.37743380002
-9.3115081576
-9.23619020036
-9.15209356482
-9.06006618602
-8.96102004107
-8.8548380963
-8.74122517245
-8.62104306464
-8.49727703085
-8.37501895954
-9.61296448908
-9.4210160032
-9.68749153444
-9.54616631269
-9.53278829096
-9.46126963176
-9.40678020479
-9.33998349168
-9.26814562192
-9.1887322996
-9.10302617316
-9.01138890694
-8.9152686374
-8.81472761404
-8.70974884803
-8.60091618459
-8.4913299203
-8.38399867204
-11.3304461812
-9.84343391666
-9.64904864219
-9.49577941341
-9.46267942694
-9.38771322203
-9.32489956974
-9.24933505791
-9.16818764522
-9.07925625429
-8.98333873466
-8.8832024658
-8.78037661722
-8.67496769459
-8.56669087535
-8.45621997419
-8.34596535083
-8.2489357245
-6.34896070459
-8.98455474106
-9.80306317804
-9.66558870606
-9.6681048206
-9.57821393709
-9.51241016698
-9.43032654368
-9.34680258838
-9.25738207735
-9.16471392438
-9.06733907169
-8.9669008743
-8.86300354922
-8.75511989447
-8.64335586237
-8.52935221987
-8.39755192608
-18.7747824104
-10.2516764721
-9.65494992121
-9.43978172564
-9.4225660165
-9.36240484024
-9.3034816567
-9.23680415995
-9.16713678309
-9.09526902083
-9.0224344735
-8.9497851081
-8.87835923208
-8.80903979678
-8.74169071449
-8.67645467722
-8.61559169113
-8.59678398086
7.69680659597
-9.35446958353
-9.71048199702
-9.95438818723
-9.86916129545
-9.75726218487
-9.65960809276
-9.53644905656
-9.4100613149
-9.27283020335
-9.1275392362
-8.97595150084
-8.81965717494
-8.65758415507
-8.49038789287
-8.32149610752
-8.15643547385
-7.96512870198
-40.5519173115
-8.4173352922
-10.5342662384
-9.35370786953
-9.67469659182
-9.56892232213
-9.55241883542
-9.51741258416
-9.49128494247
-9.47123841429
-9.45673635803
-9.444228334
-9.43335144399
-9.42169935722
-9.40685171274
-9.38543608642
-9.35324423505
-9.34852342068
35.8060434488
-13.8914708694
-8.09662444605
-10.4607659176
-9.67347549069
-9.70967766084
-9.52408714512
-9.38035850862
-9.22131210768
-9.06044027858
-8.89581644211
-8.7251057679
-8.54766160553
-8.36392374217
-8.17682490835
-7.99476271429
-7.8313920033
-7.65373435962
-58.885629927
-2.09125473332
-13.0866786502
-9.25599709967
-10.4835041136
-10.0801185181
-10.1565950651
-10.0893509764
-10.0620923031
-10.0246372237
-9.99010654768
-9.95289490484
-9.9144626339
-9.87708066504
-9.84608693455
-9.82755957431
-9.81904947486
-9.85518476404
31.854322997
-17.1768194008
-7.27077267815
-10.4860885467
-9.31198420202
-9.50661667773
-9.27935987783
-9.17767524503
-9.03604626398
-8.90700975442
-8.77499764708
-8.64282321337
-8.51020155399
-8.37827248119
-8.24723994688
-8.11657219875
-7.98296685493
-7.78746181844
-35.3979980041
-6.94633567168
-12.9345125128
-10.839345321
-11.4544974795
-11.1988142149
-11.2180559646
-11.1453042044
-11.0944720866
-11.0324413093
-10.9710087299
-10.9043435089
-10.8338724567
-10.7572926326
-10.6693684402
-10.5625390899
-10.4211442518
-10.3065176061
-1.17241803067
-9.16384027535
-6.22452438463
-6.81008624109
-6.47379104658
-6.39940581475
-6.26037956988
-6.13457170138
-6.00538498666
-5.87634884296
-5.74824496591
-5.6223747812
-5.50222247042
-5.38706528948
-5.27319978004
-5.161524607
-5.07758446069
-5.02895279466
0.00757383476821
0.0106382303874
0.0194625180142
0.0205548852294
0.0176294441788
-0.0156078286729
-0.0539857690991
-0.0945837591849
-0.132936983141
-0.167077508041
-0.197416093659
-0.225412446263
-0.25340725849
-0.283275484271
-0.316674908163
-0.354404480327
-0.39691042261
-0.444086497099
-0.49559462197
-0.550945457533
-0.609531238614
-0.670782120191
-0.733980353309
-0.798582313525
-0.863816979558
-0.929187454183
-0.994012680117
-1.0578515984
-1.12001097724
-1.18010504762
-1.2375702906
-1.2921108475
-1.34327982326
-1.39085009906
-1.43452682734
-1.4741139198
-1.50945728718
-1.54037824048
-1.56677363011
-1.58845128507
-1.60536358459
-1.61728620769
-1.62420317827
-1.62588162015
-1.62234855578
-1.613433123
-1.59915531661
-1.57949390693
-1.55450901447
-1.52427560003
-1.4888884287
-1.44857155061
-1.4033186903
-1.35343369226
-1.29903955508
-1.24043973177
-1.1777552617
-1.11132427207
-1.04131683944
-0.968053947425
-0.891779492667
-0.812846703753
-0.731764681175
-0.649995207544
-0.567278912055
-0.483790120518
-0.39939754295
-0.314004132678
-0.227787518039
-0.14098206711
-0.0539425633774
0.0330072973249
0.119485975426
0.205148708317
0.289642554064
0.372632203379
0.453757598656
0.532727120858
0.609232208478
0.683041130082
0.75388091356
0.821584440534
0.886011774178
0.947338402455
1.0058159968
1.06187738825
1.11622858638
1.16917292455
1.22128993825
1.27209296265
1.32101809633
1.36756479278
1.40997648711
1.44569954906
1.47231634171
1.48844838514
1.4939121199
1.48880216579
1.47231434572
1.44273579915
1.3969713431
1.33470978754
1.25444252657
1.14176516571
0.988587464919
0.814556918855
0.620182274343
0.390547273052
0.227224597091
0.102803192252
-0.0736323478258
-0.139318781617
-0.130528425749
-0.147858071656
-0.167529595014
-0.189815986781
-0.2123786531
-0.235000412129
-0.257511739081
-0.279989446672
-0.302475256618
-0.324844553499
-0.346744089025
-0.367817253596
-0.387756018483
-0.406380369461
-0.423487446691
-0.438834380528
-0.452161784252
-0.463265867835
-0.471944416512
-0.478011976278
-0.481281713162
-0.481882491931
-0.480066938743
-0.475725891253
-0.468841404893
-0.459432448402
-0.448077852695
-0.435651050534
-0.423036279001
-0.410628658662
-0.398466012797
-0.386362201519
-0.374230998216
-0.361938378337
-0.349380365254
-0.336371563973
-0.32276779876
-0.308353548103
-0.293024610887
-0.27658316807
-0.25896560424
-0.239901969826
-0.219292480388
-0.196799085588
-0.172375945748
-0.145700540014
-0.116779649182
-0.0852866305003
-0.0514944983483
-0.0152344093473
0.0232093395221
0.0641662348825
0.107492182607
0.152836257511
0.199712091668
0.248995856422
0.300100985534
0.351489302635
0.402787138586
0.453862254938
0.521922486864
0.590914004361
0.653236357833
0.723021613606
0.834218753619
0.944772669992
1.02574499466
0.684641596453
0.0270298856642
-0.00212082361869
-0.0273743073127
-0.0263914308913
-0.0193365672077
-0.0105418527225
-0.00222843237251
0.00788965615646
0.0211837985143
0.0371378976929
0.0539525258893
0.0698451236406
0.0832408916635
0.0934020398367
0.100109338702
0.103754768216
0.105005304423
0.104705917922
0.103759654475
0.102964770664
0.103077775412
0.104579697615
0.107958771758
0.113429387997
0.121237266761
0.131361688526
0.143898959929
0.158769128621
0.176074601014
0.195779411181
0.218036750331
0.242907024601
0.270616919986
0.301367775052
0.335438355595
0.373112330993
0.414702860184
0.460565514155
0.51100337955
0.566390483102
0.626983638105
0.693105031999
0.764910386925
0.84260340692
0.926197189171
1.01570220975
1.11096830078
1.21180343898
1.31789537245
1.4287838218
1.54406925704
1.66320535136
1.78569277123
1.91089085649
2.03823437616
2.16702673728
2.29670780988
2.42663048229
2.5562355885
2.68490367395
2.81212787676
2.93754567655
3.06156270096
3.18466800241
3.3054261898
3.42226277831
3.53367403236
3.63873697662
3.73663989919
3.82667207065
3.90816036924
3.98055226001
4.04342436733
4.09650913304
4.13967276152
4.17294422104
4.1964411644
4.21037366512
4.21495884543
4.21035922645
4.19650022567
4.1730796506
4.13941060987
4.09446539214
4.03672973558
3.96435624158
3.87523444213
3.76756459644
3.63970168505
3.4908570973
3.32203838006
3.13548440938
2.93518983677
2.72655372013
2.51541398893
2.3067222875
2.10375511708
1.90833730945
1.721881047
1.5488219991
1.39182158079
1.23656487649
1.06696945019
0.898938658003
0.741981202387
0.558315991083
0.36170448818
0.234370950711
0.0817019147983
-0.220906370976
-0.294175930681
-0.303343511639
-0.384194195107
-0.481626510084
-0.578232738968
-0.673932245128
-0.764672341159
-0.849256766555
-0.92706729989
-0.998052920728
-1.0623734992
-1.12013691084
-1.17137195547
-1.21615373983
-1.2547227493
-1.28743037033
-1.31464645331
-1.33676494771
-1.35415457768
-1.3671969142
-1.37618693995
-1.38139030097
-1.38305690679
-1.38125104776
-1.37625879587
-1.36843673378
-1.357618838
-1.34353447086
-1.32657275345
-1.3077205754
-1.28794095572
-1.26765735168
-1.24687492905
-1.22546218613
-1.20335862031
-1.18050248083
-1.15682989001
-1.13225356213
-1.10672242612
-1.08018838768
-1.0526243808
-1.02391369148
-0.993923362065
-0.962388893089
-0.929091018317
-0.893623081337
-0.855615235906
-0.814479285842
-0.769868930141
-0.72140764229
-0.669115763931
-0.612732644827
-0.55231128645
-0.487667683581
-0.419095746239
-0.346488151399
-0.268232280878
-0.183109098379
-0.0913782929924
0.00415661100335
0.103698714517
0.205977325619
0.310159831261
0.381402023752
0.44948882808
0.535680279104
0.73153452489
1.00018998592
1.35724361702
1.72624345295
-0.0114967149316
-0.00474074300718
0.0147442169342
0.0355160954698
0.0553496438397
0.0732183758029
0.091427812398
0.113458270342
0.140860916462
0.172984713259
0.207846447752
0.24363902647
0.278943900581
0.313064373718
0.345629551519
0.376579305411
0.405942222793
0.433807739123
0.460335276648
0.48564924208
0.509979799109
0.533480914859
0.556430342096
0.579002089588
0.601498348543
0.624089698379
0.647053216755
0.670542646213
0.694812353039
0.719989503917
0.746263735797
0.773719673615
0.802476253544
0.832550623243
0.863977334165
0.896742041255
0.930792632166
0.966085547246
1.00253723546
1.0400901547
1.07861846331
1.11805185062
1.15823091177
1.19905357249
1.2403232224
1.28188308799
1.32352418598
1.36501522342
1.40613294988
1.44664074457
1.48630443951
1.52486506102
1.5621726202
1.59798276778
1.63212441518
1.664386449
1.69464839858
1.72276715028
1.74864141273
1.77218928077
1.79324694582
1.81161003934
1.82638177125
1.83898138526
1.85059703635
1.86238126456
1.87489481805
1.8885450726
1.9038603979
1.92145043649
1.94186328917
1.96555677662
1.99283775838
2.02388485904
2.0587536799
2.09734011174
2.13941227357
2.18461135484
2.23243235317
2.28220334611
2.33303725657
2.38382603693
2.43320825931
2.47958885855
2.52106238156
2.55536110593
2.5800275392
2.59199539288
2.58773179438
2.56362137218
2.51646663004
2.44427584687
2.34585273483
2.22147840873
2.07315579289
1.90470328149
1.72225086754
1.5350871458
1.35328162548
1.18197255678
1.01686516883
0.852618337686
0.70755262034
0.593021176932
0.472083563901
0.348847636782
0.301234820678
0.144918256167
-0.080530472996
-0.201071796334
-0.25505629767
-0.36247549515
-0.494794321666
-0.605711104145
-0.692871518984
-0.765639092171
-0.826922104234
-0.879907585578
-0.926871678185
-0.969586720255
-1.00925957291
-1.04648715978
-1.08142022736
-1.1139818871
-1.14408828114
-1.17168361963
-1.19678384377
-1.21947931741
-1.2399290229
-1.25830696517
-1.27490108351
-1.29000951792
-1.30380172386
-1.31622712688
-1.3268781759
-1.33500986644
-1.34035280104
-1.34262515587
-1.34243207999
-1.34086919388
-1.33875228159
-1.3363316127
-1.33341063403
-1.3296440647
-1.32468135292
-1.31815879251
-1.30973853414
-1.29907450676
-1.28586464176
-1.26979216957
-1.25062285865
-1.22811443847
-1.20213383203
-1.17247630412
-1.13905009597
-1.10164079749
-1.06020838452
-1.01461246057
-0.965011511667
-0.91147717762
-0.854467977773
-0.794245269319
-0.731481251678
-0.666583060327
-0.600099762883
-0.532016395019
-0.461406584037
-0.386524510595
-0.306262919809
-0.219077990483
-0.123367431607
-0.0218488615
0.0820312960469
0.164681017433
0.230901649656
0.2884720609
0.354918590356
0.46078572601
0.675327502414
0.988194775882
-0.00280856577743
0.0411453145064
0.0749655284803
0.0966136740253
0.114894062814
0.129501115957
0.143828993799
0.163333813009
0.190378292587
0.224067864456
0.26196213855
0.301941915755
0.342555569055
0.383117599268
0.423334330473
0.463159036721
0.50265686538
0.541899756033
0.581034573389
0.620151249822
0.65943442292
0.698971251673
0.738949604686
0.779456568106
0.820660610795
0.862629454511
0.905503928905
0.949344858484
0.994265607612
1.04031768365
1.08759251214
1.13611083139
1.18591730314
1.23701568816
1.28939658603
1.34300982442
1.39781081029
1.45372154819
1.51063491647
1.56844663385
1.6270035314
1.68616053808
1.74571363059
1.8054717463
1.86519683689
1.92465888179
1.9836078715
2.0418286995
2.09911083828
2.15523739854
2.21008804751
2.26354035016
2.31552138687
2.36598488675
2.41497861595
2.46252732684
2.50875094796
2.55376734514
2.59775619268
2.64087709906
2.68340863138
2.72585348538
2.76851265492
2.81041883449
2.84990669851
2.88627367808
2.91901668878
2.94750067784
2.97103920824
2.98909165293
3.00126930749
3.00738400887
3.00744848823
3.00166021699
2.99036529811
2.97406536329
2.95334724294
2.92882810797
2.90111333201
2.8707230815
2.83800954746
2.80311049327
2.76589689422
2.72593412888
2.68244900745
2.63436788439
2.58045291257
2.51952327969
2.45023371583
2.37130526043
2.28156697607
2.17918720062
2.06144632137
1.9257626779
1.77100497986
1.5988918442
1.41407123604
1.22243807217
1.02708242476
0.827946109637
0.632875982025
0.461847034824
0.32886920398
0.204667862403
0.10625778508
0.0996752295718
0.0750669097129
-0.0628206202378
-0.158783542274
-0.231978199797
-0.357237851681
-0.520126064112
-0.673838214552
-0.798860085821
-0.900555864547
-0.988925657633
-1.06747689474
-1.13864516814
-1.2035602365
-1.26277490996
-1.31642577006
-1.3643592836
-1.40631034163
-1.44215570457
-1.4720104371
-1.49623320908
-1.51534265763
-1.52994595827
-1.54067596041
-1.54816463003
-1.55299450494
-1.55552413757
-1.55584602165
-1.55381914175
-1.54913394436
-1.54142034201
-1.5306418638
-1.51735849595
-1.50223804818
-1.4863559527
-1.47049544729
-1.45496259723
-1.43969027023
-1.42450460865
-1.4092156965
-1.3936330049
-1.37754258386
-1.36070281169
-1.34285884013
-1.32375957267
-1.30316565385
-1.28083194205
-1.25651862623
-1.22993657503
-1.20080930183
-1.16880892123
-1.13368686718
-1.09515165485
-1.05308198417
-1.00736417223
-0.958202249765
-0.905751316125
-0.850570317748
-0.793180082455
-0.734216437507
-0.674060946743
-0.612440316086
-0.54811227356
-0.479951023252
-0.403652068752
-0.315836685036
-0.21818344963
-0.111493962716
-0.0136965352671
0.0716603665421
0.134016330502
0.108993011721
0.0440278514259
0.0367086735131
0.0679500517498
0.000853697340833
0.143810016392
0.185235874469
0.173854457079
0.161839017151
0.152752613828
0.149833910206
0.157685776195
0.177138736862
0.205718195674
0.240097925925
0.277733872984
0.317010232219
0.357073141851
0.397513616317
0.438145316453
0.478951947962
0.519928438101
0.561189918958
0.602794941203
0.644915581837
0.687648527953
0.731188895678
0.775645116415
0.821200321127
0.867962382153
0.916077145198
0.965627998939
1.01671530644
1.06938178109
1.12365649721
1.17952342644
1.23693724545
1.29577972518
1.3559269444
1.41718987136
1.47935007333
1.54214763931
1.60530723016
1.66850941519
1.73141088003
1.79364250702
1.85480714292
1.91449264515
1.97227099044
2.02771811887
2.08042980783
2.13000688437
2.17610748686
2.21844424871
2.25676058569
2.29086088109
2.32062508605
2.3459685134
2.36686491479
2.38333059194
2.39543498722
2.4031918451
2.40679833752
2.40626197296
2.40157668416
2.39273072685
2.38132551711
2.36913328261
2.35729513121
2.34687081361
2.33856907537
2.33293575172
2.33030725308
2.330802057
2.33430981838
2.34054094238
2.34902692525
2.35920836023
2.37048169658
2.38221924861
2.39381570063
2.40470117957
2.41432155208
2.42211667202
2.42745441004
2.42953548043
2.42730669622
2.41939173663
2.40402769009
2.37923660937
2.3430702829
2.29377443541
2.23006217266
2.15078490103
2.05534008155
1.94333402724
1.81476246512
1.67027768665
1.51138352438
1.33969001001
1.1558999946
0.958331513728
0.747859405426
0.532656482453
0.33373284692
0.155319989866
-0.0155775026948
-0.1550070308
-0.166879203509
-0.141388784413
-0.213441012121
-0.283978986572
-0.329330383464
-0.427766506226
-0.576676918128
-0.732185157388
-0.868982952867
-0.979230345623
-1.0674066555
-1.14030854876
-1.20113899283
-1.25267734323
-1.29701659543
-1.33586306505
-1.3704714831
-1.40167344168
-1.42994893219
-1.45562965086
-1.47894448358
-1.50006749797
-1.51911153572
-1.5361773368
-1.55133662173
-1.56462699992
-1.57603889394
-1.58554508972
-1.59310418748
-1.5985475529
-1.60156775595
-1.60172802337
-1.59906053218
-1.59375705775
-1.58638956432
-1.5779719204
-1.56923540631
-1.56037600819
-1.55128396612
-1.54172323216
-1.53144612575
-1.52016763344
-1.50757859526
-1.49335975652
-1.47722072611
-1.45890923187
-1.43822852334
-1.41500879637
-1.38913392224
-1.36047401912
-1.32891128961
-1.29427374506
-1.25645569715
-1.21534477931
-1.17095555483
-1.12329311026
-1.07259861102
-1.0190694372
-0.963259311391
-0.905756410318
-0.847230081077
-0.7882334997
-0.728749936308
-0.667970834591
-0.60516125632
-0.535596475068
-0.454877775813
-0.363996960125
-0.261068939282
-0.161752339998
-0.0676232694273
0.00678779071456
-0.0371486633572
-0.17707326887
-0.308079514426
-0.475932204989
-0.00043711118333
0.363742855867
0.348620292247
0.251225713341
0.194580307093
0.163750703059
0.150459834855
0.152194693627
0.166702704264
0.190439375128
0.220239371686
0.25401677297
0.290546081786
0.329136834537
0.369425796575
0.411165437455
0.454249885758
0.498552783254
0.544055133985
0.590682041572
0.638464692846
0.68737214826
0.737464039226
0.7887511303
0.841309213341
0.895173697026
0.950420973787
1.00709976965
1.06526211611
1.12493482284
1.18612578028
1.2487889841
1.31285085194
1.37818131638
1.44460282515
1.51186568103
1.57970675741
1.6477798788
1.715722629
1.78311515867
1.84952749869
1.91448411983
1.97751091701
2.03811020193
2.09581201666
2.15015339641
2.20073056761
2.24719939152
2.28929425282
2.32682498083
2.3597232412
2.38802030864
2.41181123954
2.4313187905
2.44681846239
2.45866382594
2.46724961103
2.47299382462
2.47636807649
2.47785440346
2.47793964386
2.47682595618
2.47484194289
2.46950457238
2.46047365799
2.44761894423
2.43099334176
2.41093197139
2.38800022422
2.36295553589
2.33663321186
2.30987451407
2.28345050203
2.25799585147
2.23395800692
2.21162443833
2.19111147735
2.17237937563
2.15526958892
2.13952426901
2.12476856217
2.110393639
2.09548955019
2.07865963336
2.057987882
2.03105752827
1.995114337
1.9475194023
1.88547270789
1.80682036839
1.71042234928
1.59663167375
1.46792508733
1.32702817739
1.17468032178
1.01054764953
0.832523205541
0.639015662747
0.439697694049
0.239236659678
0.039222881956
-0.167705782157
-0.338786853174
-0.378602678048
-0.361422747901
-0.395069337676
-0.469674379575
-0.517559653274
-0.5815840647
-0.695512001455
-0.829226107551
-0.956705518386
-1.06993600281
-1.16595787289
-1.2474452683
-1.31840820194
-1.38114900593
-1.43764026082
-1.489208592
-1.53659261086
-1.57998944293
-1.61916552828
-1.65374303413
-1.68339071617
-1.70796341354
-1.72750780161
-1.74227592314
-1.75268595512
-1.75928181354
-1.76267751521
-1.76350855172
-1.76234367148
-1.75953599614
-1.75512509181
-1.74884824078
-1.74036030282
-1.72977770361
-1.71730357905
-1.70356638554
-1.68938671498
-1.67525799374
-1.66124391685
-1.64718642996
-1.63287098691
-1.61810078043
-1.60266533975
-1.5863303627
-1.56884876502
-1.54998720958
-1.52954866658
-1.50736864122
-1.48330368778
-1.45721294511
-1.42894714877
-1.3983462804
-1.36522788204
-1.32940189196
-1.29070743615
-1.24904575738
-1.20439530006
-1.15688957044
-1.10669813047
-1.05419363545
-0.999864432968
-0.944174752467
-0.887685732147
-0.830390544614
-0.771881029741
-0.712138479974
-0.647899316041
-0.575354053592
-0.49556379885
-0.404814911521
-0.318188230567
-0.231260654679
-0.150842339502
-0.163912592103
-0.279508880186
-0.404832618452
-0.614245221837
0.039764885691
0.724984288407
0.527034280709
0.309200890858
0.219795524255
0.179448491551
0.162817015111
0.159614107729
0.167730320277
0.184134749256
0.206624074728
0.233754610709
0.264588523513
0.29849139612
0.335039191211
0.373879207642
0.414786191536
0.457530155333
0.501987430319
0.548005998748
0.595524651315
0.644451217407
0.694766762184
0.746421117803
0.799416305781
0.853736404588
0.909387982338
0.966361677983
1.02465026164
1.08421878936
1.14501092341
1.20693468664
1.26986076221
1.33358920897
1.39790312112
1.46250274464
1.52706281899
1.59118651339
1.65447036819
1.71643990597
1.77662553015
1.83450838861
1.8895872697
1.94133798408
1.98927920787
2.03295071911
2.07197241387
2.10602927849
2.13491338804
2.1585384351
2.17692286262
2.19020938849
2.19866580503
2.20262256695
2.20246773331
2.19862450393
2.19135727782
2.18119963008
2.16820408805
2.15239746385
2.13394846428
2.1142415615
2.09282591952
2.06990313911
2.04621283997
2.02220358543
1.99825594247
1.97465254841
1.95157144667
1.92910980083
1.90731307822
1.88622026282
1.86586676948
1.84632015573
1.8276600061
1.80995410017
1.79326891342
1.77766264083
1.76316612031
1.749804261
1.73754004799
1.72613592087
1.71489823573
1.70235063376
1.68606545253
1.66268342592
1.62850636983
1.58002507198
1.51445298461
1.43008399515
1.32631510966
1.20608866035
1.0732648839
0.92919452713
0.773390862416
0.608575187992
0.437754795923
0.256078814211
0.0710001437579
-0.13049463541
-0.345596977106
-0.497668073715
-0.549524796892
-0.531415598615
-0.548118486926
-0.620715179713
-0.701283668759
-0.769947571203
-0.856909820259
-0.96462772559
-1.07190607641
-1.17117837535
-1.26156816369
-1.34134015266
-1.41088770936
-1.47148601202
-1.52395314335
-1.56927051383
-1.60834157162
-1.64191271242
-1.67058123293
-1.69480720735
-1.71507182151
-1.73188803423
-1.74580295933
-1.75732518517
-1.76691681805
-1.77495472451
-1.78174766967
-1.78750216888
-1.79233935966
-1.79617980522
-1.79873046689
-1.79954458988
-1.79811356267
-1.79415898586
-1.78794111148
-1.77942989336
-1.76938081611
-1.75860626168
-1.74754460551
-1.73628777797
-1.72470397211
-1.71261679166
-1.69984573946
-1.68619153714
-1.67142593312
-1.65529979859
-1.63758254057
-1.61807673996
-1.59663179802
-1.57312302974
-1.54743938115
-1.51945651567
-1.48906249878
-1.4561271977
-1.42052711063
-1.3821431339
-1.34092133451
-1.29687879253
-1.25017329656
-1.20097320115
-1.14955711855
-1.09629084356
-1.04144278266
-0.98551133584
-0.928390022424
-0.869897558241
-0.810626181172
-0.749313508226
-0.683523702524
-0.61466376341
-0.537541678748
-0.467308485269
-0.393831661779
-0.312165209586
-0.275513364706
-0.311926054203
-0.352138414919
-0.496472079732
0.167164747142
1.17796137462
0.6666920276
0.348826416418
0.255465807789
0.213517378843
0.193676603765
0.182159877351
0.181606630859
0.189239289417
0.203676221529
0.223665528997
0.248220614053
0.276615622271
0.308272946725
0.342713965078
0.37957483663
0.418527988485
0.459340942882
0.501793756963
0.545746748745
0.591058783535
0.637643833112
0.68541774397
0.734327420624
0.784316381212
0.835343493944
0.887358601362
0.940306097161
0.99411074565
1.04868107352
1.10387672455
1.15954240678
1.21546147396
1.27139271608
1.32702334542
1.38203960121
1.43604957369
1.48866882261
1.53945704539
1.58799480549
1.63382739977
1.6765385559
1.71570781917
1.75097990556
1.78204397633
1.8086931667
1.83082701303
1.84845637538
1.86172341189
1.87090492003
1.87640896545
1.87871002526
1.87836222929
1.87592400024
1.87185066467
1.86636883643
1.85940260963
1.85089054141
1.84065155595
1.82790265404
1.81277493286
1.79248651105
1.76749354295
1.73822857408
1.70527897674
1.66959815699
1.63232129802
1.59459043727
1.5573995594
1.52147753153
1.48727453335
1.45501686707
1.4247749391
1.39652828867
1.37028820479
1.34614699711
1.32430935762
1.30512289939
1.28899004373
1.27638138922
1.26756441175
1.26213402375
1.25845063536
1.25309853187
1.24095330665
1.21608652141
1.17347180717
1.10968917306
1.02289429191
0.912498621765
0.781731078114
0.636690962281
0.481332747646
0.316337793548
0.146849245305
-0.022123663852
-0.207467923317
-0.39847566207
-0.575703932471
-0.700266276127
-0.730056425456
-0.699853748321
-0.689125199851
-0.74854336241
-0.847894547234
-0.945443830863
-1.0353156157
-1.1276535405
-1.2192132893
-1.30297128189
-1.38025972859
-1.45224502161
-1.51787428594
-1.57671633324
-1.62905338038
-1.67532847792
-1.71634912846
-1.7529558902
-1.78585323378
-1.81546967253
-1.84203451903
-1.86562050599
-1.88624028482
-1.90385048953
-1.91842204034
-1.92995463789
-1.93853301862
-1.9443066085
-1.94751864473
-1.94841491454
-1.94719040696
-1.94391231429
-1.93852732552
-1.93089036695
-1.92114229982
-1.90960008726
-1.89646177594
-1.88246635477
-1.86822589762
-1.85404825188
-1.83995260631
-1.82577408659
-1.81130677027
-1.79633801845
-1.78064554056
-1.76398981266
-1.7461259615
-1.72683689306
-1.70594152106
-1.68331055919
-1.65884061933
-1.63245198477
-1.60404410422
-1.57352392165
-1.54076541521
-1.50566945683
-1.46812790926
-1.42811086373
-1.38562844598
-1.34084944803
-1.29391526515
-1.24504412265
-1.19444917793
-1.14225818535
-1.08888970535
-1.03417236649