/*--------------------------------*- C++ -*----------------------------------*\
| =========                 |                                                 |
| \\      /  F ield         | OpenFOAM: The Open Source CFD Toolbox           |
|  \\    /   O peration     | Version:  v1806                                 |
|   \\  /    A nd           | Web:      www.OpenFOAM.com                      |
|    \\/     M anipulation  |                                                 |
\*---------------------------------------------------------------------------*/
FoamFile
{
    version     2.0;
    format      ascii;
    class       surfaceScalarField;
    location    "25";
    object      phi;
}
// * * * * * * * * * * * * * * * * * * * * * * * * * * * * * * * * * * * * * //

dimensions      [0 3 -1 0 0 0 0];
oriented        oriented;


internalField   nonuniform List<scalar> 
24170
(
3.07333011461e-06
1.15072563287e-07
2.98607760252e-06
8.72490335405e-08
2.90561955979e-06
8.04536600385e-08
2.82792943589e-06
7.76864375525e-08
2.75323018425e-06
7.4695241635e-08
2.68162229005e-06
7.16047115868e-08
2.61291848742e-06
6.87000342326e-08
2.54686233649e-06
6.60531765094e-08
2.48317571618e-06
6.36832286696e-08
2.42155481366e-06
6.16181771148e-08
2.36165473041e-06
5.98970162492e-08
2.30307706605e-06
5.85751398745e-08
2.24534068648e-06
5.77337315752e-08
2.18783263144e-06
5.75057918241e-08
2.12970025513e-06
5.81302959025e-08
2.06956577992e-06
6.01331775279e-08
2.00457715294e-06
6.49881846962e-08
8.02094779433e-08
1.92436691901e-06
3.43140501458e-06
1.00913094327e-07
3.42599003045e-06
9.26604702725e-08
3.41855919665e-06
8.78802967608e-08
3.40792506823e-06
8.83170057139e-08
3.39455299334e-06
8.80636244787e-08
3.37906202027e-06
8.70926982127e-08
3.36176944528e-06
8.59892987902e-08
3.34285110811e-06
8.49688288086e-08
3.32240588727e-06
8.41256246544e-08
3.30046073724e-06
8.35609952084e-08
3.27696037671e-06
8.3394990481e-08
3.25175661655e-06
8.3776908882e-08
3.22458018583e-06
8.49082907367e-08
3.19498874924e-06
8.70956680469e-08
3.16225522317e-06
9.08625963993e-08
3.12516015601e-06
9.72276268733e-08
3.08162238925e-06
1.08526144785e-07
1.28593357493e-07
3.03323761342e-06
3.67982301886e-06
8.36039164887e-08
3.68388834656e-06
8.85921019727e-08
3.68604628049e-06
8.57186904148e-08
3.68692188748e-06
8.74382137626e-08
3.6862769078e-06
8.87053403858e-08
3.6843045266e-06
8.90623507562e-08
3.68110104692e-06
8.91898070187e-08
3.67666787291e-06
8.93994997931e-08
3.67096596083e-06
8.98249087215e-08
3.66392467037e-06
9.0600019145e-08
3.65543089924e-06
9.18864145652e-08
3.64531901012e-06
9.38867196549e-08
3.63335133628e-06
9.68739152251e-08
3.61919148593e-06
1.0125364421e-07
3.60237305391e-06
1.07679311179e-07
3.58233475532e-06
1.17264552577e-07
3.55889820384e-06
1.31961528412e-07
1.53297580318e-07
3.53419165437e-06
3.93952449644e-06
6.94644939663e-08
3.94523768824e-06
8.28755440783e-08
3.94819399412e-06
8.27585836331e-08
3.95028551824e-06
8.53433195267e-08
3.95129081223e-06
8.76967338275e-08
3.95129033378e-06
8.90599630064e-08
3.95038035439e-06
9.00968624835e-08
3.94856464991e-06
9.12126488186e-08
3.94579768591e-06
9.25893752041e-08
3.94200610424e-06
9.43893789792e-08
3.93708589788e-06
9.68044948095e-08
3.93089916394e-06
1.00071563531e-07
3.9232690504e-06
1.04502281534e-07
3.91398154404e-06
1.10539581274e-07
3.90281476262e-06
1.18844720344e-07
3.88967048435e-06
1.30407709648e-07
3.87500230289e-06
1.46628814837e-07
1.68198474369e-07
3.86009995137e-06
4.21832824179e-06
5.82605686458e-08
4.22448539277e-06
7.67155227124e-08
4.22753416609e-06
7.97064859741e-08
4.22967773762e-06
8.31967686194e-08
4.23086871937e-06
8.6502779758e-08
4.23109921278e-06
8.88268598545e-08
4.23045407036e-06
9.07393056845e-08
4.22895224278e-06
9.27120732568e-08
4.22656094127e-06
9.49782594458e-08
4.22322186222e-06
9.77262529054e-08
4.21885468226e-06
1.01169487197e-07
4.21335882837e-06
1.05565381372e-07
4.20661900072e-06
1.11240133702e-07
4.19852526276e-06
1.18631431305e-07
4.18902889229e-06
1.28339291395e-07
4.1782787266e-06
1.41156262778e-07
4.16689760683e-06
1.58008276349e-07
1.79217167233e-07
4.15587645845e-06
4.51793287358e-06
4.9411742376e-08
4.52408120004e-06
7.05639448027e-08
4.5272611618e-06
7.65230737843e-08
4.52940162009e-06
8.10530825687e-08
4.53064879822e-06
8.52525849822e-08
4.5309444202e-06
8.85284530074e-08
4.530344723e-06
9.13363604887e-08
4.52887616577e-06
9.41781628347e-08
4.52651749834e-06
9.73346342758e-08
4.52322387935e-06
1.01017702507e-07
4.51893646261e-06
1.05454914698e-07
4.51358870148e-06
1.10911269991e-07
4.50711950457e-06
1.17707578353e-07
4.49950314153e-06
1.2624610271e-07
4.49081126908e-06
1.37029558059e-07
4.48132501887e-06
1.50640927748e-07
4.47169633772e-06
1.67635445998e-07
1.88074271334e-07
4.46283770242e-06
4.83968371666e-06
4.2445399252e-08
4.8455355715e-06
6.47093224173e-08
4.84882842219e-06
7.32272090076e-08
4.8509688625e-06
7.89097632591e-08
4.85224580498e-06
8.39729203366e-08
4.85259598768e-06
8.81757033323e-08
4.8520444769e-06
9.18854083045e-08
4.85061867336e-06
9.56016140279e-08
4.84830822775e-06
9.96428418804e-08
4.84508248372e-06
1.0424128396e-07
4.84090473727e-06
1.09630612332e-07
4.83574302648e-06
1.16070995705e-07
4.82958806442e-06
1.23860626453e-07
4.82248664818e-06
1.33345623852e-07
4.81459839365e-06
1.44915952309e-07
4.80627663424e-06
1.58960948898e-07
4.79814963533e-06
1.75760796958e-07
1.95190899298e-07
4.7910299646e-06
5.18506982218e-06
3.69535743362e-08
5.19045404796e-06
5.93220421248e-08
5.19380541603e-06
6.98726270305e-08
5.19596870823e-06
7.67434505631e-08
5.1972872065e-06
8.26515606683e-08
5.19771807543e-06
8.77422183721e-08
5.19725957046e-06
9.23414012915e-08
5.19593473514e-06
9.69241502581e-08
5.19374408046e-06
1.01831272532e-07
5.19067393169e-06
1.07309410476e-07
5.18671261318e-06
1.1358998632e-07
5.18186481426e-06
1.20916997827e-07
5.17617149417e-06
1.29552149013e-07
5.16974195225e-06
1.39773430782e-07
5.16279943224e-06
1.51856703502e-07
5.1557328669e-06
1.66025823536e-07
5.14912815426e-06
1.82363330172e-07
2.00623763399e-07
5.14369327998e-06
5.55567879511e-06
3.26097626384e-08
5.56051706664e-06
5.44811242341e-08
5.56386043434e-06
6.6526445897e-08
5.56606346151e-06
7.4537697212e-08
5.56744117675e-06
8.12712539775e-08
5.56797832911e-06
8.72026156177e-08
5.56765704567e-06
9.26603468933e-08
5.56649489052e-06
9.80840731529e-08
5.56450381439e-06
1.03820222154e-07
5.56168977155e-06
1.10121410058e-07
5.55806844874e-06
1.17209411037e-07
5.55368132907e-06
1.25302228486e-07
5.54861554635e-06
1.34616121966e-07
5.54303086413e-06
1.45356264884e-07
5.53719237733e-06
1.57693390577e-07
5.53149770479e-06
1.71718720214e-07
5.52647825203e-06
1.87380935907e-07
2.04367667628e-07
5.52273129924e-06
5.95323455392e-06
2.91484696286e-08
5.95751740756e-06
5.01953381457e-08
5.96079375728e-06
6.32471436579e-08
5.9630484547e-06
7.2280122932e-08
5.96451388459e-06
7.98031770689e-08
5.96519577444e-06
8.65182018109e-08
5.96507051834e-06
9.27833011421e-08
5.96415110142e-06
9.90012698226e-08
5.96246015044e-06
1.05509149608e-07
5.96002393658e-06
1.12555782321e-07
5.95688548858e-06
1.20346059903e-07
5.95312067288e-06
1.29065293153e-07
5.94885570243e-06
1.38879414238e-07
5.9442874068e-06
1.49922852265e-07
5.93970321817e-06
1.6227594252e-07
5.93549027355e-06
1.75930036203e-07
5.93212055126e-06
1.90748444649e-07
2.06394187665e-07
5.93009191653e-06
6.37959759569e-06
2.63604327634e-08
6.38336327962e-06
4.64269424153e-08
6.38653516975e-06
6.0072374552e-08
6.38885399307e-06
6.99585343413e-08
6.39044567039e-06
7.82088076712e-08
6.39132287981e-06
8.56385071008e-08
6.3914629918e-06
9.26407684516e-08
6.3908769428e-06
9.95850952069e-08
6.38959717192e-06
1.06786817298e-07
6.38766976088e-06
1.14481228643e-07
6.38516368416e-06
1.22850228499e-07
6.3821848838e-06
1.32042334405e-07
6.37888998206e-06
1.42172485295e-07
6.37549925732e-06
1.53311869317e-07
6.37230568693e-06
1.6546778205e-07
6.36967164681e-06
1.78562394905e-07
6.36800639258e-06
1.92411927976e-07
2.06688281542e-07
6.36770956867e-06
5.7427988083e-06
2.43931811231e-08
5.74563241673e-06
4.35905180434e-08
5.74822291109e-06
5.74790275891e-08
5.7502459383e-06
6.7932766878e-08
5.75172570501e-06
7.67264269279e-08
5.75266698362e-06
8.46947892288e-08
5.75305367406e-06
9.22517620808e-08
5.75289536797e-06
9.97412428823e-08
5.75222611328e-06
1.0745405624e-07
5.75109825577e-06
1.15607223197e-07
5.74958709683e-06
1.24359654883e-07
5.74779990627e-06
1.33827284881e-07
5.74588454719e-06
1.44086315153e-07
5.74403426276e-06
1.55160047149e-07
5.74249030737e-06
1.67010245703e-07
5.74153281961e-06
1.795180317e-07
5.74146310072e-06
1.9247947964e-07
2.05573493641e-07
5.74257558893e-06
7.00006429932e-06
2.24820705673e-08
7.00297350379e-06
4.06788920088e-08
7.00584390785e-06
5.46061781141e-08
7.00824931609e-06
6.55249111438e-08
7.0101374739e-06
7.48359748535e-08
7.01149871247e-06
8.33313116672e-08
7.01231798153e-06
9.14304246359e-08
7.01260896961e-06
9.94482810504e-08
7.01241822321e-06
1.07643002957e-07
7.01181940938e-06
1.16204394651e-07
7.01091514117e-06
1.25261499601e-07
7.00984499218e-06
1.34895821764e-07
7.00878832819e-06
1.45140552513e-07
7.00796847644e-06
1.55978483605e-07
7.0076454648e-06
1.67331024508e-07
7.00810585243e-06
1.79056145062e-07
7.00963713664e-06
1.90945611583e-07
2.02714839133e-07
7.01249400369e-06
8.53270259545e-06
2.0624235577e-08
8.53568742059e-06
3.76918257536e-08
8.53887646019e-06
5.14147734564e-08
8.54177671476e-06
6.26225695313e-08
8.54425283311e-06
7.23575774967e-08
8.54626904586e-06
8.13131640723e-08
8.54780958173e-06
8.98877917097e-08
8.54889390495e-06
9.83622029944e-08
8.54958203976e-06
1.06953066637e-07
8.54996962825e-06
1.15814649028e-07
8.55018769168e-06
1.25041278189e-07
8.55040415888e-06
1.34676933204e-07
8.55082566927e-06
1.44717137648e-07
8.55169257263e-06
1.55109431353e-07
8.5532715302e-06
1.65750521595e-07
8.55583680657e-06
1.76488625483e-07
8.5596512487e-06
1.87129657153e-07
1.97431129967e-07
8.56493207408e-06
1.04010677089e-05
1.87733949311e-08
1.04041960331e-05
3.45611676517e-08
1.0407811462e-05
4.77972779575e-08
1.04113967413e-05
5.90349009655e-08
1.04147431952e-05
6.90092686403e-08
1.04177791191e-05
7.82749189351e-08
1.04204846284e-05
8.71806000806e-08
1.04228840543e-05
9.59606056746e-08
1.04250503685e-05
1.04785062841e-07
1.04270978616e-05
1.13764440137e-07
1.04291805085e-05
1.22956601395e-07
1.04314856829e-05
1.32368851511e-07
1.04342337843e-05
1.41967542774e-07
1.04376652779e-05
1.51675563429e-07
1.04420332955e-05
1.61381301146e-07
1.04475814484e-05
1.70938417557e-07
1.04545293012e-05
1.80180340284e-07
1.8891282014e-07
1.04630463447e-05
1.2678744819e-05
1.68161501067e-08
1.26821993466e-05
3.11043895491e-08
1.26864844292e-05
4.35097452317e-08
1.2691092978e-05
5.44242905836e-08
1.26957606776e-05
6.43391594361e-08
1.27003772618e-05
7.36564881712e-08
1.27049098277e-05
8.26456593886e-08
1.2709384633e-05
9.14841868551e-08
1.27138790337e-05
1.00287944933e-07
1.27185186095e-05
1.09123124563e-07
1.27234631371e-05
1.18008725498e-07
1.27289059497e-05
1.2692484839e-07
1.27350553436e-05
1.35815175064e-07
1.27421342511e-05
1.44596064156e-07
1.27503544866e-05
1.53158404487e-07
1.27599142976e-05
1.61378488603e-07
1.27709692687e-05
1.69122696057e-07
1.76250669908e-07
1.27836317963e-05
1.54554514236e-05
1.45423223337e-08
1.54595913655e-05
2.69619552138e-08
1.54650141255e-05
3.80845322948e-08
1.54712281963e-05
4.82078137754e-08
1.5477929327e-05
5.76357223858e-08
1.54849655538e-05
6.66179757571e-08
1.54922820731e-05
7.53270130617e-08
1.54998927301e-05
8.38713112025e-08
1.55078675127e-05
9.23110778072e-08
1.55163206103e-05
1.00667463816e-07
1.5525399843e-05
1.08927522081e-07
1.55352722833e-05
1.17050025333e-07
1.55461150856e-05
1.24970868642e-07
1.55580997639e-05
1.32609282757e-07
1.5571383644e-05
1.39873481899e-07
1.55860930449e-05
1.46667209657e-07
1.56023190946e-05
1.52896114727e-07
1.58467188847e-07
1.5620100646e-05
1.88405734801e-05
1.16035768161e-08
1.88460166997e-05
2.15160810347e-08
1.88533781748e-05
3.07204379607e-08
1.88621421494e-05
3.94412071091e-08
1.88719547833e-05
4.78206548892e-08
1.88826136123e-05
5.5956598526e-08
1.8894025093e-05
6.39133524055e-08
1.89061701648e-05
7.17237391451e-08
1.89190873459e-05
7.93919264981e-08
1.89328538915e-05
8.68983076291e-08
1.89475753493e-05
9.42043053492e-08
1.89633659656e-05
1.01256838756e-07
1.89803426923e-05
1.07992710905e-07
1.89986063952e-05
1.14343125493e-07
1.90182406128e-05
1.20238183733e-07
1.90392942655e-05
1.25611144141e-07
1.90617873334e-05
1.30402464588e-07
1.34558602389e-07
1.90856933354e-05
2.29675731312e-05
7.36467928083e-09
2.29753927575e-05
1.36933626427e-08
2.2986040773e-05
2.00693376608e-08
2.29988599067e-05
2.66189968142e-08
2.30133961249e-05
3.32815408215e-08
2.30293731422e-05
3.99766029858e-08
2.30466345866e-05
4.66492768548e-08
2.30651009757e-05
5.32544061894e-08
2.30847502458e-05
5.9740348877e-08
2.31055942454e-05
6.6051382269e-08
2.31276676995e-05
7.21288621792e-08
2.31510068092e-05
7.79148259913e-08
2.31756460744e-05
8.3351783713e-08
2.32016002695e-05
8.838616349e-08
2.32288679188e-05
9.29692755346e-08
2.32574158577e-05
9.70604882683e-08
2.32871895988e-05
1.00628024818e-07
1.03648460439e-07
2.33180970356e-05
1.68145562497e-05
3.51100297127e-09
1.68215346668e-05
6.71193596426e-09
1.68308656248e-05
1.07361977501e-08
1.68419354017e-05
1.55459411415e-08
1.68543792295e-05
2.08358296727e-08
1.68679839043e-05
2.63683850401e-08
1.68826178235e-05
3.20138400391e-08
1.68981921432e-05
3.76766180396e-08
1.69146602073e-05
4.32711434124e-08
1.6931990827e-05
4.87174631254e-08
1.69501700917e-05
5.39486175832e-08
1.69691782673e-05
5.89034697883e-08
1.69889989193e-05
6.35303080253e-08
1.70095997122e-05
6.77823136822e-08
1.70309452504e-05
7.16229353183e-08
1.7052980377e-05
7.50223858064e-08
1.7075645511e-05
7.7962214646e-08
8.0429668511e-08
1.70988613273e-05
1.46386825286e-05
-6.05369257864e-10
1.46459914985e-05
-5.99321892999e-10
1.46554577577e-05
1.26709578982e-09
1.46664042645e-05
4.59717350961e-09
1.46785203516e-05
8.71671547363e-09
1.46916432825e-05
1.3243585891e-08
1.47056533815e-05
1.80006424076e-08
1.47204697515e-05
2.28587868924e-08
1.47360378801e-05
2.77002643151e-08
1.4752322551e-05
3.24314608381e-08
1.47692895901e-05
3.6978976554e-08
1.47869076498e-05
4.1284229134e-08
1.48051377395e-05
4.52976853984e-08
1.48239394027e-05
4.89795545992e-08
1.48432618134e-05
5.22980750336e-08
1.48630525937e-05
5.52306553349e-08
1.48832501546e-05
5.77622212494e-08
5.98856416684e-08
1.49037934966e-05
1.27446685877e-05
-5.1441466321e-09
1.27524225165e-05
-8.35568180161e-09
1.27619543639e-05
-8.26694545706e-09
1.27725817724e-05
-6.0327637458e-09
1.27841236329e-05
-2.82735490197e-09
1.2796478912e-05
8.85561830102e-10
1.28095494837e-05
4.92811568561e-09
1.28232674107e-05
9.1387014193e-09
1.28375906997e-05
1.33751402005e-08
1.28524858858e-05
1.75345319125e-08
1.28679185739e-05
2.15444315509e-08
1.28838518793e-05
2.53492513851e-08
1.29002441855e-05
2.89034017379e-08
1.29170500666e-05
3.21720823159e-08
1.29342181818e-05
3.51281394309e-08
1.29516935084e-05
3.77538536265e-08
1.29694162271e-05
4.00380430004e-08
4.19777497578e-08
1.29873224537e-05
1.10961455446e-05
-1.03628829405e-08
1.11044684771e-05
-1.66807809345e-08
1.11139556848e-05
-1.7756557927e-08
1.1124101614e-05
-1.61809694979e-08
1.11349278381e-05
-1.36560127976e-08
1.11463842048e-05
-1.05728562307e-08
1.11583906434e-05
-7.08048502757e-09
1.11709048809e-05
-3.37753035566e-09
1.11839042259e-05
3.74208227668e-10
1.11973622592e-05
4.07443780828e-09
1.12112480833e-05
7.65717511179e-09
1.12255243088e-05
1.10707942082e-08
1.12401511358e-05
1.42753466789e-08
1.12550825277e-05
1.72383537403e-08
1.12702726806e-05
1.99370103892e-08
1.12856721182e-05
2.23523642989e-08
1.13012382632e-05
2.44710818271e-08
2.62826466496e-08
1.13169313644e-05
9.66145597179e-06
-1.66063667669e-08
9.67042844204e-06
-2.56554234213e-08
9.67969467304e-06
-2.70248112414e-08
9.6892151921e-06
-2.57038230331e-08
9.69922281171e-06
-2.36657850291e-08
9.70967897919e-06
-2.10313782689e-08
9.72053094057e-06
-1.7934502361e-08
9.73177118116e-06
-1.46196265503e-08
9.74339442153e-06
-1.12508898771e-08
9.7553828958e-06
-7.91555084229e-09
9.76771112152e-06
-4.67290395417e-09
9.78034898051e-06
-1.56864706697e-09
9.79326011742e-06
1.36205544563e-09
9.80640269486e-06
4.09432731645e-09
9.81972927555e-06
6.60875957505e-09
9.83319027399e-06
8.89001830383e-09
9.8467348489e-06
1.0925183602e-08
1.27030792636e-08
9.86031298252e-06
8.41317817973e-06
-2.44343150398e-08
8.42275271582e-06
-3.52321823233e-08
8.43157251358e-06
-3.58469425773e-08
8.44041061554e-06
-3.45442345588e-08
8.44960899213e-06
-3.2866392238e-08
8.45909917795e-06
-3.05234438665e-08
8.4688621043e-06
-2.76995737064e-08
8.47892077971e-06
-2.46802473443e-08
8.48928209022e-06
-2.16138734579e-08
8.49993569935e-06
-1.8570985807e-08
8.51086207595e-06
-1.56010507775e-08
8.52203481918e-06
-1.27433069761e-08
8.53342061288e-06
-1.00253305317e-08
8.54498004408e-06
-7.46682089927e-09
8.55666994206e-06
-5.08270244326e-09
8.56844566164e-06
-2.88692776764e-09
8.58026898557e-06
-9.0006262418e-10
8.42776921303e-10
8.59212816395e-06
7.32728533198e-06
-3.44374252987e-08
7.33716310199e-06
-4.51121184083e-08
7.3452783848e-06
-4.39642990124e-08
7.35335444123e-06
-4.26226830274e-08
7.36166064741e-06
-4.11748080454e-08
7.37012290883e-06
-3.89878406004e-08
7.37878056928e-06
-3.63592471027e-08
7.38767899323e-06
-3.35805223562e-08
7.39682890866e-06
-3.07655210416e-08
7.40622274911e-06
-2.79664640966e-08
7.41584442308e-06
-2.52245428999e-08
7.42567156893e-06
-2.25721804811e-08
7.43567480563e-06
-2.00303999346e-08
7.44581862522e-06
-1.76122776261e-08
7.45605958898e-06
-1.53251631662e-08
7.46634442777e-06
-1.31732676174e-08
7.47661017379e-06
-1.11672947241e-08
-9.3457836721e-09
7.48679688687e-06
6.38319598677e-06
-4.75694308329e-08
6.39281910041e-06
-5.47372881367e-08
6.40024347618e-06
-5.13907163625e-08
6.40769587999e-06
-5.00776259129e-08
6.41518317334e-06
-4.86639077076e-08
6.42269275364e-06
-4.64990573974e-08
6.43032661945e-06
-4.39950110048e-08
6.43814265587e-06
-4.13983009844e-08
6.44615633009e-06
-3.87807728713e-08
6.45436640824e-06
-3.61781253837e-08
6.46276280975e-06
-3.36229944587e-08
6.47132915977e-06
-3.11399375259e-08
6.48004184924e-06
-2.87445281542e-08
6.48887159177e-06
-2.64435683507e-08
6.49778062255e-06
-2.42355985661e-08
6.50671535414e-06
-2.21093156127e-08
6.51559912399e-06
-2.00525383753e-08
-1.80881594358e-08
6.52433953749e-06
5.56224297471e-06
-6.43499885717e-08
5.57029768644e-06
-6.2794132687e-08
5.57682303437e-06
-5.79182050442e-08
5.58335974717e-06
-5.66172410583e-08
5.58968313391e-06
-5.49896000067e-08
5.5959034488e-06
-5.27211543363e-08
5.60214687597e-06
-5.0240366343e-08
5.60846627248e-06
-4.77194761206e-08
5.61488310761e-06
-4.51991887074e-08
5.62140746756e-06
-4.27042890797e-08
5.62804133887e-06
-4.02588749547e-08
5.63478037333e-06
-3.7880672116e-08
5.6416144607e-06
-3.55800843839e-08
5.64852920262e-06
-3.33598366732e-08
5.65550337591e-06
-3.12111638077e-08
5.66249436916e-06
-2.91015461162e-08
5.66939425069e-06
-2.69541354694e-08
-2.45598789224e-08
5.67586431596e-06
4.84629120527e-06
-8.30362770181e-08
4.84837729693e-06
-6.48825986468e-08
4.84978863425e-06
-5.93321129788e-08
4.85007946109e-06
-5.69114057461e-08
4.84936782313e-06
-5.42806182696e-08
4.84808187512e-06
-5.14373047485e-08
4.8464676748e-06
-4.86283489253e-08
4.8446693169e-06
-4.59231442024e-08
4.84279627186e-06
-4.33280223195e-08
4.84093516568e-06
-4.08453536167e-08
4.8391520167e-06
-3.84781760738e-08
4.83749626102e-06
-3.62269037484e-08
4.83600409406e-06
-3.40896669087e-08
4.83470352555e-06
-3.20610126418e-08
4.83361977639e-06
-3.01289836922e-08
4.83277699734e-06
-2.82603366193e-08
4.83218867361e-06
-2.6367647687e-08
-2.36337166304e-08
4.83126044721e-06
4.11963977801e-06
4.0547569783e-06
3.99542456502e-06
3.93851289749e-06
3.88423206395e-06
3.83279451326e-06
3.78416591569e-06
3.73824252805e-06
3.69491421014e-06
3.65406847406e-06
3.6155899622e-06
3.57936275348e-06
3.54527275383e-06
3.51321141448e-06
3.48308210574e-06
3.45482135213e-06
3.42845318005e-06
3.40481912148e-06
4.96717987049e-08
-4.97721042657e-08
2.32922131256e-08
2.62823095063e-08
-1.24325389398e-07
1.47574885373e-07
-3.34284573814e-07
2.09928112792e-07
-5.64373953728e-07
2.30075617853e-07
-8.07682724157e-07
2.43293068173e-07
-1.06156663773e-06
2.53876960943e-07
-1.32403991862e-06
2.62462861428e-07
-1.59335919335e-06
2.69314411538e-07
-1.8679626483e-06
2.74595575673e-07
-2.14638810864e-06
2.78421647731e-07
-2.42727499375e-06
2.80880539465e-07
-2.70932364292e-06
2.82045494056e-07
-2.99131012798e-06
2.81981275655e-07
-3.27206226926e-06
2.80749503301e-07
-3.55047772993e-06
2.7841112373e-07
-3.82550927608e-06
2.75029339299e-07
-4.09618342828e-06
2.70670434697e-07
-4.36159074467e-06
2.65405287919e-07
-4.62090312568e-06
2.59309033302e-07
-4.87336654492e-06
2.52461439696e-07
-5.11831545045e-06
2.4494569404e-07
-5.35516552604e-06
2.36847930303e-07
-5.58342414233e-06
2.28255380567e-07
-5.80268203132e-06
2.19255460284e-07
-6.01261910493e-06
2.099337926e-07
-6.21299498517e-06
2.00373278798e-07
-6.40365078975e-06
1.90652494284e-07
-6.58449887121e-06
1.80845287635e-07
-6.75552209082e-06
1.7101989179e-07
-6.91676418022e-06
1.61239221435e-07
-7.06832826599e-06
1.51560754972e-07
-7.21036866635e-06
1.42037430726e-07
-7.34308993729e-06
1.32717919505e-07
-7.46674052791e-06
1.23647570423e-07
-7.58161244178e-06
1.14868501665e-07
-7.68803561927e-06
1.06420042586e-07
-7.78637721886e-06
9.83380822917e-08
-7.87703506532e-06
9.06546077556e-08
-7.96043478568e-06
8.33961159429e-08
-8.03702051489e-06
7.65824443374e-08
-8.10724880333e-06
7.02246423287e-08
-8.17157579895e-06
6.43237141594e-08
-8.23044811511e-06
5.88686447682e-08
-8.2842872093e-06
5.38358478343e-08
-8.33347951077e-06
4.91885711459e-08
-8.37836078954e-06
4.48779577286e-08
-8.41920880559e-06
4.0844097373e-08
-8.45623093133e-06
3.70186188272e-08
-8.48956268086e-06
3.33274162354e-08
-8.51926227011e-06
2.96955836761e-08
-8.54531764805e-06
2.60503371219e-08
-8.56764517149e-06
2.23227683023e-08
-8.58610319519e-06
1.84521865335e-08
-8.60050042326e-06
1.43918114901e-08
-8.61061475693e-06
1.01077089042e-08
-8.61619913934e-06
5.57822581922e-09
-8.61701005186e-06
8.03602359939e-10
-8.61288768303e-06
-4.12893533875e-09
-8.60380737897e-06
-9.08814701888e-09
-8.58984628538e-06
-1.39681230387e-08
-8.57118306309e-06
-1.8671408457e-08
-8.548080949e-06
-2.31091631881e-08
-8.52088461592e-06
-2.72047414846e-08
-8.48999546592e-06
-3.08964064604e-08
-8.45585899766e-06
-3.4145146726e-08
-8.41893212682e-06
-3.69342795025e-08
-8.37966970273e-06
-3.92712388453e-08
-8.33849379857e-06
-4.11832491975e-08
-8.29578683227e-06
-4.27157379853e-08
-8.25187027034e-06
-4.39238584201e-08
-8.20701062981e-06
-4.4868557121e-08
-8.16141137378e-06
-4.5606876907e-08
-8.11523233243e-06
-4.61887603205e-08
-8.06859169468e-06
-4.66493304685e-08
-8.02159341054e-06
-4.70096458304e-08
-7.97433078568e-06
-4.72731446076e-08
-7.92691179134e-06
-4.74318069781e-08
-7.87945556513e-06
-4.74676321271e-08
-7.83210634299e-06
-4.73631173635e-08
-7.78501384077e-06
-4.71049369487e-08
-7.73833297551e-06
-4.66955466062e-08
-7.69219035457e-06
-4.61553039764e-08
-7.64667517115e-06
-4.55308839346e-08
-7.60179776053e-06
-4.48912245287e-08
-7.55748348154e-06
-4.43306206647e-08
-7.5135384718e-06
-4.39580545445e-08
-7.46965462565e-06
-4.38965207788e-08
-7.42539284356e-06
-4.42705163467e-08
-7.3801944575e-06
-4.52039171147e-08
-7.33338579234e-06
-4.68161067803e-08
-7.28417623729e-06
-4.92187259563e-08
-7.23166762049e-06
-5.2518818153e-08
-7.17485637173e-06
-5.68210685561e-08
-7.1126346895e-06
-6.2231653959e-08
-7.04378518108e-06
-6.88588736917e-08
-6.96698361337e-06
-7.68114548808e-08
-6.88080251015e-06
-8.61911128143e-08
-6.78372822865e-06
-9.70856254539e-08
-6.67418536216e-06
-1.09555880849e-07
-6.55058361443e-06
-1.23617655992e-07
-6.41138136371e-06
-1.39225308012e-07
-6.25515631729e-06
-1.56252190488e-07
-6.08069818152e-06
-1.7449482884e-07
-5.88706558052e-06
-1.93667631677e-07
-5.67368983021e-06
-2.134162139e-07
-5.44043459508e-06
-2.3328777911e-07
-5.18771923717e-06
-2.52751063133e-07
-4.91648310915e-06
-2.71262089054e-07
-4.62808158951e-06
-2.88431127573e-07
-4.32425443496e-06
-3.03846945265e-07
-4.00721444567e-06
-3.17064122441e-07
-3.67942095057e-06
-3.27807531765e-07
-3.34324053829e-06
-3.36199203855e-07
-3.00157988087e-06
-3.41669188465e-07
-2.65764347642e-06
-3.43949899002e-07
-2.31442439046e-06
-3.43222265314e-07
-1.97515650605e-06
-3.39274028264e-07
-1.64196222496e-06
-3.33192174935e-07
-1.31991566168e-06
-3.22054229972e-07
-1.00902618007e-06
-3.10901296819e-07
-7.16661094808e-07
-2.92401583432e-07
-4.44035059205e-07
-2.72680187435e-07
-1.43624253284e-07
-3.00485915097e-07
1.69789833992e-07
-3.13488961877e-07
4.58093407387e-07
-2.88360051985e-07
7.09096512889e-07
-2.51040299864e-07
9.29130773123e-07
-2.20068237359e-07
1.12425566482e-06
-1.95150040988e-07
1.2976900966e-06
-1.7346043983e-07
1.45134613575e-06
-1.53677064434e-07
1.58657786684e-06
-1.35255467349e-07
1.70450226981e-06
-1.17945243341e-07
1.80611357511e-06
-1.01635527336e-07
1.89235600232e-06
-8.6264458404e-08
1.96413762983e-06
-7.18069291054e-08
2.02235662158e-06
-5.82421041645e-08
2.06789277924e-06
-4.55644505897e-08
2.10163208078e-06
-3.37683086622e-08
2.12446537519e-06
-2.28717414921e-08
2.13736916568e-06
-1.29467440476e-08
2.14163787706e-06
-4.32503899448e-09
2.13877805597e-06
2.79735984773e-09
2.12968119005e-06
9.02352439009e-09
2.11486174975e-06
1.47442458827e-08
2.09497915328e-06
1.98011526461e-08
2.07070389738e-06
2.419575913e-08
2.04264926586e-06
2.79718773711e-08
2.01138830279e-06
3.11820507579e-08
1.97743655322e-06
3.38709553813e-08
1.94128091017e-06
3.60792983484e-08
1.90335852619e-06
3.78447561655e-08
1.86408142732e-06
3.92039905413e-08
1.82381515708e-06
4.01922819814e-08
1.78290209662e-06
4.08435119353e-08
1.74164144452e-06
4.11906695422e-08
1.7003110905e-06
4.1264705171e-08
1.65914928966e-06
4.1096258636e-08
1.61837451154e-06
4.07134514797e-08
1.57816918108e-06
4.01447469488e-08
1.53869691136e-06
3.94157978644e-08
1.50008851764e-06
3.85534495082e-08
1.46245604527e-06
3.75816364034e-08
1.42588133826e-06
3.65264020065e-08
1.39042603093e-06
3.54112382249e-08
1.35612276006e-06
3.4262887536e-08
1.32298048408e-06
3.31062300643e-08
1.29097815895e-06
3.19710188508e-08
1.26006431102e-06
3.08866830394e-08
1.23015230713e-06
2.98902743604e-08
1.20111224506e-06
2.90217894479e-08
1.17276557343e-06
2.83339540669e-08
1.144865137e-06
2.78899578339e-08
1.11708197888e-06
2.77779492865e-08
1.0889607861e-06
2.81166490425e-08
1.05987441424e-06
2.90864826712e-08
1.0289115001e-06
3.09623893207e-08
9.94577039936e-07
3.43412102848e-08
9.54977551334e-07
3.96118223428e-08
5.45183305188e-08
9.00487398742e-07
-2.02907776335e-07
1.53101808912e-07
-4.44913398048e-07
2.68266783541e-07
-6.36306387449e-07
3.38955867522e-07
-8.26945482648e-07
4.00555137001e-07
-1.04100456216e-06
4.44127171005e-07
-1.27449422685e-06
4.76773991338e-07
-1.5226848563e-06
5.02062113792e-07
-1.78205211428e-06
5.218232651e-07
-2.04987114471e-06
5.37129147347e-07
-2.32393400283e-06
5.48652734085e-07
-2.6023532786e-06
5.56837268754e-07
-2.88346798471e-06
5.6199044123e-07
-3.16576578328e-06
5.64340166409e-07
-3.44785679229e-06
5.64068227108e-07
-3.72844162978e-06
5.61331672917e-07
-4.00631032452e-06
5.56276373278e-07
-4.28032934905e-06
5.4904606578e-07
-4.5494498068e-06
5.39787912844e-07
-4.81270257455e-06
5.28655972983e-07
-5.06920888516e-06
5.15812603293e-07
-5.31817811848e-06
5.0142863699e-07
-5.55891717906e-06
4.85682114279e-07
-5.79082773823e-06
4.68756315194e-07
-6.01341198983e-06
4.50836885154e-07
-6.22626769778e-06
4.32108770205e-07
-6.42908963625e-06
4.12752878479e-07
-6.62166216129e-06
3.92943182489e-07
-6.80385681893e-06
3.7284414665e-07
-6.97562341291e-06
3.52609064805e-07
-7.13698570073e-06
3.32379088903e-07
-7.28803274332e-06
3.12283317557e-07
-7.42891462185e-06
2.92439463717e-07
-7.55983546844e-06
2.72955236695e-07
-7.68105052812e-06
2.53929753919e-07
-7.79286108885e-06
2.35455002883e-07
-7.89561250002e-06
2.17616595184e-07
-7.98968965246e-06
2.00493944494e-07
-8.07551411664e-06
1.84159109605e-07
-8.15353772662e-06
1.68674854819e-07
-8.22423674833e-06
1.54091610442e-07
-8.2881016851e-06
1.40443959161e-07
-8.34562719595e-06
1.27746586024e-07
-8.39729733174e-06
1.15990413531e-07
-8.44357205528e-06
1.05139783179e-07
-8.48487114086e-06
9.51314971191e-08
-8.52156096451e-06
8.58747796099e-08
-8.55393988296e-06
7.72533702536e-08
-8.58222829211e-06
6.91287225149e-08
-8.60656194971e-06
6.13485575785e-08
-8.62699439321e-06
5.37557533627e-08
-8.64349885601e-06
4.61958344954e-08
-8.6559723405e-06
3.85190273388e-08
-8.66425107868e-06
3.05965764163e-08
-8.66813993172e-06
2.23355417765e-08
-8.66742448337e-06
1.36706561936e-08
-8.66188543879e-06
4.56230274301e-09
-8.65135739695e-06
-4.95628118796e-09
-8.63595224274e-06
-1.46085578697e-08
-8.61594461583e-06
-2.41436505393e-08
-8.59156159042e-06
-3.34788088296e-08
-8.56306226487e-06
-4.24750148731e-08
-8.53075554119e-06
-5.09861099119e-08
-8.49499215222e-06
-5.88804127985e-08
-8.456151674e-06
-6.60534859817e-08
-8.41461823546e-06
-7.24379823146e-08
-8.37076231052e-06
-7.80096307403e-08
-8.32491934543e-06
-8.27855841876e-08
-8.27737790266e-06
-8.68213033998e-08
-8.22836793577e-06
-9.02014809172e-08
-8.17806240447e-06
-9.30297383089e-08
-8.12657943937e-06
-9.54150038573e-08
-8.07399690894e-06
-9.74596755498e-08
-8.0203650238e-06
-9.92472264757e-08
-7.96572824922e-06
-1.00834776191e-07
-7.91014000937e-06
-1.02247245507e-07
-7.8536816937e-06
-1.03478819527e-07
-7.79646919875e-06
-1.04496902902e-07
-7.73865999916e-06
-1.05253195034e-07
-7.68044450972e-06
-1.05695584995e-07
-7.62203658335e-06
-1.05784471457e-07
-7.56364899943e-06
-1.0550593835e-07
-7.50547331408e-06
-1.04885396631e-07
-7.44764933892e-06
-1.03993521182e-07
-7.39024562681e-06
-1.02949958296e-07
-7.33323498988e-06
-1.01917368462e-07
-7.27648789543e-06
-1.01093738434e-07
-7.21976421616e-06
-1.00696929946e-07
-7.16272199858e-06
-1.00952171695e-07
-7.10492262253e-06
-1.0207882953e-07
-7.04584879684e-06