/*--------------------------------*- C++ -*----------------------------------*\
| =========                 |                                                 |
| \\      /  F ield         | OpenFOAM: The Open Source CFD Toolbox           |
|  \\    /   O peration     | Version:  v1806                                 |
|   \\  /    A nd           | Web:      www.OpenFOAM.com                      |
|    \\/     M anipulation  |                                                 |
\*---------------------------------------------------------------------------*/
FoamFile
{
    version     2.0;
    format      ascii;
    class       volVectorField;
    location    "25";
    object      Ua;
}
// * * * * * * * * * * * * * * * * * * * * * * * * * * * * * * * * * * * * * //

dimensions      [0 1 -1 0 0 0 0];


internalField   nonuniform List<vector> 
12225
(
(0.304004122047 62.7115542277 0)
(0.984907377598 13.7659587143 0)
(0.835134442981 13.7549510856 0)
(0.91702197305 13.4081690556 0)
(0.931935225622 13.1514359114 0)
(0.978100691878 12.8554634552 0)
(1.0137870179 12.5270246905 0)
(1.05118009716 12.179649621 0)
(1.08461334137 11.8338509921 0)
(1.12247716774 11.5119301115 0)
(1.17365605471 11.2101924908 0)
(1.24369236344 10.8940890378 0)
(1.31807911417 10.505840717 0)
(1.37323052386 10.0237638551 0)
(1.45652811776 9.50983907343 0)
(1.79696818007 8.94074825041 0)
(2.62906573629 7.66484856825 0)
(3.25049733476 4.12525858069 0)
(3.38963863137 -55.3520346127 0)
(1.06440451128 -8.99961517975 0)
(1.47562401058 -8.9010546949 0)
(1.39857187102 -8.59033876237 0)
(1.47327712743 -8.33571809044 0)
(1.50652694827 -8.0866977114 0)
(1.55132117092 -7.84750026813 0)
(1.5922581853 -7.61997299732 0)
(1.63723704925 -7.39230503204 0)
(1.69168762783 -7.14994290065 0)
(1.76224992729 -6.87218869206 0)
(1.84671093919 -6.54427278375 0)
(1.92729903422 -6.16365587999 0)
(1.98931325065 -5.73548955395 0)
(2.08299514452 -5.24484114536 0)
(2.35899145342 -4.63451831266 0)
(2.84888239351 -3.88974248888 0)
(2.92813462387 -3.21489828171 0)
(-1.26640347577 42.8680847411 0)
(1.28196680604 4.65056627711 0)
(0.982164956392 4.35042920364 0)
(1.09924733215 4.21575768563 0)
(1.07606721018 4.05029753056 0)
(1.09516302551 3.88128663148 0)
(1.09682032197 3.69329758595 0)
(1.10105593466 3.4841854079 0)
(1.10645264184 3.25144534895 0)
(1.12272124095 2.99528938075 0)
(1.15533651965 2.71482567128 0)
(1.20154429654 2.40490521122 0)
(1.24543321549 2.05781292098 0)
(1.27980801474 1.67601012315 0)
(1.35618402044 1.27944526488 0)
(1.58655796456 0.859706685949 0)
(1.94612157965 0.263252541574 0)
(2.01415586861 -0.710076994595 0)
(3.11569838813 -30.6428549701 0)
(0.903584335215 -2.39679332137 0)
(1.25597549233 -2.2442606046 0)
(1.17326442113 -2.11396946608 0)
(1.22826207773 -1.9761316674 0)
(1.23712877813 -1.82669762647 0)
(1.25389049263 -1.66979344093 0)
(1.26340820706 -1.50295791649 0)
(1.27443001074 -1.3263808256 0)
(1.29197728595 -1.14160265721 0)
(1.32040964318 -0.954458773861 0)
(1.35459349952 -0.775941153454 0)
(1.38032582223 -0.615557779246 0)
(1.39516568037 -0.466783854235 0)
(1.4411394518 -0.311183233232 0)
(1.57853939835 -0.186085993903 0)
(1.74052873517 -0.27262663514 0)
(1.67835921348 -0.718444256158 0)
(-0.680878560501 20.4562713299 0)
(1.28434164047 1.25124117613 0)
(0.961720050156 1.01134229518 0)
(1.09865719406 0.932644828532 0)
(1.07896992074 0.799808132463 0)
(1.10894695564 0.681305059004 0)
(1.11967691044 0.557175148786 0)
(1.13508486549 0.439409195555 0)
(1.15150885233 0.328905965982 0)
(1.17677800472 0.227578073663 0)
(1.21252930458 0.131141287116 0)
(1.25394085786 0.0320945982505 0)
(1.2913581413 -0.0719020111272 0)
(1.32888641722 -0.165296189019 0)
(1.39831797826 -0.225248798716 0)
(1.51764939038 -0.279047103047 0)
(1.60230759114 -0.436216379097 0)
(1.50947480641 -0.728664114783 0)
(2.54322540313 -13.5825838503 0)
(0.854483210882 -0.720373814577 0)
(1.16819767122 -0.292620872405 0)
(1.08938222798 -0.357591361779 0)
(1.13388779792 -0.277578560605 0)
(1.13865033314 -0.250940039373 0)
(1.15135753189 -0.214389620532 0)
(1.1603990241 -0.184609091158 0)
(1.17236333914 -0.153925506372 0)
(1.19010080403 -0.125555814291 0)
(1.2143695572 -0.10560946369 0)
(1.24042421596 -0.103811929661 0)
(1.26360111551 -0.124241823313 0)
(1.29300278914 -0.158611092624 0)
(1.35184296894 -0.200119524526 0)
(1.43644229958 -0.278118023376 0)
(1.47397061411 -0.444357866545 0)
(1.38846892912 -0.660789269967 0)
(0.0974651429796 8.17117403511 0)
(1.10862811116 0.404865457892 0)
(1.03257101663 0.0369161597494 0)
(1.08738690737 0.103512949609 0)
(1.09097764583 0.0411716526385 0)
(1.10922119246 0.0137663305384 0)
(1.12097827005 -0.0229222656707 0)
(1.13499262189 -0.0530706564355 0)
(1.15123207399 -0.0779550548165 0)
(1.17250150142 -0.0969417480318 0)
(1.19719346126 -0.114514754129 0)
(1.22070403785 -0.13622491678 0)
(1.24084406521 -0.163380427824 0)
(1.26662432816 -0.192249149156 0)
(1.31132243977 -0.228676723414 0)
(1.36205980466 -0.303162649988 0)
(1.36813469295 -0.439776243209 0)
(1.29483498476 -0.593042295011 0)
(1.52414900842 -4.07971618725 0)
(1.0295902884 -0.169927997637 0)
(1.07096879298 -0.00975513774745 0)
(1.07448815942 -0.0484633546707 0)
(1.08918152783 -0.0364822086637 0)
(1.099742373 -0.0450419703793 0)
(1.10978090754 -0.0526964387427 0)
(1.12131894141 -0.0640301219429 0)
(1.135928328 -0.0764536256015 0)
(1.15491603095 -0.0913937286598 0)
(1.17621367819 -0.111412958645 0)
(1.1961247126 -0.138402117389 0)
(1.21408665342 -0.170136457505 0)
(1.2366357241 -0.203358022061 0)
(1.26842448943 -0.245434203269 0)
(1.29425594635 -0.317081666166 0)
(1.28273301007 -0.424414768288 0)
(1.22073207444 -0.53243669205 0)
(0.927892034317 1.35141949356 0)
(1.02177969784 0.00615152907847 0)
(1.05848793413 -0.0291204660573 0)
(1.06676115465 -0.0298999311651 0)
(1.07885888276 -0.0418112778662 0)
(1.08911997662 -0.0528424232852 0)
(1.09855317602 -0.0641947729474 0)
(1.1094194028 -0.0754747588417 0)
(1.12270944071 -0.0870967603498 0)
(1.13899392802 -0.101285984312 0)
(1.15626859488 -0.12080432669 0)
(1.17212940099 -0.146802147757 0)
(1.18697783065 -0.177353600543 0)
(1.20464679256 -0.211434201603 0)
(1.22454548417 -0.255713608404 0)
(1.23337425709 -0.321163863238 0)
(1.21336237015 -0.404704235853 0)
(1.16107767212 -0.48277275194 0)
(1.09317899532 -0.453805596798 0)
(1.033380344 -0.0168217950154 0)
(1.04934131307 -0.0270612524328 0)
(1.05937925117 -0.0327369637978 0)
(1.06897395234 -0.0427580975116 0)
(1.07845665999 -0.054292833758 0)
(1.08711657318 -0.0661696384251 0)
(1.09723315817 -0.0784196163331 0)
(1.10909642489 -0.0914324851943 0)
(1.12273261475 -0.107163531934 0)
(1.13637436855 -0.12750400628 0)
(1.14860096213 -0.152895824068 0)
(1.15996940051 -0.182184710082 0)
(1.17201371016 -0.215901557471 0)
(1.18182274762 -0.259029844897 0)
(1.17957527016 -0.315988738024 0)
(1.15612920978 -0.380932797729 0)
(1.11186071428 -0.439028730658 0)
(1.0579296858 -0.0506403175081 0)
(1.027018487 -0.0312264202533 0)
(1.04483206481 -0.0334969913095 0)
(1.05173868866 -0.040936564703 0)
(1.06022412372 -0.0495173754394 0)
(1.06839150002 -0.0604609951194 0)
(1.07619729309 -0.0717103443985 0)
(1.08517725282 -0.0839179685169 0)
(1.0952949195 -0.0974506752008 0)
(1.10621241638 -0.113885212537 0)
(1.1165411398 -0.134303244627 0)
(1.12544489484 -0.158736556346 0)
(1.13319886401 -0.186601663738 0)
(1.13975271931 -0.218950993609 0)
(1.14171366782 -0.25871810229 0)
(1.13263759096 -0.306642989294 0)
(1.10837978087 -0.357097937797 0)
(1.07053711944 -0.401087692163 0)
(1.05055725874 -0.135735958522 0)
(1.02568707299 -0.0316209374479 0)
(1.03769340895 -0.0385320744992 0)
(1.04406109824 -0.0448962407635 0)
(1.05096241094 -0.0534998784877 0)
(1.05808309384 -0.0639636232048 0)
(1.06491606649 -0.0750173254563 0)
(1.07264971262 -0.0872978403687 0)
(1.08098671709 -0.101216918214 0)
(1.08946854052 -0.117956242124 0)
(1.09703131716 -0.13809589596 0)
(1.10314106642 -0.161508525209 0)
(1.10768824152 -0.188030214691 0)
(1.10986568605 -0.218557728484 0)
(1.1067310559 -0.25443016883 0)
(1.09426003228 -0.294697342044 0)
(1.07076240609 -0.334851743619 0)
(1.03796329362 -0.369305398771 0)
(1.04308985487 -0.136280826789 0)
(1.02296277622 -0.0345850921059 0)
(1.03209986693 -0.0399846046292 0)
(1.03722059921 -0.0470004468886 0)
(1.04283635929 -0.0551863150938 0)
(1.04877865313 -0.0654412466852 0)
(1.05454214804 -0.0764013492999 0)
(1.06087508592 -0.0888338718775 0)
(1.06736056996 -0.103020249105 0)
(1.07348994034 -0.119797384613 0)
(1.07850872332 -0.139416802449 0)
(1.08196366499 -0.161748962348 0)
(1.08346750023 -0.186794777291 0)
(1.08193874498 -0.215030227726 0)
(1.07513644168 -0.246721679865 0)
(1.06075644851 -0.280399612272 0)
(1.03847224771 -0.312693121296 0)
(1.00975878702 -0.340189116207 0)
(1.03186162868 -0.162231350519 0)
(1.01973709581 -0.0399926649837 0)
(1.02560527214 -0.0460949109555 0)
(1.02965715936 -0.0529222464165 0)
(1.03381615135 -0.0607976190123 0)
(1.03834655037 -0.0705853577162 0)
(1.0427400686 -0.0813087707283 0)
(1.04733146204 -0.0935921895671 0)
(1.05168568749 -0.107628476647 0)
(1.05530381453 -0.12389067161 0)
(1.05765137518 -0.14240873452 0)
(1.05832383917 -0.163117191457 0)
(1.05677877579 -0.185929197729 0)
(1.05200585353 -0.21095444039 0)
(1.04252562649 -0.237739386435 0)
(1.02729754818 -0.264902019657 0)
(1.006598128 -0.290133530522 0)
(0.981775388036 -0.311514760874 0)
(1.01959494022 -0.14507308201 0)
(1.01570041048 -0.0350514480947 0)
(1.01801398694 -0.0405632491325 0)
(1.02096934134 -0.048113972109 0)
(1.02351735563 -0.0560406165163 0)
(1.02633560467 -0.0658225669684 0)
(1.02899733916 -0.0765918406506 0)
(1.0315161131 -0.0888890041557 0)
(1.03349034699 -0.102754451644 0)
(1.03449642128 -0.118375429231 0)
(1.03413517825 -0.135693196458 0)
(1.03204088075 -0.15456052172 0)
(1.02768437224 -0.174871235872 0)
(1.02034548109 -0.196333042839 0)
(1.00921339539 -0.218362884924 0)
(0.993953723402 -0.23972048093 0)
(0.975160847138 -0.259145006164 0)
(0.953720310319 -0.275350446588 0)
(1.0064870196 -0.256604121291 0)
(1.00891563686 -0.0687283321706 0)
(1.01108484922 -0.072616993548 0)
(1.01208976586 -0.0784913005847 0)
(1.01314280929 -0.0847570682548 0)
(1.01396562934 -0.0927931129631 0)
(1.01467785413 -0.101912350437 0)
(1.01491689836 -0.112500014071 0)
(1.01449062593 -0.124433885686 0)
(1.01295483144 -0.13772843272 0)
(1.01007266814 -0.152251086717 0)
(1.00549862574 -0.167822544951 0)
(0.998889937805 -0.184240516348 0)
(0.98980146188 -0.201109852913 0)
(0.977953652836 -0.217858499668 0)
(0.963298627238 -0.233664265726 0)
(0.946528141187 -0.247760042916 0)
(0.928188361451 -0.259575609658 0)
(1.02042724321 0.105090719221 0)
(1.00839883499 0.0368654930237 0)
(1.00138311409 0.0247159890533 0)
(1.00116674463 0.0142091893311 0)
(1.00020778749 0.00349286420621 0)
(0.99875841879 -0.00871820048169 0)
(0.99714230025 -0.0217725158572 0)
(0.994906743291 -0.0357971110902 0)
(0.991975558716 -0.0506030258102 0)
(0.987973378726 -0.0661152430651 0)
(0.982730537912 -0.0821104626401 0)
(0.97602277061 -0.0984381947334 0)
(0.967658745804 -0.114779640397 0)
(0.957508790566 -0.13084692079 0)
(0.945494933195 -0.146111600662 0)
(0.931801323988 -0.160180514056 0)
(0.91690774307 -0.172486138273 0)
(0.901524258881 -0.182931333415 0)
(0.887483988237 -1.0592311091 0)
(0.97907593865 -0.256048408991 0)
(0.991576771636 -0.229980287187 0)
(0.992081078336 -0.222777337586 0)
(0.989047374516 -0.217825069914 0)
(0.984882836734 -0.215249391398 0)
(0.980962231498 -0.214037556105 0)
(0.976414545823 -0.214032939576 0)
(0.971286121707 -0.215105633677 0)
(0.965196565581 -0.217118060572 0)
(0.958049985541 -0.219941207024 0)
(0.949720361826 -0.223375171364 0)
(0.94013319043 -0.227204461877 0)
(0.929310321456 -0.231179086368 0)
(0.917274593095 -0.23501722903 0)
(0.904247072345 -0.238492932965 0)
(0.890538504129 -0.241403572293 0)
(0.876198794072 -0.243668921555 0)
(1.32069995118 2.17559779694 0)
(1.05006502147 0.379509211602 0)
(1.01881795561 0.305036727577 0)
(0.991047057134 0.2748285061 0)
(0.984186237081 0.242534831968 0)
(0.977911132633 0.213068150576 0)
(0.972849511107 0.184802652936 0)
(0.967420504845 0.157666067179 0)
(0.96159279529 0.131792481583 0)
(0.955065807143 0.10713212075 0)
(0.94779340095 0.0839346080544 0)
(0.939791022808 0.0621517330529 0)
(0.9310688854 0.0420277519147 0)
(0.921722413539 0.02354173913 0)
(0.91176284466 0.00693423836494 0)
(0.901334451668 -0.00781112299246 0)
(0.89071138789 -0.0205222725409 0)
(0.88078874147 -0.0313255268357 0)
(0.146218764142 -4.01571528311 0)
(0.902986035871 -0.433367867347 0)
(0.897909025628 -0.341190903705 0)
(0.943352216158 -0.341281819563 0)
(0.934958864235 -0.322317699122 0)
(0.929842631648 -0.307935925261 0)
(0.92253031177 -0.293903875844 0)
(0.91458911571 -0.281547505757 0)
(0.90602224502 -0.271030565154 0)
(0.896726124121 -0.26216966777 0)
(0.886743111633 -0.254991661716 0)
(0.876124833772 -0.249163371637 0)
(0.864917593291 -0.244621112252 0)
(0.853299046154 -0.240957430053 0)
(0.841344236683 -0.238132906091 0)
(0.829334411664 -0.235763474247 0)
(0.817464765928 -0.233931059912 0)
(0.805162408199 -0.232254442073 0)
(2.28420992806 6.77469742473 0)
(1.01510626155 0.490570770356 0)
(1.06427029525 0.312735787657 0)
(0.984534594751 0.3205675861 0)
(0.996323195565 0.281209040177 0)
(0.989007317694 0.256283441536 0)
(0.985365923083 0.230533974848 0)
(0.979479483613 0.207883071213 0)
(0.973042665044 0.187314930168 0)
(0.965846329662 0.169026886091 0)
(0.958036150229 0.152688717209 0)
(0.949651258545 0.138392900195 0)
(0.940794243982 0.125746960711 0)
(0.931494801404 0.114764409227 0)
(0.921798402226 0.104978760836 0)
(0.911515899011 0.096323660963 0)
(0.900835166111 0.0883378544237 0)
(0.891051369027 0.0809719173781 0)
(-1.27856252474 -11.7574046838 0)
(1.00959893161 -0.733874908549 0)
(0.802394239559 -0.451448062177 0)
(0.94180936484 -0.509552998779 0)
(0.900432371252 -0.469794183781 0)
(0.901719257925 -0.459549125334 0)
(0.891127365537 -0.443504666259 0)
(0.882952748106 -0.43190461551 0)
(0.873881728268 -0.421629542403 0)
(0.86461674472 -0.413151706152 0)
(0.855184048654 -0.405698988392 0)
(0.845634619872 -0.399199251457 0)
(0.836089073516 -0.393016209068 0)
(0.826579262877 -0.387081809827 0)
(0.817135793936 -0.38075683862 0)
(0.807961855784 -0.374077289585 0)
(0.799314049999 -0.366513162051 0)
(0.789669880016 -0.358381870157 0)
(4.31623760826 18.7068194737 0)
(0.820133073806 1.05643378448 0)
(1.19867590321 0.599183278637 0)
(0.975955800088 0.707646366807 0)
(1.03847117847 0.64496584789 0)
(1.01688069883 0.634566032144 0)
(1.01712025824 0.609646787399 0)
(1.00919180128 0.590213869771 0)
(1.00222143564 0.56984662458 0)
(0.993962341029 0.54985297358 0)
(0.985109966923 0.529903590444 0)
(0.975710170266 0.510003540241 0)
(0.965906099435 0.490043641402 0)
(0.955932478829 0.469992101782 0)
(0.945778416188 0.449804461723 0)
(0.935440407521 0.429516264959 0)
(0.924906469415 0.409276929662 0)
(0.916913772977 0.389406806145 0)
(-3.82200552072 -28.3955514574 0)
(1.36912023917 -1.59065611786 0)
(0.651287286253 -0.930990213265 0)
(0.988123349759 -1.10778365384 0)
(0.876885962525 -1.02283900422 0)
(0.899474868578 -1.01910703493 0)
(0.881673948035 -0.991541134804 0)
(0.875388735113 -0.971918816037 0)
(0.865098309862 -0.949802145153 0)
(0.855487387313 -0.927738740974 0)
(0.845384834878 -0.90494027207 0)
(0.835269378934 -0.881239170005 0)
(0.825195059985 -0.856423242637 0)
(0.815150397192 -0.830372439 0)
(0.805064385493 -0.803785860879 0)
(0.795137516319 -0.776764570008 0)
(0.785752858195 -0.749954747374 0)
(0.774151505814 -0.723611737897 0)
(6.75184501063 38.5159323041 0)
(0.274414470741 2.01455764081 0)
(1.40161279186 1.32023515898 0)
(0.940552922213 1.50773337508 0)
(1.08750210509 1.40433065828 0)
(1.03694739846 1.39512938812 0)
(1.04484329477 1.35548659369 0)
(1.03293781884 1.32528744935 0)
(1.02637150941 1.29141259194 0)
(1.01780657636 1.25782489962 0)
(1.00987137458 1.22327619623 0)
(1.0020150941 1.18807053068 0)
(0.99450625993 1.15188419104 0)
(0.987256460686 1.11466232102 0)
(0.980106506175 1.07672591541 0)
(0.972622691016 1.03796333684 0)
(0.96454507876 0.998647265445 0)
(0.959405843323 0.959664898965 0)
(-4.85526324265 -48.0909377005 0)
(1.89537611247 -2.41950514668 0)
(0.533733147536 -2.07500930994 0)
(1.04048928991 -2.11234569165 0)
(0.862285944675 -2.02291589849 0)
(0.908748975273 -1.98582098551 0)
(0.88257630882 -1.93432129433 0)
(0.878879964383 -1.89024439559 0)
(0.867041866423 -1.84521356874 0)
(0.857061468143 -1.80176712253 0)
(0.845985651485 -1.75863332134 0)
(0.834661959132 -1.71581330889 0)
(0.822714027091 -1.67333942967 0)
(0.810139180122 -1.63097158593 0)
(0.796873975397 -1.58838602989 0)
(0.783490120495 -1.54496410358 0)
(0.771363265735 -1.49973980779 0)
(0.756960805433 -1.4523851609 0)
(6.17215150088 57.3259325883 0)
(0.242403397568 3.00683492711 0)
(1.41012817851 3.02214193967 0)
(0.984463277438 2.88008116543 0)
(1.12174480331 2.81249589587 0)
(1.06735232705 2.72301072483 0)
(1.07456335302 2.64411724195 0)
(1.06089381334 2.5658061175 0)
(1.05367144286 2.4909887266 0)
(1.0443168936 2.41889966318 0)
(1.03613778645 2.34986513473 0)
(1.02808707177 2.28374253811 0)
(1.02056817302 2.22040042928 0)
(1.01378865743 2.16002780752 0)
(1.00792451077 2.10292946204 0)
(1.00329533961 2.04911017975 0)
(0.999779395919 1.99784534102 0)
(1.00083832262 1.94744334305 0)
(-3.64170849385 -65.9128216725 0)
(1.6421830862 -4.41216616759 0)
(0.658296773251 -4.50088514244 0)
(0.994273658188 -4.22478829793 0)
(0.876564054392 -4.10950524962 0)
(0.902790389912 -3.95259527733 0)
(0.88395393852 -3.81896803202 0)
(0.879022479335 -3.68541961285 0)
(0.869049199077 -3.55908850503 0)
(0.860398692985 -3.43723366935 0)
(0.85123083332 -3.32061225572 0)
(0.841882598861 -3.20939352998 0)
(0.832258996173 -3.10385937178 0)
(0.822661811967 -3.00435697023 0)
(0.812978097485 -2.91129677516 0)
(0.803069688738 -2.82574557037 0)
(0.792861507835 -2.74969413686 0)
(0.776706827309 -2.68638377191 0)
(4.21568502986 71.3180786422 0)
(0.707617555057 6.83147428779 0)
(1.38832883792 7.152504558 0)
(1.1504496191 6.67046519059 0)
(1.21970845691 6.45553883666 0)
(1.18898300059 6.1801655065 0)
(1.18992427471 5.93645403778 0)
(1.18009583139 5.69639417122 0)
(1.1730194506 5.46767513842 0)
(1.16465590607 5.2476927241 0)
(1.1563969227 5.0366130081 0)
(1.14752841641 4.83363761015 0)
(1.13825278931 4.63857269017 0)
(1.12866047254 4.4511159953 0)
(1.1183758607 4.2712861682 0)
(1.1065464879 4.09921970851 0)
(1.09136443956 3.93592458786 0)
(1.07813045387 3.78583528591 0)
(-0.211171068336 -70.8100311776 0)
(0.890700394934 -9.48919552953 0)
(0.567204979427 -9.52126575539 0)
(0.663461067224 -8.9617628936 0)
(0.630546408296 -8.6429494667 0)
(0.639602792256 -8.27548603841 0)
(0.634380946551 -7.94061216155 0)
(0.633519505721 -7.61315144508 0)
(0.630542367803 -7.29906498729 0)
(0.627742464015 -6.99572449631 0)
(0.624268571187 -6.70330188001 0)
(0.620096461654 -6.42134126795 0)
(0.615343007946 -6.14939730218 0)
(0.610451899515 -5.88623043215 0)
(0.605491011969 -5.62969877906 0)
(0.600868687566 -5.37719631295 0)
(0.59959236137 -5.12350525408 0)
(0.602504003879 -4.85041629734 0)
(0.0902025787798 -0.1055704133 -2.66118498671e-16)
(0.10087066867 -0.025524879417 0)
(0.102698995799 0.0768792151282 0)
(0.0986064891145 0.133081523878 0)
(0.0656224749969 0.134039880393 0)
(0.0336386048385 0.13129533832 4.99928332062e-17)
(0.00424535816764 0.131515608489 0)
(-0.0215013138975 0.135503159357 0)
(-0.0442459580315 0.142831856973 -2.51613042792e-17)
(-0.0642307898053 0.153400791782 0)
(-0.0818480706621 0.166694371969 1.86298728184e-17)
(-0.0970305222544 0.182421376646 0)
(-0.110053689898 0.199895969453 1.4721845001e-17)
(-0.120991218743 0.218686928975 1.33165851114e-17)
(-0.130400693999 0.238138745646 0)
(-0.138591424024 0.258011169105 -1.11886001519e-17)
(-0.146241505137 0.277959064172 -1.03694206811e-17)
(-0.153594613929 0.298126614747 -9.67021136676e-18)
(-0.161025640949 0.318461831617 0)
(-0.168629028808 0.339360736928 0)
(-0.176543360407 0.360932488861 0)
(-0.184676280287 0.383631702111 0)
(-0.192931446279 0.407494591274 0)
(-0.201208299974 0.432900375669 0)
(-0.209333284649 0.459776263182 6.75869255167e-18)
(-0.217261438423 0.488334916115 6.51426279998e-18)
(-0.224890264867 0.518392866937 0)
(-0.232170756426 0.550066986393 -6.10146421557e-18)
(-0.238964297893 0.58307963235 -5.92696351765e-18)
(-0.245313341353 0.617436278915 -5.77038502648e-18)
(-0.251178473587 0.652810576377 0)
(-0.256599426817 0.689163938842 0)
(-0.261509389583 0.726149414377 5.38876730011e-18)
(-0.265995661227 0.763671332039 0)
(-0.270085520105 0.801392276868 0)
(-0.273831208606 0.839213997931 5.10846902546e-18)
(-0.277221357867 0.876802179124 0)
(-0.280335514473 0.914053543955 0)
(-0.283180769001 0.950667743153 0)
(-0.285819843937 0.98654281201 0)
(-0.288265520631 1.02140311155 0)
(-0.290558008923 1.05515118227 -9.49644103489e-18)
(-0.292714702113 1.08753202697 0)
(-0.29474816768 1.11845743878 0)
(-0.29668485193 1.14768724135 -9.27393727359e-18)
(-0.298522463982 1.1751550035 -9.21510435891e-18)
(-0.300258105966 1.20061990531 0)
(-0.301887513948 1.22403627266 0)
(-0.3034032647 1.24518500031 -9.07693891933e-18)
(-0.30480445293 1.2640488467 0)
(-0.306056965981 1.28040837373 9.01214177205e-18)
(-0.307173860643 1.29427624916 0)
(-0.30808831697 1.30545536469 -8.96551680866e-18)
(-0.308847780208 1.31395230597 0)
(-0.309443712925 1.31960100736 -8.93471512238e-18)
(-0.30990117212 1.32240681367 -8.92480228044e-18)
(-0.310115767282 1.32217225325 0)
(-0.310054459764 1.31876579077 0)
(-0.309646307061 1.31155316084 0)
(-0.308877497893 1.29963354123 -8.91654624973e-18)
(-0.307678216221 1.28271563965 0)
(-0.306079346356 1.26066229695 0)
(-0.304121675734 1.23338885555 0)
(-0.301895221892 1.20094970199 0)
(-0.299429323892 1.16348380597 0)
(-0.296746713222 1.12115840429 0)
(-0.293852607012 1.07415666902 0)
(-0.290768537034 1.02267676149 9.07603865017e-18)
(-0.287530930912 0.966990547462 0)
(-0.284188638057 0.90739972433 9.1606540843e-18)
(-0.280773733562 0.844255769573 9.20899185282e-18)
(-0.277329265503 0.777905463979 0)
(-0.273846618459 0.708727821326 -9.31560155423e-18)
(-0.270387552421 0.637067063888 0)
(-0.266938223965 0.563316281025 9.43181689798e-18)
(-0.263545891455 0.487787866109 0)
(-0.260161587204 0.410903111937 -9.55300372549e-18)
(-0.256795208981 0.333013648649 9.61415280685e-18)
(-0.2534659774 0.254622760927 0)
(-0.250326879568 0.176054586008 0)
(-0.247370350503 0.0978622927327 0)
(-0.244617044865 0.0204119971017 0)
(-0.242094265436 -0.055646937313 9.91341869409e-18)
(-0.240019606081 -0.12996001659 -9.97152777395e-18)
(-0.238395270791 -0.201785766266 2.00586477592e-17)
(-0.237228883046 -0.270660457746 2.01740918842e-17)
(-0.236466114909 -0.335622981754 2.02899604607e-17)
(-0.235876297668 -0.39593883595 0)
(-0.235493589691 -0.450256558858 0)
(-0.235686120643 -0.497022453831 0)
(-0.238315342082 -0.535636468159 2.07727991182e-17)
(-0.243910978781 -0.565903759138 0)
(-0.25150719295 -0.587879737498 0)
(-0.260429981199 -0.601363144303 2.11927848397e-17)
(-0.270713780498 -0.606241456718 0)
(-0.282612406617 -0.602467527969 -2.15412007949e-17)
(-0.296393695965 -0.590307087172 0)
(-0.312189887595 -0.570160513782 2.19921525462e-17)
(-0.330088673502 -0.542819139554 0)
(-0.35010583527 -0.509255003028 0)
(-0.372192062775 -0.470839406667 0)
(-0.396239464549 -0.429849164319 2.34713714945e-17)
(-0.421357963846 -0.389092336925 0)
(-0.44583368052 -0.352159994053 2.46941647431e-17)
(-0.466912553072 -0.322007354392 2.54842738912e-17)
(-0.484434204358 -0.303005490335 0)
(-0.497973260318 -0.297392851594 0)
(-0.504325649711 -0.305482207933 0)
(-0.505017773629 -0.324382372574 3.04373172615e-17)
(-0.507164623765 -0.352052392198 0)
(-0.513451345347 -0.381352865122 0)
(-0.518277304875 -0.40110626111 3.72199088579e-17)
(-0.520782480521 -0.392709823271 4.04425520114e-17)
(-0.526199894211 -0.3606819564 0)
(-0.554728703397 -0.321940304982 -4.91416639724e-17)
(-0.613464394851 -0.31126459945 -5.50922262982e-17)
(-0.676113507562 -0.318242681138 6.26114117448e-17)
(-0.732080070429 -0.311261460925 0)
(-0.732408217072 -0.2654860407 0)
(-0.681908898287 -0.0355820199522 0)
(-0.642860478403 0.430127435459 -1.28414527056e-16)
(-0.6576479489 0.94070595421 0)
(-1.14541734471 1.09670056552 -2.3334623615e-16)
(-1.97306551042 0.534558845452 0)
(-4.83924093208 -4.7481954648 0)
(-5.36561758005 -6.95961167526 0)
(-5.18777930889 -7.66789642697 1.81320472425e-16)
(-5.190225897 -8.35071727545 1.44602072272e-16)
(-5.28420244669 -9.02799471788 0)
(-5.428622942 -9.73540976271 0)
(-5.61364605169 -10.4877502995 0)
(-5.84069743344 -11.3094365307 0)
(-6.10756337361 -12.2050333984 0)
(-6.41350729648 -13.1948438061 0)
(-6.75112502461 -14.2785573532 1.56121930437e-16)
(-7.10985137957 -15.4708068921 0)
(-7.4738687729 -16.7604595272 0)
(-7.82186447927 -18.1421879962 0)
(-8.1427192286 -19.5829421729 -1.41404422762e-16)
(-8.43585880716 -21.0577203557 -1.39677583689e-16)
(-8.72273603498 -22.5390549691 1.38477785091e-16)
(-9.01778854781 -24.014420252 1.3770732843e-16)
(-9.33595187243 -25.4777508473 0)
(-9.67669240508 -26.9738205346 0)
(-10.0251328703 -28.5635334681 0)
(-10.3719114867 -30.2629944642 1.3633093279e-16)
(-10.7140444742 -32.0933911696 0)
(-11.0421738005 -34.0630998075 0)
(-11.3496445366 -36.1945144725 -1.37346158004e-16)
(-11.6221905537 -38.4958924766 0)
(-11.8503395496 -40.9967675835 -1.3863350698e-16)
(-12.0128743598 -43.7043051458 0)
(-12.0958213175 -46.6585356991 -1.40210169113e-16)
(-12.0674656126 -49.8644714285 0)
(-11.9083633916 -53.375336498 0)
(-11.5749902811 -57.1890347114 0)
(-11.0452558893 -61.3705993236 0)
(-10.2691868562 -65.9023656255 0)
(-9.23202431819 -70.8595396704 0)
(-7.88483552178 -76.1989641461 0)
(-6.22845682592 -82.0039787184 0)
(-4.23202933358 -88.1932889211 -1.50458841784e-16)
(-1.91801310448 -94.8862622374 0)
(0.765556442622 -101.965252223 0)
(3.76692202896 -109.575093767 -1.58193955938e-16)
(7.12499358726 -117.567024508 0)
(10.7730997104 -126.177545996 0)
(14.774085527 -135.324232532 -1.731196578e-16)
(19.1732215761 -145.427107259 0)
(24.1293359431 -156.312449602 0)
(30.6967849495 -168.370786371 -2.01527405109e-16)
(38.1312514983 -179.784280016 2.15662954641e-16)
(45.5092759756 -192.313065967 -2.32862088882e-16)
(53.6250643595 -203.166469703 0)
(61.3314657711 -211.486013367 0)
(66.896065271 -212.603401052 -6.19769397276e-16)
(67.6571277826 -208.400275106 0)
(56.8730302566 -201.109243431 7.81443216202e-16)
(45.6845591653 -206.138616334 8.86783109129e-16)
(-23.9616035837 -232.794584983 0)
(-0.273512013453 -0.207339672887 4.41516169812e-16)
(-0.0956539874768 0.0339208729222 0)
(-0.0300150798259 0.115002079716 -9.87653923788e-17)
(-0.0048986351639 0.122454873333 7.3997295343e-17)
(0.00690149904117 0.0998652861818 6.11695982745e-17)
(0.014815637839 0.0683343062154 -2.58742456143e-17)
(0.020612152275 0.0364696125816 -4.44843879401e-17)
(0.0250424091958 0.00722523061816 0)
(0.0286078196737 -0.0188640983863 1.7139374494e-17)
(0.0316764258709 -0.041949241805 -3.06266799194e-17)
(0.0342954102551 -0.0627331159294 -4.14576512958e-17)
(0.0366198791463 -0.0817322036294 2.51594041335e-17)
(0.0386037588616 -0.0996622245621 -3.46224603664e-17)
(0.0402522043504 -0.116900195781 -1.06613661547e-17)
(0.0413172979194 -0.134028241451 0)
(0.0416769656574 -0.151238096997 9.26238289295e-18)
(0.0410603883025 -0.168955072512 8.70168360972e-18)
(0.0394123289318 -0.187155203769 8.21310857197e-18)
(0.0366460223046 -0.206124628339 -1.55685207205e-17)
(0.0328529340569 -0.225703263428 0)
(0.0280918545402 -0.246084083968 -1.4151599694e-17)
(0.0224836272325 -0.267035722024 0)
(0.0162258805865 -0.288738336894 1.30409264994e-17)
(0.00949633033632 -0.310970792481 0)
(0.00247353973754 -0.333908647981 -1.82432479173e-17)
(-0.00473509149 -0.357367152504 5.89442677932e-18)
(-0.0119316524554 -0.381511560129 1.14598792313e-17)
(-0.0189914570689 -0.406156807271 1.67460611409e-17)
(-0.0257538945317 -0.431464308824 5.4498756575e-18)
(-0.0321694290593 -0.457271725838 5.33061923769e-18)
(-0.0381034977947 -0.483709732116 0)
(-0.043496305391 -0.510595231814 1.02522596231e-17)
(-0.0482586718402 -0.538036955728 -5.04097296774e-18)
(-0.0523777069516 -0.5658571671 0)
(-0.0557914266671 -0.594125146969 0)
(-0.0584883936573 -0.622632295967 -4.83091974412e-18)
(-0.0604283625551 -0.651427984733 0)
(-0.0616093408291 -0.680297155614 0)
(-0.0620066571676 -0.709258024575 0)
(-0.0616263637309 -0.738083898337 0)
(-0.060454214247 -0.766765456546 0)
(-0.0584897650131 -0.795062402514 -9.13962058995e-18)
(-0.0557287693265 -0.822943910224 -1.81746646416e-17)
(-0.0521666307266 -0.850152299823 0)
(-0.0478103795558 -0.876647152244 -8.99551074294e-18)
(-0.0426639195701 -0.902148981837 8.96596573892e-18)
(-0.0367322592341 -0.92661898025 0)
(-0.0300173825913 -0.949772075485 0)
(-0.0225264110744 -0.971576985583 2.66729754499e-17)
(-0.0143001584037 -0.991746812538 1.77499717509e-17)
(-0.0053369382559 -1.01026610961 -8.86686024572e-18)
(0.0043373624515 -1.02686909696 -1.7713498386e-17)
(0.0147110028293 -1.04155343947 -8.85014886594e-18)
(0.0257070046521 -1.05410323811 0)
(0.0372863752873 -1.06452192642 2.65705923701e-17)
(0.0493729607198 -1.07260190261 8.86540209134e-18)
(0.0619077922611 -1.07817321054 0)
(0.074802825479 -1.08009398775 -1.77566620921e-17)
(0.0880378980643 -1.07795962234 1.77744425625e-17)
(0.101594784115 -1.07094138648 8.90038717635e-18)
(0.115496762936 -1.05903993771 0)
(0.129718930351 -1.04228139697 0)
(0.144257523458 -1.02080905209 0)
(0.159089371624 -0.994757115691 -1.79577479278e-17)
(0.1741505932 -0.964317576642 0)
(0.18935070202 -0.929702408006 1.80932528438e-17)
(0.204611521128 -0.891186973947 0)
(0.219882379068 -0.849085162965 9.13055395932e-18)
(0.235106042423 -0.803735744497 0)
(0.25020752355 -0.755477460705 9.23527029199e-18)
(0.265105758022 -0.704638689027 9.29366391429e-18)
(0.279710267399 -0.651546109393 0)
(0.293953697393 -0.59649003528 9.42566619976e-18)
(0.307744110517 -0.539779502326 0)
(0.321003206185 -0.481635657095 -9.56249989012e-18)
(0.33364567949 -0.422365000478 0)