/*--------------------------------*- C++ -*----------------------------------*\
| =========                 |                                                 |
| \\      /  F ield         | OpenFOAM: The Open Source CFD Toolbox           |
|  \\    /   O peration     | Version:  v1806                                 |
|   \\  /    A nd           | Web:      www.OpenFOAM.com                      |
|    \\/     M anipulation  |                                                 |
\*---------------------------------------------------------------------------*/
FoamFile
{
    version     2.0;
    format      ascii;
    class       volScalarField;
    location    "15";
    object      alpha;
}
// * * * * * * * * * * * * * * * * * * * * * * * * * * * * * * * * * * * * * //

dimensions      [0 0 -1 0 0 0 0];


internalField   nonuniform List<scalar> 
12225
(
0.392602217818
0.3319448372
0.351403562092
0.351394612814
0.363017158983
0.36724068133
0.373068054321
0.377038219868
0.379169285177
0.378311513201
0.373015378297
0.364613667582
0.3578126469
0.346218991313
0.323353791958
0.293912355405
0.256387669615
0.224663973631
0.229095819486
0.284403265834
0.316322024326
0.311726063388
0.32068559593
0.323063489391
0.326792266544
0.329151287341
0.330507499102
0.330190610064
0.326866970412
0.320743816863
0.314284660529
0.304660165492
0.287633013143
0.265931771845
0.242395453539
0.239900321828
0.369168234739
0.303069517584
0.320074651127
0.318659761086
0.328047065479
0.331340613126
0.335749401682
0.338735162725
0.340802297841
0.34145943545
0.340013062565
0.336310388876
0.330822860731
0.322024284263
0.307765768452
0.290169996535
0.274151903708
0.278842161871
0.313765762259
0.289896972848
0.316544904294
0.310636340817
0.319275134802
0.320962479586
0.324100056171
0.326002154605
0.327304526514
0.327595451824
0.326540797514
0.323949495829
0.319670754859
0.312826190297
0.30264433903
0.291241288545
0.283962206397
0.29296385137
0.337885341981
0.291130478258
0.314735420085
0.308174689574
0.315852185482
0.316645240303
0.318891897323
0.319890866707
0.320268710227
0.319710442356
0.31807346196
0.315250794199
0.311018173993
0.304981205867
0.297269052936
0.290115899399
0.28817218688
0.297994314109
0.330892425504
0.287266281356
0.311769063084
0.303766170053
0.310921371991
0.31099250354
0.312693487763
0.313181444679
0.313103398053
0.312201944558
0.310418894227
0.307705161199
0.303912233826
0.298974014044
0.293499566209
0.289624217307
0.290794382275
0.300106743104
0.331729488109
0.285796251375
0.309257794732
0.300402206842
0.306909482833
0.306345394487
0.307545991573
0.307600257927
0.307174961391
0.306059824544
0.304248989373
0.301742413902
0.29851954418
0.294732707562
0.291192361388
0.289721581997
0.292617473544
0.301141280407
0.330404243681
0.284421945461
0.307130031469
0.297546378923
0.303502881765
0.302416587078
0.303228013106
0.302967710161
0.302345866521
0.301170003399
0.299459930392
0.297261588969
0.29467285557
0.291980533831
0.290032311081
0.290248496586
0.294056689491
0.301772829602
0.32939560935
0.283637254475
0.305420053589
0.29531273865
0.300755599751
0.299223332762
0.299712749644
0.299232273946
0.298526864468
0.297397560233
0.295877515303
0.294063054892
0.29213729728
0.290452262924
0.28977195625
0.291155913337
0.295402204235
0.302429804862
0.328618668967
0.283305809496
0.304251589354
0.293764733418
0.298774754326
0.296875927002
0.297128167373
0.296517807431
0.295798877864
0.294765628669
0.293486858889
0.292106686507
0.290854033126
0.290074321782
0.290394781853
0.292560268887
0.296971351478
0.303353436569
0.328738370087
0.283222590563
0.303910455664
0.293077486878
0.297839889133
0.295729958338
0.2958993224
0.295258775453
0.294584695585
0.293699250002
0.292708035228
0.291759806087
0.291083225485
0.290978698235
0.291937925391
0.294460202324
0.298701255058
0.304362738956
0.332692103728
0.283332426769
0.30536674714
0.293960772021
0.298783437657
0.296575868442
0.296725608136
0.296081784369
0.295495957186
0.294762215362
0.293930879124
0.293170768712
0.292719420335
0.292861890591
0.293974362508
0.296399506048
0.300201098958
0.30508769726
0.335953736926
0.283990827776
0.306833371527
0.295020107905
0.299671460512
0.297294364708
0.297343615289
0.296621078848
0.29594382037
0.29512775746
0.29428135145
0.293577815453
0.293286709329
0.293613768269
0.294867623481
0.297252358847
0.300737733583
0.305066950859
0.339916392745
0.284815343026
0.308505148738
0.296161351158
0.300605762636
0.297880954884
0.297629032432
0.29668788633
0.295898721514
0.295075056396
0.294332202128
0.293857566068
0.293884818985
0.294556369413
0.296034630953
0.298442306632
0.301641310317
0.305488388628
0.345076068573
0.285719724315
0.310605493751
0.297547228613
0.301778591138
0.298643211077
0.298049347054
0.296850386349
0.295931614372
0.295140760448
0.294559675406
0.294384382652
0.29478771415
0.295790615853
0.297472222214
0.299857133001
0.302793769999
0.306145914865
0.350511845702
0.286692447665
0.313006742325
0.299242819321
0.303364153532
0.299875367705
0.299027033287
0.297638131008
0.296662522974
0.29591492845
0.295519554625
0.295588220298
0.29627701268
0.297483417627
0.299248620514
0.301522579405
0.304173807314
0.307108161092
0.35543019263
0.287586259315
0.315444813204
0.30110795765
0.305265230875
0.301564942061
0.30060963778
0.299160801433
0.298207874235
0.297570444013
0.297315903423
0.297566625046
0.298402989806
0.299695254295
0.301415357319
0.303533743378
0.305886194029
0.308477883086
0.360081716845
0.288275012262
0.317773021918
0.30296967548
0.307303028145
0.30353459205
0.302615746629
0.301203547129
0.300335006917
0.299808817027
0.299674029796
0.300034710802
0.300937396428
0.302221051641
0.303845999864
0.305787089369
0.307885147805
0.310176228746
0.362649845994
0.288376785513
0.319012753117
0.304027584554
0.308646006431
0.305016802106
0.304316527987
0.303101707882
0.302440302114
0.302110606434
0.302146611273
0.302630749672
0.303595886372
0.304866490552
0.306409412638
0.308211113956
0.310123361631
0.312190788075
0.357322183538
0.287736676099
0.317455942643
0.303312724143
0.308396096331
0.305420818279
0.305343052412
0.304764504032
0.304675892303
0.304855707364
0.305308280533
0.306099295303
0.307265666803
0.308645283114
0.310209712958
0.311955102514
0.313748191054
0.315623935217
0.353147800821
0.286706313938
0.31560831882
0.302078455504
0.30751951239
0.305065620915
0.305480025023
0.305361975568
0.305711629777
0.306252398475
0.3069963078
0.307986075774
0.309291389955
0.3107267667
0.312301945361
0.313994092692
0.315712225293
0.317466630395
0.350022157496
0.285674269102
0.31380895504
0.300803713289
0.306521638534
0.30452333417
0.305337638173
0.305620034089
0.306311493758
0.307141282837
0.308120646494
0.309269498995
0.310670494525
0.312160373769
0.313736727606
0.315400573278
0.317054943097
0.31874162732
0.345609360512
0.284291614984
0.312045615704
0.299518034387
0.305522015906
0.303964181201
0.305163169819
0.305811286067
0.306821436666
0.307932528637
0.309113607903
0.310427611249
0.311938682347
0.313504950559
0.315101610411
0.316777332166
0.318413290078
0.320065246758
0.34451224852
0.28354712047
0.309925408949
0.298046067616
0.30430055546
0.303176498452
0.304736904629
0.305738664243
0.307039200747
0.308382295796
0.309757984903
0.311206431546
0.312812317595
0.314428420396
0.316072216635
0.317755620702
0.319394568454
0.320990103797
0.332752993204
0.281158749778
0.308536545766
0.297099389621
0.303660391676
0.302960999811
0.304868948453
0.30617171848
0.307737956219
0.309311128097
0.310878380636
0.312458251434
0.314167184227
0.315863378145
0.317555147586
0.319297089376
0.321009040927
0.3226892801
0.350744674577
0.282488925131
0.304924435227
0.294816859805
0.301339379882
0.301049837524
0.303173677263
0.304727971803
0.306504268843
0.30827719802
0.31000353617
0.311709300337
0.313502171407
0.315277415831
0.317038322477
0.318823352846
0.320562668849
0.322112267167
0.288965467367
0.276010176153
0.30393915505
0.294112673668
0.301101050662
0.301275916925
0.303787242621
0.305683545219
0.307784332782
0.309878604418
0.311943110218
0.313846864041
0.315764945737
0.317660398288
0.319486367354
0.321336831101
0.32320775064
0.325262779217
0.401292808669
0.285029677078
0.294510480758
0.288578747075
0.294785712784
0.295276029147
0.29760377458
0.29932216378
0.301162223094
0.302994086367
0.304683038586
0.306255576444
0.307898353067
0.309530126398
0.311142969712
0.31288278342
0.314721309415
0.316175755972
0.16382363906
0.262981023584
0.289110717512
0.282333260747
0.288690215545
0.289671933341
0.29261639041
0.295239901811
0.298235571666
0.301472043612
0.304843088324
0.30799942432
0.311196861356
0.314526200243
0.317903275807
0.321339897779
0.324878315328
0.328316091481
0.329766433827
0.299745090901
0.303596410071
0.302125836928
0.309550397317
0.310494232509
0.313016037445
0.314959243814
0.316933239722
0.318662170264
0.320049760425
0.321343707223
0.322700614487
0.323739788048
0.324463821694
0.325065612549
0.325362935601
0.326091737341
0.476037174754
0.476395390492
0.476578778415
0.476561033266
0.476349835995
0.475985931353
0.475563205726
0.475116493718
0.47467108041
0.474244630018
0.473849030152
0.473491565855
0.47317620268
0.472904405861
0.472675872573
0.472488879697
0.47234099348
0.472228858695
0.472149282995
0.472099135292
0.472074941875
0.472074324617
0.472093812722
0.472132569869
0.472188524653
0.472262035693
0.472351367426
0.472456782261
0.472577571687
0.472714568156
0.47286748658
0.473036889813
0.473222386624
0.473424812672
0.473643977113
0.473879772674
0.474131089184
0.474398657641
0.474681307327
0.47497893975
0.475290171286
0.475614179899
0.475949256989
0.476293670888
0.476645284391
0.477001493529
0.477359688746
0.477716728487
0.478069363051
0.478414654186
0.478749771413
0.479073399837
0.479382403795
0.479672661423
0.47993885669
0.48017596671
0.480378645365
0.480541618644
0.480659439099
0.480726966451
0.480740220157
0.480698115457
0.48059987936
0.480443011086
0.480226842331
0.479954322861
0.479627434096
0.47924823232
0.478820050431
0.478345737192
0.477829657004
0.477275778696
0.476688980347
0.476073604729
0.47543442584
0.474775532861
0.474101009806
0.473415497608
0.472722886434
0.472025884854
0.471326622325
0.470628434019
0.469933391545
0.469244127462
0.46855978171
0.467882872518
0.467213307377
0.466544755017
0.465880839485
0.465218175974
0.464556247728
0.463895107111
0.463233150389
0.462597423111
0.462003137402
0.461412994579
0.460795737387
0.460166369196
0.459526924736
0.458883344846
0.458130467463
0.457289928211
0.457183229374
0.457180271345
0.45701436907
0.456630293716
0.456062451221
0.455780100695
0.455432384948
0.455126982623
0.45486693997
0.454628378502
0.454416323451
0.454224294497
0.454048161221
0.453884977297
0.453731699521
0.453585039067
0.453444060567
0.453309748553
0.453185463379
0.453072436188
0.452969327686
0.452874996724
0.452786568169
0.452702763825
0.45262279988
0.452546125332
0.452472301334
0.452400854755
0.452331326053
0.452263413075
0.452196919039
0.452131888839
0.45206831408
0.452006345767
0.451946071553
0.451887193558
0.451830272992
0.45177561135
0.451725161106
0.451677672473
0.4516340252
0.451595712585
0.451564397902
0.451541863446
0.451529195705
0.451527178027
0.451536493145
0.451557669361
0.451591776798
0.451640321417
0.451705006132
0.451787447184
0.451889398222
0.452012653123
0.452159235677
0.452331354531
0.452531937832
0.452764549803
0.453034529668
0.453347572079
0.453711733072
0.454138314899
0.454642777624
0.455242118498
0.45595726256
0.456804734886
0.457797699777
0.458958812218
0.460300867383
0.461820343073
0.463499054493
0.465296680115
0.467154656044
0.469128635008
0.471167253572
0.473194566801
0.475102103817
0.476605328599
0.476135758024
0.476376190019
0.476280800723
0.475993376445
0.47564320487
0.475284994316
0.474940460502
0.474619213764
0.47432524726
0.474060660387
0.473826064931
0.473622430324
0.473449239784
0.473306317019
0.473192401221
0.473106373114
0.473046344142
0.473010417342
0.472996010179
0.473001535156
0.473024355228
0.473062992483
0.473115026966
0.47318022374
0.473257115493
0.473346518618
0.473447490173
0.473560814609
0.473686578465
0.473826009713
0.473979138011
0.474146844298
0.474329567015
0.47452836857
0.474742787108
0.47497342136
0.475219861039
0.475482291276
0.475760134334
0.476053450753
0.476361232746
0.476682674919
0.477016304538
0.477360382325
0.477712708234
0.478070573503
0.478430702011
0.478789583282
0.479142712699
0.479485088471
0.479809264329
0.480110383127
0.480385711219
0.480632482226
0.480846978441
0.481025548429
0.481164556885
0.481258492508
0.481301588608
0.481291936404
0.481228234435
0.481108331501
0.480932514026
0.480704409666
0.480423314117
0.480087411796
0.479697102064
0.479253096957
0.478756641283
0.478209015316
0.477612363545
0.476968981902
0.476282315766
0.475555993892
0.474794146012
0.474001401703
0.473182818576
0.472343642151
0.471489316953
0.470623837715
0.46975036721
0.468872894076
0.467995875348
0.467121570253
0.46624884958
0.465383584889
0.464533082431
0.46368824038
0.462828615692
0.461972491691
0.461149789359
0.460326277926
0.459460974466
0.45858285029
0.457775486967
0.457042716065
0.456275109769
0.455653518173
0.455035007677
0.454381659089
0.453754272984
0.452995746213
0.452447299733
0.451850656696
0.45130714949
0.450785962497
0.450496336612
0.450288209595
0.450127352002
0.449939141398
0.449716217567
0.44948330219
0.449252118868
0.44902295223
0.448795756748
0.448570198935
0.448344770451
0.448117598601
0.447888022708
0.44765881588
0.447433860883
0.447215036722
0.447002447812
0.446794441195
0.446589140202
0.446385678911
0.446183435664
0.445982059579
0.445781154485
0.445580626446
0.445380472076
0.445180755216
0.44498139433
0.444782346459
0.444583405885
0.444384322027
0.444184475956
0.443983031428
0.443779322032
0.443573791951
0.443366841791
0.443157373321
0.442945047501
0.442730146783
0.442513521314
0.442295591403
0.442075963464
0.441853664858
0.441627486461
0.441396425044
0.441159376217
0.440915144109
0.440662523609
0.440400828096
0.440130181914
0.439851388313
0.439566389543
0.439277734977
0.438988942417
0.43870323354
0.438425544136
0.438161374227
0.437916105047
0.437693789345
0.43749815361
0.437332210624
0.43719236833
0.437086298591
0.437013183115
0.436971448458
0.43696267605
0.436993928268
0.437075227081
0.437211167976
0.437469760246
0.437759754503
0.438101279339
0.43848638247
0.438870895305
0.439276226439
0.475776114023
0.475848271442
0.475808653993
0.475688212453
0.475560854583
0.475455107517
0.475361305858
0.475272048451
0.475183109159
0.47509454089
0.475007508777
0.474924223959
0.474846822012
0.474777478448
0.474717757125
0.474668937062
0.474631539138
0.474605887185
0.474591549343
0.474588054357
0.474594440531
0.474610657212
0.474635098957
0.47466809909
0.474709207752
0.474759139296
0.474817648566
0.47488596788
0.474964476916
0.475054502167
0.475156570413
0.475272110029
0.475401453954
0.475545625356
0.475704939392
0.475879912733
0.476070095008
0.476276058601
0.476497254493
0.476733416814
0.47698365797
0.477246981642
0.47752186256
0.47780644377
0.478098430019
0.478395150059
0.478693383314
0.47898961791
0.479279890156
0.479559944894
0.47982369719
0.480064829219
0.48027648613
0.48045423603
0.480594631289
0.480694929403
0.480752837788
0.480768483321
0.480742791251
0.480674289952
0.480560362129
0.480398914322
0.480184941781
0.479914413719
0.479588417076
0.479205709123
0.478764921606
0.478265800433
0.477709741514
0.477099028198
0.476437275322
0.475728841511
0.474978791725
0.474192523553
0.473375568733
0.472533503237
0.471671728069
0.470795648316
0.469910396471
0.469020965873
0.468129836568
0.467240358478
0.466357438708
0.465484424304
0.464618176732
0.463757844012
0.462918416857
0.462103688375
0.461290730002
0.460470575456
0.459677555235
0.458939679462
0.458181861351
0.457427326359
0.456710407748
0.456028214934
0.455405505591
0.454938155349
0.454396881647
0.453666289115
0.452862924868
0.452298568228
0.452015651751
0.451716876771
0.451564252604
0.45135513149
0.451006517429
0.45050783592
0.45002113873
0.449583233998
0.449186628469
0.448827073777
0.448496878412
0.448187304502
0.447893102994
0.447610761378
0.447337119008
0.447069732116
0.44680784094
0.446553730833
0.446309857201
0.446076838579
0.445853369503
0.445637227946
0.445427295954
0.445222876407
0.44502352598
0.444828903668
0.444638719762
0.444452531405
0.444269702164
0.444089578932
0.443911704066
0.443735738867
0.443561327563
0.44338804822
0.443215249823
0.443042543307
0.442869895428
0.442698652978
0.442529089693
0.442360352112
0.442191264581
0.442022094627
0.441854243744
0.441688777893
0.441526114003
0.441366162087
0.441208950982
0.44105455034
0.440903069107
0.440754426531
0.44060869842
0.440465827719
0.440325552805
0.440187361626
0.44005054762
0.439913986366
0.439776540612
0.439636583848
0.439492504976
0.439342711761
0.439185622623
0.439019515982
0.438843179574
0.438655135178
0.43845281035
0.43823575184
0.438007084213
0.437769649267
0.437528346633
0.437293256169
0.43707695103
0.436905163969
0.436804156401
0.43679139317
0.436884640354
0.4370876418
0.437351164813
0.437524757233
0.475308683586
0.475415090679
0.475664712735
0.475796826521
0.475865898009
0.475919246596
0.475950092981
0.475956936771
0.47594101243
0.47590553291
0.475854364246
0.475792102999
0.475722519894
0.475649372108
0.475575532768
0.47550356228
0.475435201276
0.475371831648
0.475313952693
0.475262576644
0.475217323794
0.475178499899
0.475145906847
0.475120171059
0.475100878309
0.475089404334
0.475086031328
0.475092045185
0.475108197429
0.475136106393
0.475176622445
0.475231063075
0.47530026258
0.475385562494
0.475486898472
0.475605209319
0.475740441114
0.475892748207
0.476061574724
0.476246668515
0.476446878096
0.476660979443
0.47688710528
0.477123010522
0.477365980919
0.477612847151
0.477859878677
0.478103264572
0.478338570836
0.478561030268
0.478766022441
0.478950025931
0.479107361757
0.479233191383
0.479323028025
0.479373117279
0.479379999753
0.479341994005
0.479260460221
0.47913807689
0.478975420741
0.478771279564
0.478522729811
0.478224960016
0.477872051098
0.477460346815
0.476987946119
0.476453963345
0.475858873967
0.47520470337
0.474494946523
0.473734685702
0.472930371081
0.472088808912
0.471217204676
0.470323641273
0.469415268281
0.468497481787
0.467577223058
0.466661092236
0.465751259824
0.464847050475
0.463956597909
0.463089354952
0.462237348839
0.461393079373
0.460571014538
0.459804778586
0.459048813702
0.45829323801
0.457572538156
0.456903961422
0.456275812325
0.455667376687
0.455109654236
0.454552563885
0.453935887011
0.453266010549
0.452494000987
0.451760328958
0.451256980914
0.451056822434
0.450920674766
0.450734097299
0.450565977572
0.450261904029
0.449769431812
0.449140107893
0.448518941267
0.447971749515
0.447500266335
0.447090164962
0.446726202339
0.446395783971
0.446090680802
0.445805112825
0.445534617929
0.445275793322
0.445027623312
0.444791175097
0.44456752396
0.444355620706
0.444152439563
0.443955693786
0.443764250399
0.443577511832
0.443394960243
0.443216100405
0.443040395049
0.442867329798
0.442696148609
0.442526366215
0.442357816366
0.442190196384
0.442023109162
0.441855881445
0.441688044165
0.441519601991
0.441351454782
0.441185116576
0.441021080396
0.440857822961
0.440693485315
0.440528062927
0.440362645012
0.4401981177
0.440034714855
0.439872251541
0.439710457032
0.439549031419
0.439387753592
0.439226398978
0.439065073716
0.438903877478
0.438742903637
0.438582269807
0.438422245751
0.438263337385
0.438106197391
0.43795153514
0.437799779275
0.43765141861
0.437506900565
0.437366084207
0.437228400962
0.437092532342
0.436955135801
0.436813993948
0.43666719636
0.436511520059
0.436345167932
0.436169825573
0.435989195063
0.435811964667
0.435656647825
0.435530407536
0.435446160294
0.435401315416
0.435339063779
0.435132997576
0.474773539529
0.475388917022
0.476025544323
0.47626611449
0.476352468334
0.476409025984
0.476441829261
0.476452323118
0.476439623276
0.476405753393
0.476352791891
0.47628399836
0.476202536755
0.476112025638
0.476015322084
0.475915402697
0.475814201537
0.475713920256
0.475615631616
0.475520412523
0.475428723898
0.475341740943
0.47525908702
0.475181921139
0.47511066632
0.475046354714
0.474989562166
0.474941949923
0.474904419779
0.474878599933
0.474865493999
0.474866843662
0.474883294585
0.474916029621
0.474965619096
0.475032821732
0.475117347491
0.475219779149
0.475339552456
0.475476312813
0.475628985033
0.475796421135
0.475976783812
0.476167982646
0.476367365897
0.476572056441
0.476778534748
0.476983109068
0.47718181318
0.477370095758
0.477541878587
0.477692888613
0.477817850799
0.477911673274
0.477970343741
0.477990392726
0.477968008201
0.47790068088
0.477787951738
0.477628383469
0.477420843522
0.477164854854
0.476859761949
0.476505649021
0.47610115985
0.475643357927
0.475129637094
0.47455814644
0.473928871267
0.47324299468
0.472503408617
0.471714604122
0.470883643634
0.470016539641
0.469120184781
0.468203337496
0.467274857643
0.466338318419
0.465397599825
0.464465614632
0.463548813291
0.462637366041
0.461737903182
0.460869040668
0.460019656596
0.45917606675
0.45835901011
0.457588493561
0.456873181824
0.456178569681
0.45548766723
0.454852310023
0.45423378274
0.453648590475
0.453043051259
0.452331853139
0.451565130527
0.450819859788
0.450179460764
0.449777388903
0.449628012691
0.44960242587
0.449503246332
0.449312916275
0.449058415783
0.448672898488
0.448164859221
0.447591109174
0.447034489192
0.446535647812
0.446100470096
0.445720190982
0.445383251639
0.445079185925
0.444800170312
0.444540274869
0.444294868086
0.444060801777
0.443837236003
0.443624896904
0.443424114774
0.443232954986
0.443048356949
0.442868553931
0.442693011474
0.442521644203
0.442354357424
0.442190948087
0.442031071245
0.441874344431
0.441720468838
0.441569123273
0.44141984575
0.441272194581
0.441125572138
0.440979304598
0.440833030817
0.440687169286
0.440543404666
0.44040328159
0.440267167305
0.440132651668
0.439997445197
0.439861109712
0.439724338211
0.439587936027
0.439452144373
0.439316878452
0.439181887021
0.439046877392
0.438911660553
0.438776080792
0.438639969087
0.438503215729
0.438365738556
0.43822759456
0.438088815797
0.437949422177
0.437809566696
0.43766943564
0.437528941152
0.437388021971
0.437246547606
0.437104019021
0.436959957168
0.436813412259
0.436662166348
0.436505190325
0.436342163182
0.436171534359
0.435993768573
0.435811774982
0.43562856697
0.435450548541
0.435288158449
0.435143938984
0.435017418135
0.434890449511
0.434695862857
0.434323913668
0.474290272669
0.475996467527
0.476854598951
0.476879722415
0.476791535552
0.476751418003
0.476732457595
0.476715720537
0.476687972497
0.476643917032
0.476581508301
0.476502627648
0.476409051808
0.476304104922
0.476190139265
0.47607019185
0.475946167948
0.47582030863
0.475693708327
0.475568300201
0.475444380657
0.475323048715
0.475204949757
0.47509115917
0.474981864157
0.474878782211
0.474782683491
0.474695132
0.474617241216
0.474550807595
0.474496985082
0.474457277422
0.474432689235
0.474424626159
0.474433217044
0.474459416519
0.474503219786
0.474564770497
0.474643413878
0.474738790161
0.474849544082
0.474974407688
0.475111317627
0.475258090689
0.475411968769
0.475570096179
0.47572898205
0.475885322255
0.476035232462
0.476174255732
0.476296523249
0.476397792604
0.476472293012
0.476514761702
0.476520473476
0.476485225441
0.476405157451
0.476280867569
0.476113770245
0.475904703357
0.475653552511
0.475360058505
0.475022411186
0.474639329832
0.47420609487
0.473719187633
0.473175005181
0.472571229733
0.471908018617
0.471188053083
0.470413543376
0.46959014794
0.468726635789
0.467831432149
0.466908510024
0.465967634718
0.465022498421
0.464078600474
0.46313220603
0.462192734835
0.461284777207
0.460373212335
0.459474837153
0.45860332236
0.457770463278
0.456981022067
0.456213337386
0.455474262528
0.454764140617
0.454065091473
0.453418871264
0.452781437916
0.452077161209
0.451365141144
0.450638677352
0.44992964484
0.449304028849
0.44880481141
0.448457058101
0.448293869732
0.448246373913
0.448183351499
0.448021665025
0.447780137713
0.447464972229
0.447057541438
0.446585084068
0.446088960452
0.445611286996
0.44517304949
0.444779843146
0.444428458359
0.444112655227
0.443825641209
0.443561575817
0.443315606214
0.443083803505
0.442863878764
0.442655329284
0.442458865503
0.44227426523
0.442099058042
0.441930525371
0.441767152452
0.441608534783
0.441454626362
0.441305373535
0.441160557882
0.441019810767
0.440882640753
0.440748476928
0.44061654764
0.440486220652
0.440356913225
0.440227920412
0.440098491136
0.439968483181
0.439838996754
0.439712057154
0.4395896358
0.439471613902
0.439355440632
0.439238828557
0.439121084015
0.439002734727
0.438884384995
0.438766300369
0.438648453107
0.438530680889
0.438412967192
0.438295216751
0.438177352581
0.438059287192
0.437940861742
0.437821985988
0.437702553397
0.437582507893
0.437461770528
0.437340352393
0.437218226704
0.437095148829
0.43697089418
0.436845083323
0.436716999412
0.436585778937
0.436450237345
0.436308203259
0.4361585316
0.436000616337
0.435832916106
0.435656091251
0.435472870689
0.435285481683
0.435098667878
0.434920673955
0.434751968521
0.434588294245
0.434407128584
0.434144400674
0.433715885639
0.474026318448
0.477277485813
0.477907737867
0.47739657309
0.477079280815
0.476940109737
0.476868438608
0.476814590479
0.476753508892
0.476678224719
0.476585440749
0.476476784307
0.476353540169
0.476218920214
0.476074767089
0.475924073277
0.475768306479
0.475609964459
0.475450021371
0.475289928948
0.475130447815
0.474973125365
0.4748179636
0.474666451759
0.474519304084
0.474377713345
0.474242518696
0.474115495956
0.473997669629
0.473890762112
0.473795871321
0.473714739786
0.473648085851
0.473597061388
0.473562250909
0.473544308373
0.473542940954
0.473558524267
0.473590289973
0.473637668907
0.473699285966
0.473773842587
0.473859292326
0.473953619011
0.474054284251
0.474158978351
0.474264724523
0.474368837836
0.474468480713
0.474560237104
0.474637522148
0.474696753168
0.474731506838
0.474734470159
0.474699151619
0.474619574864
0.474492438624
0.474320902997
0.474106686693
0.473851670621
0.473556852014
0.473224595333
0.472854729436
0.472444956237
0.471987824629
0.471479243825
0.470913635736
0.470286676124
0.469598725862
0.468853887434
0.468055297363
0.467205801749
0.466318158287
0.465406405651
0.464473456946
0.463525146702
0.462576400999
0.461633021325
0.460685442012
0.459750832478
0.458837938983
0.457960911699
0.457123457404
0.456299901009
0.455500381805
0.454736357989
0.454009517902
0.453319773344
0.452630596968
0.451918336661
0.451226099259
0.450519985127
0.449810001458
0.449140617471
0.448514670465
0.447976917664
0.447556101842
0.447257644926
0.447062828074
0.446955406756
0.446858910142
0.446705358331
0.446480867789
0.446201352579
0.445865789625
0.445476523149
0.445057023442
0.4446319309
0.444222535929
0.443840353263
0.443490083611
0.443171444122
0.442881740446
0.442617042196
0.442373369745
0.442146883703
0.441934516422
0.441734485063
0.441546539758
0.441371012623
0.441206981448
0.441051935356
0.440903302582
0.440759678217
0.440620552555
0.440485787289
0.440355238287
0.440228648679
0.440105599828
0.439985559709
0.439867977113
0.43975236683
0.439638293994
0.439525180643
0.439412280125
0.439298868522
0.439185027639
0.439072222259
0.43896271513
0.43885840143
0.438758634791
0.438660900702
0.438562923156
0.438464024732
0.438364560647
0.43826492706
0.438165260929
0.438065417534
0.437965358563
0.437864989748
0.437764292613
0.437663195063
0.437561630479
0.437459544998
0.437356831667
0.437253356768
0.437149037415
0.437043785639
0.436937581312
0.436830303256
0.436721636797
0.436611241285
0.436498678193
0.436383059008
0.436263375578
0.436138391572
0.436006073767
0.435865243489
0.435715175086
0.43555439607
0.43538337525
0.435204408729
0.43501866299
0.434829092492
0.434641289443
0.434453485358
0.434258138116
0.434030789711
0.433714337345
0.433247128509
0.474096224544
0.479040622959
0.478861047474
0.477685539978
0.47723270503
0.477028379285
0.476902376743
0.476791795303
0.476673813445
0.476544018953
0.47639937061
0.476242502418
0.476073704416
0.47589607213
0.475710544627
0.475519882921
0.475325040446
0.475128192071
0.474929889991
0.474732089244
0.474534990128
0.474339953185
0.474147630318
0.473959099798
0.473774577216
0.473595745425
0.47342323007
0.473258474652
0.473102422969
0.472956696387
0.472822220183
0.472700297363
0.472591731641
0.472497640182
0.472418059578
0.472353714958
0.472304443016
0.472270178856
0.472250150818
0.472243841936
0.472249803328
0.472266826577
0.472293067539
0.472326854664
0.47236627423
0.472409754932
0.47245565761
0.472502623589
0.472549109351
0.472593334182
0.472630020328
0.472653020948
0.472654251751
0.472622046458
0.47254468467
0.472411892193
0.472223234265
0.471985467997
0.471702828049
0.471380502209
0.471025457183
0.470645164932
0.470245278182
0.469815513391
0.469347400725
0.46883306741
0.468264773292
0.467633664633
0.466936522875
0.466181566012
0.465376464609
0.464520553493
0.463624209914
0.46271389093
0.461775097915
0.460821782361
0.459876469527
0.458946838827
0.458044394902
0.457173867806
0.456314068938
0.455476860009
0.454673924547
0.453904636271
0.453172331584
0.452472434211
0.451783116949
0.451084959065
0.450375787355
0.449671749467
0.449004486629
0.448351735652
0.447749377353
0.44720982477
0.44673495477
0.446346222481
0.446050481753
0.445838835726
0.445679934477
0.445545075594
0.445384498025
0.445175296993
0.444922210783
0.444633169613
0.444309259558
0.44395809245
0.44359424325
0.44323101892
0.442879753854
0.442547703357
0.442238852458
0.441954265871
0.441693121382
0.441453334733
0.441232183912
0.441026717514
0.44083455891
0.440654390178
0.440486086278
0.440329717077
0.44018406985
0.440046806022
0.43991573647
0.439789597875
0.43966786066
0.439550353836
0.439436942749
0.439327416821
0.439221422457
0.439118506384
0.439018170947
0.438919937579
0.438823226264
0.438727342887
0.438631360579
0.438534612548
0.438437478305
0.438341667951
0.438249615864
0.43816279848
0.43808034322
0.437999861615
0.437919326784
0.437838136277
0.437756478028
0.437674615345
0.437592514674
0.437510068771
0.437427164451
0.437343754009
0.437259852818
0.437175419852
0.437090409218
0.437004726257
0.436918247219
0.436830808063