/*--------------------------------*- C++ -*----------------------------------*\
| =========                 |                                                 |
| \\      /  F ield         | OpenFOAM: The Open Source CFD Toolbox           |
|  \\    /   O peration     | Version:  v1806                                 |
|   \\  /    A nd           | Web:      www.OpenFOAM.com                      |
|    \\/     M anipulation  |                                                 |
\*---------------------------------------------------------------------------*/
FoamFile
{
    version     2.0;
    format      ascii;
    class       volScalarField;
    location    "15";
    object      p;
}
// * * * * * * * * * * * * * * * * * * * * * * * * * * * * * * * * * * * * * //

dimensions      [0 2 -2 0 0 0 0];


internalField   nonuniform List<scalar> 
12225
(
-3.67135032254
-4.42277400629
-4.67154253916
-4.74145960296
-4.80151580841
-4.86098518759
-4.90431494678
-4.92804658172
-4.93521147663
-4.92799571937
-4.90606212463
-4.86749408042
-4.80973624717
-4.72974421761
-4.62345629322
-4.48480070219
-4.30262113491
-4.06006716503
-3.84480896536
-4.43376998421
-4.67623229136
-4.75039834825
-4.80908196422
-4.86661808465
-4.90901240782
-4.9324451844
-4.93953892343
-4.93235041848
-4.91056427347
-4.87232516503
-4.81514757157
-4.73609216623
-4.63132088133
-4.49539530476
-4.32003685114
-4.11688119184
-3.98724835886
-4.42071437257
-4.66232734467
-4.74998243498
-4.81078500959
-4.86775982043
-4.91054644763
-4.93505072005
-4.94329109602
-4.93720861818
-4.91666086845
-4.880039964
-4.82513270707
-4.74938508039
-4.64969686715
-4.52231081917
-4.36320304324
-4.18452581967
-4.11140802119
-4.43268852509
-4.66540589595
-4.76304916403
-4.82387297277
-4.87825864407
-4.92008073257
-4.94489271564
-4.95383614672
-4.9486285904
-4.92932613333
-4.89463679424
-4.84270190326
-4.77146630389
-4.67872642636
-4.56242394159
-4.42165232836
-4.2663765913
-4.22170043213
-4.45934402958
-4.67076288526
-4.77251104078
-4.83306610903
-4.88519311314
-4.92642203528
-4.95207670629
-4.96237930864
-4.95878339258
-4.94156588423
-4.90980482061
-4.86205951975
-4.79683640389
-4.71284164624
-4.6094783324
-4.4879228945
-4.35652118482
-4.32026550976
-4.49604234946
-4.68162199511
-4.78469348036
-4.84637306889
-4.89732848117
-4.93822103893
-4.96477571402
-4.97659146841
-4.97490519482
-4.9602190558
-4.93200131385
-4.88925953548
-4.83107463425
-4.75698922762
-4.66756411478
-4.56529368733
-4.45768541738
-4.40912020589
-4.53966604403
-4.69859136949
-4.79949215448
-4.86176644558
-4.91135665542
-4.95137831291
-4.97845816115
-4.99180824268
-4.99239128641
-4.98083182702
-4.95693457647
-4.92013850771
-4.87006760591
-4.80697803465
-4.73227457879
-4.64917176923
-4.56443664393
-4.49002402491
-4.58776341287
-4.72149052079
-4.8173666142
-4.87960790862
-4.92819796106
-4.96764906206
-4.99560644552
-5.01105251252
-5.01463416757
-5.00701864865
-4.98831378126
-4.95838372719
-4.91735871276
-4.86607367352
-4.80649195815
-4.74212127684
-4.67895214601
-4.56446250247
-4.63854282304
-4.74981685742
-4.83873898547
-4.90016179309
-4.94799251981
-4.98708306278
-5.0160234686
-5.03375875436
-5.04068055834
-5.03747723024
-5.02453451658
-5.00211324767
-4.97077805327
-4.93178432939
-4.88739262133
-4.84108282764
-4.79794923968
-4.6336710903
-4.69075245065
-4.78287296379
-4.86384564651
-4.92367431517
-4.970898998
-5.00991613739
-5.04006981485
-5.06042260089
-5.07119214733
-5.0730620588
-5.06663388777
-5.05248966423
-5.03152057122
-5.00523898721
-4.97598975107
-4.94702646526
-4.92256195155
-4.69864721394
-4.74353019828
-4.81985312962
-4.89270306719
-4.95034767689
-4.99708175701
-5.03636542012
-5.06803533503
-5.09134888444
-5.10642402595
-5.11391917903
-5.11458289173
-5.10923316598
-5.09898220965
-5.08546371344
-5.07095619271
-5.05837270334
-5.05106180855
-4.75511971368
-4.7920297069
-4.85670427729
-4.9224689273
-4.97778864226
-5.02416753192
-5.06402362108
-5.09740533833
-5.12376199953
-5.14317828795
-5.15628122699
-5.16389501276
-5.16697437225
-5.1667419211
-5.1648408622
-5.16339663861
-5.16497207546
-5.17224202726
-4.80887178821
-4.83988208619
-4.89518837368
-4.95457477156
-5.00753227472
-5.05365995964
-5.09436391544
-5.12973688449
-5.15939358915
-5.18341771101
-5.20240159843
-5.21719977504
-5.22883646746
-5.23857183214
-5.24798846885
-5.25900635526
-5.27382254932
-5.29446002097
-4.86761364113
-4.89380889001
-4.9409574913
-4.99423840051
-5.04472657092
-5.09077386564
-5.13282171256
-5.1708703017
-5.2046620349
-5.23429551161
-5.26031984853
-5.28357153161
-5.30507738279
-5.32605672835
-5.34795278649
-5.37240941337
-5.40121857567
-5.43576818992
-4.93110370136
-4.95365224463
-4.99426572328
-5.04228570106
-5.09058931637
-5.13694275585
-5.18100879788
-5.22259980553
-5.26151839779
-5.29787217451
-5.33214640267
-5.36510699606
-5.39769875339
-5.43101577253
-5.46628164289
-5.50481341792
-5.54798015532
-5.59657079781
-4.99868194981
-5.01875820277
-5.05475901325
-5.09897347045
-5.14595039161
-5.19336975191
-5.24038047654
-5.2865762262
-5.33174812222
-5.37597623542
-5.41965556497
-5.46341714926
-5.50804907636
-5.55443607278
-5.60352569659
-5.65627878894
-5.71365673836
-5.77590527039
-5.06877672577
-5.08753098578
-5.12106043846
-5.16350206428
-5.21066333728
-5.26039189602
-5.31157246614
-5.36361351335
-5.41623425152
-5.46943942593
-5.52348845781
-5.57882911596
-5.63602592401
-5.69570132083
-5.75849342651
-5.82501137735
-5.89584930176
-5.97078770823
-5.13785611306
-5.15643199383
-5.18982636182
-5.23304816411
-5.28255342828
-5.33635119651
-5.39322514382
-5.45245815405
-5.51366577537
-5.57673119534
-5.64174434943
-5.70893948469
-5.77863086278
-5.85116398653
-5.92687590006
-6.00606476318
-6.08902208723
-6.1751688481
-5.19832078148
-5.2181088414
-5.25424696227
-5.30155855204
-5.35634825058
-5.4165916775
-5.48105717911
-5.54896834756
-5.61983002299
-5.69337916709
-5.76952767199
-5.84830418306
-5.92978875799
-6.01407633591
-6.10124215551
-6.19132962701
-6.28439125126
-6.37957163664
-5.22556721263
-5.2480191708
-5.28985311873
-5.344236591
-5.40631846367
-5.47390506856
-5.54595033477
-5.621764129
-5.70078704805
-5.78266258352
-5.86719932346
-5.95432565304
-6.04398461761
-6.13613160224
-6.23068431194
-6.32755581907
-6.42667371787
-6.527070166
-5.22579119462
-5.25181212426
-5.30105225085
-5.36369126573
-5.43312870466
-5.50725383004
-5.58554551236
-5.66750660924
-5.75256708241
-5.84033100248
-5.93062340833
-6.02334925883
-6.11842235993
-6.21571081217
-6.3150764535
-6.41635274885
-6.5194484826
-6.62334182829
-5.20625664652
-5.23787229632
-5.29764024844
-5.37038322072
-5.44743793638
-5.52765153769
-5.61148893842
-5.69865294227
-5.78850178142
-5.88066357791
-5.97503791525
-6.07158130293
-6.17018838418
-6.27068928186
-6.37289207138
-6.47659329621
-6.58165423486
-6.68701175165
-5.17005010614
-5.2105245434
-5.28494843881
-5.36927716328
-5.4535025045
-5.53907582515
-5.62784364111
-5.7195369375
-5.81341700905
-5.90923071726
-6.00702827654
-6.10682109567
-6.20846589774
-6.31174049857
-6.41640037564
-6.52223930509
-6.62912902659
-6.73607400476
-5.11897567704
-5.17378111383
-5.26803763605
-5.36448252222
-5.45459143025
-5.54454827349
-5.6374125171
-5.73251123238
-5.82902732427
-5.92700816557
-6.02677323422
-6.12842714445
-6.23181460665
-6.33665628321
-6.44266265405
-6.54955921745
-6.65715168537
-6.76433384005
-5.05369376374
-5.13181051834
-5.25145004045
-5.35883781067
-5.45308814691
-5.54707838714
-5.64417184527
-5.74276451873
-5.8419771342
-5.94219709927
-6.04396966248
-6.1474523941
-6.25247897092
-6.35876211978
-6.46601086683
-6.57393821331
-6.6823257663
-6.79006394571
-4.97380100972
-5.0894853268
-5.23877192159
-5.35330159936
-5.44876847105
-5.54505597979
-5.64457516969
-5.74485604475
-5.84532089672
-5.94675286777
-6.04978443875
-6.1544936251
-6.2606375542
-6.3679100022
-6.47602829623
-6.58467982653
-6.69349614203
-6.80102639458
-4.87817054357
-5.05291001429
-5.23286033588
-5.35107129681
-5.44852705884
-5.54857421028
-5.6508329234
-5.75242466281
-5.85364494777
-5.95584667098
-6.05973764009
-6.16528066161
-6.27215628322
-6.38005769363
-6.48875774121
-6.59798704512
-6.70730713456
-6.81494532678
-4.76492923102
-5.02853055875
-5.22796117546
-5.33991619546
-5.43734126473
-5.54101970775
-5.64589372432
-5.74874923071
-5.85082365369
-5.95397359099
-6.05892248932
-6.16550555082
-6.27331562207
-6.38205504998
-6.4915753302
-6.60172060025
-6.71205360801
-6.82026112087
-4.63258954002
-5.03556809355
-5.24704958536
-5.34684146752
-5.44142008496
-5.5460442346
-5.65127781826
-5.75372948759
-5.85534547968
-5.9583039791
-6.06330418982
-6.17006111177
-6.27808841803
-6.38708612805
-6.49698764268
-6.60786508679
-6.71977566139
-6.83150075767
-4.46179386225
-5.01696153355
-5.24211071085
-5.33842712252
-5.43427781192
-5.5412627054
-5.64796209786
-5.75114596938
-5.85322161012
-5.95658510121
-6.06197178701
-6.16907581636
-6.27739946707
-6.38665796817
-6.49683207614
-6.6081484437
-6.72110007531
-6.84021592363
-3.09812802117
-3.1033283322
-3.11017123962
-3.11360224964
-3.11599371637
-3.12475804352
-3.14669603288
-3.18399653655
-3.23895129455
-3.31353502716
-3.40938573459
-3.52781552131
-3.66983314731
-3.8361713134
-4.02731841584
-4.24354933858
-4.48496049616
-4.75149791197
-5.04299192967
-5.35917801497
-5.69972713496
-6.06425785246
-6.45236018817
-6.86359746613
-7.29752240487
-7.75366995126
-8.23156344368
-8.73070082333
-9.25055168266
-9.79053724602
-10.3500186836
-10.9282734205
-11.524476521
-12.1376736381
-12.7667575776
-13.4104411438
-14.0672319902
-14.7354084345
-15.4129975145
-16.0977572079
-16.7871613228
-17.4783941077
-18.1683529849
-18.8536662422
-19.5307198622
-20.1956924409
-20.844597258
-21.4733321256
-22.0777428968
-22.6536909433
-23.1971347303
-23.7042098898
-24.17131846
-24.5951878484
-24.9729170021
-25.3019748437
-25.5801928039
-25.8057342237
-25.9771255723
-26.0933121967
-26.1537829684
-26.1586149588
-26.1083794705
-26.0037898141
-25.8455377541
-25.6348764009
-25.3741348975
-25.0661778256
-24.7138850932
-24.319859332
-23.8862571163
-23.4145466673
-22.9053849528
-22.3583907256
-21.772037239
-21.1433871778
-20.4679544886
-19.7394184245
-18.9495437197
-18.0880741178
-17.1430931396
-16.1015610602
-14.9504404705
-13.6780072075
-12.2758258761
-10.7405947649
-9.07585224396
-7.2927225415
-5.41020068831
-3.45441272565
-1.45694491867
0.54743529036
2.52338102131
4.4373105592
6.25950880654
7.96559155443
9.53740335959
10.9633955025
12.2381843104
13.3616399996
14.3377885471
15.1738153337
15.8790650588
16.4642398721
16.9401679298
17.3190257467
17.6128928215
17.8379324701
18.0043602911
18.12626046
18.21270265
18.2576640067
18.2584839977
18.2225574994
18.1593503131
18.0768441316
17.9811336259
17.8768392394
17.7674231495
17.6555230595
17.5430988953
17.4316450888
17.3222659828
17.2158181485
17.1128972486
17.0139369517
16.919169593
16.8287333789
16.7426296012
16.6608238546
16.5831883527
16.5096473847
16.4401449825
16.3745998312
16.3128399985
16.2546879625
16.1998924251
16.1482029549
16.0993508549
16.0530934735
16.0091853397
15.9674044766
15.9275453247
15.8894276699
15.8528876819
15.8177756131
15.7839479186
15.7512771986
15.7196392749
15.6889158319
15.6590026503
15.629810429
15.6012549883
15.5732604482
15.5457523969
15.5186659551
15.4919544252
15.4655779145
15.4394836736
15.4136317975
15.3880159627
15.3626342923
15.3374567694
15.3124778186
15.2877078114
15.2631692312
15.2388721178
15.2148370371
15.1911205414
15.1677939627
15.14492953
15.1226374964
15.1011011716
15.0805757856
15.0613302982
15.0436789788
15.0280103405
15.0147372825
15.0055285848
14.988848488
-3.07704332459
-3.0837865136
-3.09714723833
-3.11379605516
-3.12281868772
-3.12868155288
-3.1471394072
-3.18274232959
-3.23731243728
-3.31244151293
-3.40952531325
-3.52970051044
-3.67383679271
-3.8425510949
-4.03623312758
-4.25507390248
-4.49909906599
-4.76819761078
-5.06215455562
-5.38067375414
-5.72340542272
-6.08995968981
-6.47992690934
-6.89288203189
-7.3283952069
-7.78602741896
-8.26533218522
-8.76584355153
-9.28706874767
-9.82847004909
-10.3894495397
-10.9693262628
-11.5673144286
-12.1824971122
-12.8137999626
-13.4599631729
-14.1195143757
-14.7907434181
-15.4716789238
-16.1600686762
-16.8533624039
-17.5487036403
-18.2429332154
-18.9326097855
-19.6140401423
-20.2833130034
-20.9363413609
-21.5689180857
-22.1767862379
-22.7557134977
-23.3015840622
-23.8104926036
-24.2788286261
-24.7033255949
-25.081093503
-25.4096186108
-25.6867491297
-25.9106716058
-26.0799388835
-26.1935663691
-26.2512235894
-26.2533570253
-26.2008079303
-26.0937788144
-25.9314964172
-25.7152938121
-25.4488687791
-25.1356638903
-24.7789072999
-24.3814824078
-23.9457811341
-23.473516609
-22.9655677661
-22.4217879948
-21.8408471411
-21.2200036022
-20.5548837716
-19.8392169092
-19.0646743993
-18.2207696015
-17.2950753641
-16.2738141552
-15.1429661976
-13.8897190513
-12.5044122229
-10.9826336213
-9.32706850812
-7.54846746279
-5.6658312926
-3.70562100594
-1.7000763467
0.315370377598
2.30470990479
4.23379849986
6.0724546027
7.79596654403
9.38574116331
10.8295829451
12.1211582498
13.2591219742
14.2462560191
15.0890839969
15.7968520708
16.3812943034
16.8552083527
17.2351703301
17.5331660162
17.7676611481
17.9502961456
18.081655985
18.1676248088
18.2111994394
18.2143657063
18.1830747399
18.125056163
18.0474169274
17.9559724325
17.8552865912
17.7488960738
17.6395110741
17.529192125
17.4194986906
17.311613837
17.2064313289
17.1046061585
17.0065847514
16.9126401159
16.8229150476
16.7374642005
16.6562797622
16.5793137045
16.5064746172
16.4375673666
16.3724187429
16.3109413287
16.2530137102
16.1984154011
16.146895442
16.0981966037
16.0520729829
16.0082849964
15.9666090796
15.9268436995
15.8888121319
15.8523523529
15.8173130356
15.7835516715
15.7509353376
15.7193418441
15.6886583867
15.6587842956
15.6296273649
15.60110251
15.5731377854
15.5456614017
15.5186075623
15.4919168795
15.4655508223
15.4394753084
15.4136530321
15.3880569596
15.362674354
15.3374918511
15.3125103895
15.2877387237
15.2632017946
15.2389174526
15.2148975945
15.1911724786
15.16781779
15.144930188
15.1226209988
15.1010589903
15.0804814429
15.0611646165
15.0434260358
15.027640879
15.0141687194
15.0043922235
14.9865970098
-3.03066492853
-3.04444703313
-3.06248426637
-3.08572278554
-3.11307945963
-3.14486754452
-3.18597438965
-3.24050412544
-3.3115643038
-3.40149361964
-3.51204195556
-3.64451313717
-3.79985531346
-3.97872356683
-4.18153036942
-4.40848742541
-4.65964566128
-4.93492762261
-5.23416132949
-5.55710342596
-5.90346559155
-6.27292821906
-6.66515807409
-7.0798119612
-7.51654571881
-7.97500878329
-8.45484387602
-8.95567463747
-9.47709661752
-10.0186586024
-10.5798459514
-11.1600569509
-11.7585796909
-12.374564268
-13.0069947001
-13.654658686
-14.3161177246
-14.9896799047
-15.6733743252
-16.3649284927
-17.0617475738
-17.7609026659
-18.4591346075
-19.15288012
-19.8383083081
-20.5113560493
-21.1677717737
-21.803178744
-22.4131591464
-22.9933384527
-23.5394980029
-24.04768179
-24.5142711374
-24.9360221149
-25.3100865208
-25.6340073053
-25.9056857201
-26.1233397085
-26.2855291827
-26.3913137161
-26.4405891879
-26.4340691399
-26.3722283337
-26.2537763794
-26.0788362053
-25.8507224831
-25.5731928425
-25.2498603589
-24.8843044037
-24.4798366389
-24.0392979278
-23.5648536351
-23.0577995337
-22.5183573668
-21.9454923099
-21.3366986222
-20.6877385304
-19.992354969
-19.2420585061
-18.4259682764
-17.5308667492
-16.5417226297
-15.442826786
-14.2193947198
-12.8596063843
-11.3570148005
-9.7127960047
-7.937051288
-6.04896729373
-4.0760027225
-2.05178256566
-0.0132896502111
2.00196189186
3.95843895895
5.82468973495
7.5749590296
9.18942929881
10.6546700618
11.9630991741
13.1125721014
14.1058445305
14.9508978644
15.6590111232
16.2453750651
16.7235582748
17.1142006292
17.4315569958
17.6804475577
17.8692636248
18.0051449135
18.0947384317
18.1421005513
18.1506999541
18.1259730284
18.0746205858
18.0031202212
17.9170696683
17.8210146246
17.7185765666
17.6125610137
17.5051389956
17.3979515284
17.2922651123
17.1890208453
17.088924021
16.9924411026
16.8998849155
16.8114173294
16.7271086645
16.6469509974
16.5709174096
16.4989178379
16.4308209243
16.3664285101
16.3056078712
16.2482418082
16.1941450292
16.1430731569
16.0947816793
16.0490256751
16.0055719628
15.964200056
15.9247090247
15.8869228457
15.8506840967
15.8158448213
15.7822637278
15.7498098684
15.7183653992
15.6878192873
15.6580705361
15.6290307703
15.6006103099
15.5727291884
15.5453178786
15.5183197091
15.4916842962
15.4653604702
15.4393075298
15.4134994746
15.3879154132
15.362548419
15.3373887204
15.3124385843
15.2877062766
15.2631819865
15.2388625297
15.2147845396
15.1910005642
15.1675524796
15.1445218362
15.1220508463
15.1003249131
15.0795762571
15.060067732
15.0420791511
15.0259222904
15.0118670165
15.0007642325
14.9820972518
-3.00736039262
-3.0259914807
-3.05431883903
-3.0905594651
-3.13511574811
-3.18853671642
-3.25254549926
-3.32935542711
-3.42126652764
-3.53033293146
-3.65825570272
-3.80637745623
-3.97571154822
-4.1669840534
-4.38067947112
-4.6170833629
-4.87632443537
-5.15840890988
-5.46325486427
-5.79071634325
-6.14060903234
-6.5127228484
-6.90683871985
-7.32273127589
-7.76017578556
-8.21894215979
-8.69879350596
-9.19947237406
-9.72069115055
-10.2621122121
-10.823330509
-11.4038482869
-12.0030506787
-12.6201760119
-13.2542850557
-13.9042271932
-14.5686072936
-15.2457545251
-15.9336934012
-16.6301175118
-17.3323640258
-18.0373974032
-18.7418128818
-19.4418691776
-20.1335338013
-20.8125225084
-21.4743448597
-22.1143773996
-22.7279698123
-23.3105486445
-23.8577544433
-24.3655613985
-24.8303389257
-25.2488788699
-25.6184245066
-25.936663656
-26.2016413178
-26.4116765874
-26.5654159461
-26.662104356
-26.7018992151
-26.6854070833
-26.6119980067
-26.4787966337
-26.2874324439
-26.0434605573
-25.7507464421
-25.4134875104
-25.0359174319
-24.6220609519
-24.1754692765
-23.6989665161
-23.194417009
-22.6624873056
-22.1024539334
-21.5120334966
-20.8871333871
-20.2215228202
-19.5065534417
-18.7309101233
-17.880455617
-16.9385353505
-15.8870793122
-14.7083359639
-13.3871774156
-11.9139441167
-10.2872434731
-8.51574722993
-6.61865623507
-4.62470833828
-2.56989937891
-0.493873778395
1.56310760799
3.56258966618
5.47020541451
7.25783633554
8.90340722253
10.3921921705
11.7167294423
12.8764151113
13.8769558829
14.7293299595
15.4474594704
16.0496937464
16.5526608151
16.9656853784
17.2964660618
17.5555358236
17.7528260701
17.8960414245
17.9916515749
18.0447347251
18.0599320187
18.0426924063
17.9991087838
17.9351368113
17.856067928
17.7663411144
17.6695614851
17.5685844233
17.4656408917
17.3624482808
17.2603324205
17.1602967651
17.0630831635
16.9692031637
16.8789961963
16.79265762
16.7102864646
16.6318892476
16.5574444634
16.4868934605
16.4201166534
16.3569509928
16.29726291
16.2409063453
16.1876872099
16.1373788471
16.0897536773
16.0445831547
16.0016455476
15.9607285883
15.9216417618
15.8842173191
15.8483031414
15.8137537974
15.7804333296
15.7482109259
15.7169696101
15.6866058437
15.6570137985
15.6281004895
15.5997838434
15.5719939282
15.5446705592
15.5177451937
15.4911632426
15.4648847736
15.438878819
15.4131201617
15.3875885702
15.3622662455
15.3371471558
15.312207924
15.2874321709
15.2628328258
15.2384441834
15.2142839192
15.1903714751
15.1667795528
15.1436193492
15.1210395118
15.0992215574
15.0783611936
15.0586803433
15.0404027049
15.0237042535
15.0086654258
14.9956384694
14.9753114903
-3.05942045683
-3.08181332987
-3.1162934233
-3.16210493552
-3.21931336261
-3.28828176268
-3.36995984138
-3.46560182925
-3.57660045679
-3.70431363893
-3.84996576918
-4.01459368594
-4.19902827067
-4.40389943458
-4.62965653936
-4.87659412055
-5.14488268627
-5.43459547655
-5.74573745559
-6.07826485509
-6.43210717628
-6.80717777446
-7.20338718736
-7.62064392286
-8.05886010784
-8.51794360789
-8.99779530663
-9.49829454642
-10.0192886459
-10.5605718762
-11.1218672306
-11.7027994346
-12.3028692704
-12.9214207268
-13.5576078133
-14.2103561108
-14.8783245944
-15.5598690695
-16.2530086893
-16.955394371
-17.6642779874
-18.3764896111
-19.0884384155
-19.7961502099
-20.4953230231
-21.1813732258
-21.8494845561
-22.4946971952
-23.1120495053
-23.6967199354
-24.2441951916
-24.7503941057
-25.2117121145
-25.6250378142
-25.9878024507
-26.2979379115
-26.553695287
-26.7535584132
-26.896252259
-26.9812501357
-27.008886042
-26.978748266
-26.8871678745
-26.7329543714
-26.5209410097
-26.2565039548
-25.9441296436
-25.5887908528
-25.195601524
-24.769492469
-24.3148493351
-23.8352036539
-23.33299218
-22.8093185335
-22.2637678144
-21.6943055635
-21.0971086644
-20.4661948603
-19.7930349214
-19.0662158386
-18.2709543813
-17.3890168261
-16.3996061918
-15.2810408886
-14.0135300766
-12.5826800915
-10.9830022137
-9.22066462474
-7.31438489327
-5.29472747498
-3.20142904322
-1.07848806348
1.02936206799
3.07898659841
5.03125977022
6.855867689
8.52977140523
10.0391358751
11.3795478562
12.55313558
13.570006664
14.4430579616
15.19029217
15.8232383481
16.3478370351
16.7767540474
17.1217299905
17.3934514987
17.6015059783
17.754031142
17.8579273367
17.9190581615
17.9427724602
17.9346157824
17.9003091135
17.8454079324
17.7749024451
17.6930933298
17.6035231882
17.5090727191
17.4120054279
17.31411436
17.2167734168
17.1210559802
17.0277364533
16.9373842507
16.8503632434
16.766918946
16.6871691116
16.6111579032
16.5388613278
16.4702533161
16.4052393001
16.3437168775
16.2855549938
16.2305755429
16.1785572618
16.1293003056
16.0825964167
16.0382402725
15.996023863
15.9557501804
15.9172388398
15.8803299244
15.844876823
15.8107372675
15.7777780283
15.7458792855
15.7149216264
15.6847994043
15.6554200012
15.6266981987
15.5985621918
15.57093384
15.5437386859
15.5169225477
15.4904408456
15.4642564045
15.4383348072
15.4126461479
15.387167973
15.3618824294
15.3367605857
15.3117806322
15.2869593477
15.2623299303
15.2378964127
15.2136619024
15.1896737141
15.1660189175
15.1428074075
15.1201744289
15.0982721599
15.0772760399
15.0573257919
15.0385379327
15.0210029772
15.0046141819
14.9892911031
14.9664477851
-3.19408675273
-3.21612885183
-3.25209772088
-3.30244914563
-3.36703153214
-3.4459489172
-3.53965569847
-3.64880741074
-3.77416331578
-3.91649742158
-4.07654169676
-4.25494545081
-4.45225366028
-4.6688999884
-4.90521292214
-5.16142740748
-5.4377035311
-5.73414309649
-6.05080971296
-6.38774220541
-6.74497072371
-7.12252248898
-7.52043194759
-7.93873892028
-8.3774912194
-8.83673563449
-9.31651395673
-9.81684685375
-10.3377228522
-10.8790758562
-11.4407662012
-12.0225513366
-12.6240584094
-13.2447482499
-13.8838785749
-14.5404597295
-15.2132107001
-15.900514327
-16.6003770818
-17.3103908943
-18.0276960102
-18.7489499282
-19.4703221294
-20.1875330445
-20.8959228314
-21.5905143701
-22.2660778646
-22.9172455126
-23.5387043335
-24.1253869185
-24.6726579475
-25.1764327376
-25.6332026302
-26.0400725061
-26.3947989582
-26.6956523787
-26.9411216422
-27.1297535489
-27.2604199824
-27.3327609303
-27.3466546782
-27.2996203764
-27.1852856143
-27.0063870276
-26.7715490894
-26.4847534791
-26.1512318779
-25.7767606732
-25.3672910975
-24.9285393895
-24.4655676971
-23.9824537197
-23.4820977314
-22.9660398792
-22.4342643753
-21.8851503228
-21.3154474656
-20.7198820035
-20.090673489
-19.4170705847
-18.6842758766
-17.872789173
-16.9587007041
-15.915306901
-14.7163335064
-13.3406663172
-11.777030213
-10.0279312797
-8.11129626024
-6.06050414073
-3.92218835518
-1.74753609143
0.412864825661
2.51140058916
4.50462711685
6.36244124512
8.06353908456
9.59598191248
10.9607727749
12.1609174866
13.2118702377
14.1239284612
14.9011066767
15.5558479308
16.1003823017
16.5472206766
16.908159198
17.1940341224
17.4146030197
17.5783710015
17.692690921
17.7639599793
17.7980006792
17.8004489546
17.776835828
17.732410315
17.6719257827
17.599514437
17.5186514223
17.4321915666
17.3424296173
17.2511925688
17.1599149108
17.0697084151
16.9814028041
16.8956029295
16.8127238584
16.7330418673
16.6567154545
16.5838207568
16.5143616011
16.4483116011
16.3856268541
16.326274432
16.270127005
16.2169488041
16.1665193285
16.1186583167
16.0731847287
16.0299143755
15.9886584557
15.9492373946
15.9114862343
15.8752548727
15.8404023317
15.8067987203
15.7743157409
15.7428318158
15.7122408462
15.6824467107
15.6533638581
15.6249120828
15.597005347
15.5695649609
15.542532526
15.5158630433
15.4895122121
15.4634405599
15.4376105821
15.4119953088
15.3865754627
15.3613193804
15.3361986181
15.3112212793
15.2864196553
15.261799201
15.237346801
15.2130896506
15.1890853435
15.1654156171
15.1421771128
15.119489237
15.0974884764
15.0762743523
15.0559155721
15.0364756489
15.0179244991
14.9999738476
14.982209627
14.9564511373
-3.38520585883
-3.40548474563
-3.44100640594
-3.49288171115
-3.56098547011
-3.64540660885
-3.74634323359
-3.86408962143
-3.99899446283
-4.15142155975
-4.32172289402
-4.51021684936
-4.71717721434
-4.94282822921
-5.18734839116
-5.45087635809
-5.73352280491
-6.03537977994
-6.35653426047
-6.69707500514
-7.05710318783
-7.43673437565
-7.83610403646
-8.25536283865
-8.6946773083
-9.15421850211
-9.63415649361
-10.1346431619
-10.6558000262
-11.1976942785
-11.7603185888
-12.3435594522
-12.9471676233
-13.5707178338
-14.213568494
-14.8748112656
-15.5532195631
-16.2471942092
-16.9547142561
-17.6732904702
-18.3999222385
-19.1310586871
-19.8625844075
-20.5898558605
-21.3077875506
-22.0109489819
-22.6936578454
-23.350114817
-23.9746364557
-24.5618951314
-25.1071134702
-25.6062219825
-26.055901324
-26.4536816908
-26.7978819561
-27.0872096555
-27.3203615896
-27.4958795252
-27.6129363233
-27.6713610191
-27.6693151763
-27.5999868542
-27.4615964524
-27.2612695504
-27.0050403418
-26.69722398
-26.3436318711
-25.9506627692
-25.5248717878
-25.0725688769
-24.5994127415
-24.1100582913
-23.6080127088
-23.0955009162
-22.5732616286
-22.0405422145
-21.4952309357
-20.9334172517
-20.3488578128
-19.7320621641
-19.0687327992
-18.3382235882
-17.5128785193
-16.5593342617
-15.4424985902
-14.1326039686
-12.6115638327
-10.8789221614
-8.9531998794
-6.87209259245
-4.69105916577
-2.47065503159
-0.266264246254
1.87373932929
3.90270883348
5.79206704769
7.52526801565
9.08991325362
10.493711428
11.73955716
12.8276260979
13.7674893012
14.5699915268
15.2475556806
15.8128334263
16.2784101365
16.6563018424
16.9575756481
17.192227967
17.369057848
17.4957855732
17.5791791967
17.6253711653
17.6400632171
17.6286711746
17.5962138186
17.5472463983
17.4857340683
17.4150728413
17.3380666506
17.257027001
17.1737948261
17.0898574351
17.0063541443
16.9241733984
16.8439514201
16.7661622863
16.6911106593
16.6190069373
16.5499473481
16.4839928539
16.4211207695
16.3613330849
16.304668848
16.2509868743
16.1999967474
16.1515085158
16.1053620959
16.061405592
16.0194771118
15.9794134171
15.9410537869
15.9042490755
15.868862624
15.8347669792
15.8018342014
15.7699425989
15.7389864979
15.7088679585
15.6794963706
15.6507912033
15.6226643927
15.5950329959
15.567835279
15.5410221873
15.5145482336
15.4883682068
15.4624431053
15.4367360028
15.4112293797
15.3858967883
15.3607034322
15.3356377644
15.3107289886
15.2859921694
15.2614064008
15.236979636
15.2127494051
15.1887689972
15.1651096229
15.1418505782
15.1191060959
15.0969584122
15.0754401269
15.0545804801
15.0343757266
15.0146910966
14.9950304367
14.9746940173
14.94588148
-3.60113046635
-3.61966245555
-3.65442864739
-3.7065617103
-3.77607619397
-3.86318258159
-3.96801240907
-4.0906961326
-4.23135505135
-4.39009876744
-4.56702309946
-4.7622066591
-4.97571234837
-5.20758913886
-5.45787903586
-5.72662251044
-6.01386833169
-6.31967941241
-6.64414203716
-6.98736910475
-7.34950658463
-7.73073150355
-8.13125474699
-8.55131379872
-8.99117057
-9.45109873632
-9.93137684987
-10.4322693954
-10.9540137978
-11.4967946865
-12.0607226394
-12.645799732
-13.2518876444
-13.8786633197
-14.525574543
-15.1917831621
-15.876106814
-16.5769533152
-17.2922602842
-18.0194379445
-18.7553197673
-19.4961176516
-20.237399011
-20.9741143215
-21.7006984634
-22.4112108355
-23.0994657602
-23.7591807545
-24.3842427765
-24.9690487763
-25.5087693953
-25.999614663
-26.4389431179
-26.825203816
-27.1574955199
-27.4348017929
-27.6556287385
-27.8188339786
-27.9242549739
-27.9713341562
-27.955481302
-27.8676612122
-27.7109267766
-27.4942027886
-27.2199332678
-26.8930723562
-26.5199563746
-26.1076792937
-25.6635181401
-25.1945446239
-24.7072142236
-24.2069543977
-23.6980934389
-23.1837574768
-22.665832949
-22.1449970842
-21.620737659
-21.0908962527
-20.5508813467
-19.9922846876
-19.4006614502
-18.7534257698
-18.0187437461
-17.1563191447
-16.1223743
-14.8791555382
-13.4029805133
-11.6919380914
-9.76635719216
-7.66791104221
-5.45923461287
-3.20878237352
-0.975175177553
1.19630747059
3.25814591706
5.18078297248
6.95536608955
8.5681712397
10.012612413
11.2908025803
12.4084653328
13.3750634296
14.2019508077
14.9017482463
15.4874609551
15.9719320224
16.3673707208
16.6850493707
16.9351408832
17.1266786221
17.2676170141
17.3649819005
17.4250683268
17.4536276548
17.4559658721
17.4369420264
17.4009233828
17.3517412336
17.2926864163
17.226523971
17.1555444074
17.0816137864
17.0062374316
16.9306001693
16.8556230142
16.7819959618
16.7102306033
16.6406835495
16.5735991239
16.5091170693
16.4473365747
16.3882844087
16.332008342
16.2785651482
16.2277851723
16.1793941832
16.1332246493
16.0891438392
16.0470245791
16.0067299192
15.9681205079
15.9310572233
15.8954122482
15.8610641372
15.8278910483
15.7957754721
15.7646145712
15.7343123439
15.7047734948
15.6759184167
15.6476668448
15.6199323125
15.5926490263
15.5657641689
15.539231099
15.5130036253
15.4870413787
15.4613060405
15.4357705196
15.4104135311
15.3852062068
15.3601268261
15.3351788921
15.3103822754
15.2857361315
15.2612281153
15.2368769795
15.2127165043
15.1887954518
15.1651627757
15.1419016978
15.1190858938
15.0967411981
15.0748662249
15.0534455012
15.032411201
15.0114836812
14.9899954099
14.967073469
14.935245614
-3.81269158524
-3.83001456898
-3.86432448622
-3.91637710352
-3.98637866396
-4.07467341679
-4.18141171704
-4.30667761043
-4.45048961916
-4.61282268153
-4.79362306915
-4.99281861904
-5.21033157346
-5.44608714566
-5.70002530426
-5.97210796691
-6.26232926956
-6.57072030356
-6.89735704574
-7.24236100429
-7.60590328907
-7.98820082583
-8.38951635243
-8.81014925479