/*--------------------------------*- C++ -*----------------------------------*\
| =========                 |                                                 |
| \\      /  F ield         | OpenFOAM: The Open Source CFD Toolbox           |
|  \\    /   O peration     | Version:  v1806                                 |
|   \\  /    A nd           | Web:      www.OpenFOAM.com                      |
|    \\/     M anipulation  |                                                 |
\*---------------------------------------------------------------------------*/
FoamFile
{
    version     2.0;
    format      ascii;
    class       surfaceScalarField;
    location    "15";
    object      phia;
}
// * * * * * * * * * * * * * * * * * * * * * * * * * * * * * * * * * * * * * //

dimensions      [0 3 -1 0 0 0 0];
oriented        oriented;


internalField   nonuniform List<scalar> 
24170
(
1.5109905393e-07
1.73238634783e-07
2.20780174093e-07
-6.4147768947e-08
2.3874617153e-07
-1.50584296942e-08
2.40492290671e-07
6.52313508004e-11
2.51063229699e-07
-8.92477324769e-09
2.61869823581e-07
-8.88536082421e-09
2.7383047719e-07
-9.89998243041e-09
2.86269493639e-07
-1.11622616581e-08
2.99986639362e-07
-1.26434075574e-08
3.14992627994e-07
-1.55990876024e-08
3.33088668383e-07
-1.91198341616e-08
3.56809641828e-07
-2.58599582582e-08
3.91077074331e-07
-3.65040376159e-08
4.39293373379e-07
-5.04921080611e-08
4.96967342455e-07
-5.96535531373e-08
5.44434095295e-07
-4.89534568564e-08
6.09370062109e-07
-6.57741029792e-08
-5.44177986387e-07
1.1531497711e-06
6.29636789501e-07
-9.87335822101e-08
3.19597249283e-07
2.56039729974e-07
3.81311548064e-07
-7.1404322531e-08
3.87796131546e-07
-2.68309365885e-09
4.08323612689e-07
-2.6091962301e-08
4.26533669414e-07
-2.34856831728e-08
4.47064834661e-07
-2.68929390914e-08
4.67601485265e-07
-2.89187817865e-08
4.89409653411e-07
-3.24979023823e-08
5.12258914649e-07
-3.82518816502e-08
5.38087665612e-07
-4.58771773733e-08
5.68438966649e-07
-5.83659169559e-08
6.05257027585e-07
-7.58157472421e-08
6.47478378798e-07
-9.51803002409e-08
6.87857685095e-07
-1.0212003345e-07
7.24817042707e-07
-8.74734913492e-08
8.16991825529e-07
-1.58914112037e-07
-6.66004876017e-07
9.37770045853e-07
-5.14356701009e-08
3.19425654231e-07
4.35407616243e-07
-2.30149372889e-07
3.03542081921e-07
6.0800011279e-08
3.32346736078e-07
-3.14696766751e-08
3.3066362674e-07
-2.43597338192e-08
3.39934682698e-07
-3.25969748041e-08
3.47365340684e-07
-3.41210297515e-08
3.55978613265e-07
-3.78099077666e-08
3.65456468542e-07
-4.23945574639e-08
3.75991778621e-07
-4.99298952338e-08
3.89394637805e-07
-6.05133903008e-08
4.07151691185e-07
-7.76781801308e-08
4.30808125821e-07
-1.00954759398e-07
4.59123560573e-07
-1.24935218234e-07
4.90937625846e-07
-1.35199784178e-07
5.44433196521e-07
-1.41990119436e-07
6.5736287052e-07
-2.72606306413e-07
-6.86273341977e-07
6.76700809576e-07
7.69524705624e-07
-4.83773894239e-08
3.1880722758e-07
2.25430416901e-07
3.88341872033e-07
-6.40840099002e-09
3.98001855367e-07
-3.96601404149e-08
4.08186472819e-07
-3.32519866573e-08
4.19335414917e-07
-4.23362119567e-08
4.30780819547e-07
-4.42967191957e-08
4.42504251139e-07
-4.87981303054e-08
4.54420407181e-07
-5.42227428923e-08
4.66351402041e-07
-6.27145996939e-08
4.79355728475e-07
-7.49743978366e-08
4.93593442542e-07
-9.38614356105e-08
5.08543244595e-07
-1.17942713257e-07
5.21966840903e-07
-1.40313677878e-07
5.37458408943e-07
-1.52406993519e-07
5.76747343983e-07
-1.82670877731e-07
6.38813082707e-07
-3.35768083347e-07
-6.3523495147e-07
5.86610866358e-07
-5.88191429969e-09
3.74485012498e-07
4.11843711123e-07
-1.94569371803e-07
3.87309511947e-07
1.68680422546e-08
3.87389117813e-07
-4.05909067934e-08
3.96161143433e-07
-4.27099380483e-08
4.05526004504e-07
-5.23396838579e-08
4.16848085164e-07
-5.62913962738e-08
4.29511308026e-07
-6.24113037623e-08
4.43860221644e-07
-6.96294924691e-08
4.59864393509e-07
-8.00161571183e-08
4.78198404528e-07
-9.45626584136e-08
4.98139621555e-07
-1.15063517132e-07
5.18065174859e-07
-1.39037724928e-07
5.36487676693e-07
-1.59856786528e-07
5.59603699789e-07
-1.76550444344e-07
6.00138652996e-07
-2.2410880858e-07
6.30522384273e-07
-3.66960083574e-07
-5.68585038404e-07
5.62982688487e-07
6.11681041353e-07
2.13218007034e-07
4.13947309176e-07
2.50131151824e-09
4.32096521912e-07
-1.65013059582e-09
4.40799676283e-07
-4.95002216198e-08
4.468507794e-07
-4.89101029014e-08
4.54753937242e-07
-6.0367073713e-08
4.63446293594e-07
-6.52776473874e-08
4.73148605333e-07
-7.27243406875e-08
4.84088025641e-07
-8.15371053415e-08
4.96555511041e-07
-9.37862294825e-08
5.10982856887e-07
-1.10459047976e-07
5.26542989378e-07
-1.32163197934e-07
5.41873759727e-07
-1.55868331555e-07
5.5753618293e-07
-1.76932292557e-07
5.80274162468e-07
-2.0056969778e-07
6.12517184699e-07
-2.57461586864e-07
6.20901067139e-07
-3.76309415264e-07
-5.08847769496e-07
5.60167818178e-07
3.81230278863e-07
3.09960865914e-07
4.58505560503e-07
-7.84216981863e-08
4.62892146294e-07
-8.05508339121e-09
4.68487918361e-07
-5.63209194178e-08
4.76290904431e-07
-5.76677900364e-08
4.84715587685e-07
-6.97126346668e-08
4.94312254011e-07
-7.58702916405e-08
5.0483801662e-07
-8.43729787143e-08
5.16475988283e-07
-9.43407375584e-08
5.29271217316e-07
-1.07737072475e-07
5.43090814281e-07
-1.2532449243e-07
5.56868382071e-07
-1.46903678251e-07
5.69726856901e-07
-1.69614494434e-07
5.83475296246e-07
-1.91531736571e-07
6.02893108939e-07
-2.20791121286e-07
6.23312570241e-07
-2.78630997403e-07
6.17542481537e-07
-3.71263044335e-07
-4.58946692004e-07
5.66895514315e-07
5.05949944463e-07
3.16982238006e-07
4.91832605813e-07
-6.76720620697e-08
5.02453660944e-07
-2.05002218642e-08
5.07511030871e-07
-6.24257950949e-08
5.14624107381e-07
-6.55935279747e-08
5.22086297447e-07
-7.79840051526e-08
5.30862645829e-07
-8.5585909059e-08
5.40654673645e-07
-9.52684491082e-08
5.51610886064e-07
-1.06513387483e-07
5.63570423252e-07
-1.20942801051e-07
5.7601302862e-07
-1.38971474275e-07
5.87890148793e-07
-1.59904795038e-07
5.98860979737e-07
-1.81636003608e-07
6.10837296549e-07
-2.04479719045e-07
6.25574359265e-07
-2.36431187933e-07
6.35341175495e-07
-2.89200420996e-07
6.21932357486e-07
-3.58597101496e-07
-4.17746646579e-07
5.79869837247e-07
5.33956651068e-07
3.33605462918e-07
5.34956091515e-07
-7.19792138393e-08
5.44065728656e-07
-3.15912797037e-08
5.49029612578e-07
-6.86068683879e-08
5.55753846352e-07
-7.32582419036e-08
5.62618956216e-07
-8.5741954436e-08
5.70663150418e-07
-9.4576698735e-08
5.79634699006e-07
-1.05229184887e-07
5.89606956102e-07
-1.17458491667e-07
6.00253681854e-07
-1.32483741573e-07
6.10897684961e-07
-1.50412204014e-07
6.20710953986e-07
-1.70449287103e-07
6.2975404525e-07
-1.91356607697e-07
6.3930272334e-07
-2.14686007799e-07
6.48676811259e-07
-2.46426455878e-07
6.50214545305e-07
-2.91329951376e-07
6.33223886892e-07
-3.42327335378e-07
-3.82717639428e-07
5.97635230684e-07
5.80975909138e-07
3.42825088871e-07
5.79607993609e-07
-7.3969001419e-08
5.89276926339e-07
-4.3226300456e-08
5.93678959334e-07
-7.4219853794e-08
5.99918271125e-07
-8.04428621074e-08
6.06108765993e-07
-9.28609935001e-08
6.13334467643e-07
-1.02819791245e-07
6.21335992777e-07
-1.14322990213e-07
6.3008748073e-07
-1.27319381242e-07
6.39130643511e-07
-1.42614359586e-07
6.47785423441e-07
-1.60079929112e-07
6.55495772796e-07
-1.79053131757e-07
6.62407843433e-07
-1.99089854641e-07
6.68919618823e-07
-2.21954189212e-07
6.7303022298e-07
-2.51236332456e-07
6.68669091256e-07
-2.87623039838e-07
6.50317538647e-07
-3.24547793284e-07
-3.52570748633e-07
6.19317603123e-07
6.2946651597e-07
3.47735950591e-07
6.27694883001e-07
-7.47442975663e-08
6.37600466085e-07
-5.48229134111e-08
6.41331510532e-07
-7.9075600131e-08
6.46956028025e-07
-8.69777428487e-08
6.52384289847e-07
-9.91513142479e-08
6.58674738289e-07
-1.10011818863e-07
6.65538941638e-07
-1.22112582646e-07
6.72851699102e-07
-1.35561699591e-07
6.80100359837e-07
-1.50737049781e-07
6.86688925949e-07
-1.67463724767e-07
6.92257096788e-07
-1.8537883011e-07
6.96819663885e-07
-2.04363546435e-07
7.00005456851e-07
-2.25820756907e-07
6.9949133197e-07
-2.513580791e-07
6.91130803639e-07
-2.79851192029e-07
6.72279549452e-07
-3.06468841276e-07
-3.25579917622e-07
6.44723717713e-07
5.70578254684e-07
3.48129491964e-07
5.69360569929e-07
-7.58383810923e-08
5.77054161589e-07
-6.41145981156e-08
5.79818955899e-07
-8.29439787352e-08
5.83981169265e-07
-9.20778935024e-08
5.87947740697e-07
-1.03991006709e-07
5.92466558097e-07
-1.15409431655e-07
5.97284638536e-07
-1.27802541774e-07
6.02240094857e-07
-1.41316633547e-07
6.06892005963e-07
-1.56140447457e-07
6.1082505626e-07
-1.72162635862e-07
6.13865068711e-07
-1.88839818778e-07
6.15781383068e-07
-2.06648122628e-07
6.15942862357e-07
-2.26338916272e-07
6.12620201243e-07
-2.48331923365e-07
6.03523890235e-07
-2.71106377865e-07
5.877604013e-07
-2.90940331166e-07
-3.04882286291e-07
5.66459717484e-07
7.00074657623e-07
3.46114831084e-07
6.98916737884e-07
-7.61761736323e-08
7.0589390323e-07
-7.22064478939e-08
7.08799930442e-07
-8.68078496344e-08
7.12805579404e-07
-9.69128499855e-08
7.16626399157e-07
-1.08644230587e-07
7.20840722015e-07
-1.20457971992e-07
7.2518996577e-07
-1.32957656911e-07
7.2941135499e-07
-1.46339343328e-07
7.33014409424e-07
-1.60614652919e-07
7.35761998717e-07
-1.75274609103e-07
7.3724129991e-07
-1.90694281543e-07
7.37168308359e-07
-2.06742463224e-07
7.34665781406e-07
-2.23896070749e-07
7.28138555015e-07
-2.41897416049e-07
7.16199994245e-07
-2.59095071502e-07
6.98274757856e-07
-2.73375758539e-07
-2.82553466684e-07
6.75863720027e-07
8.58295562642e-07
3.39523628031e-07
8.57097276201e-07
-7.60641630392e-08
8.62430616164e-07
-7.85824495137e-08
8.65162418814e-07
-9.01838258216e-08
8.68602104475e-07
-1.01072818247e-07
8.71908719363e-07
-1.12530569199e-07
8.75355433165e-07
-1.24502945634e-07
8.78678765106e-07
-1.36848216746e-07
8.81493320831e-07
-1.49771960731e-07
8.83525780974e-07
-1.62872854981e-07
8.84190789718e-07
-1.76391552383e-07
8.83395502703e-07
-1.89923356175e-07
8.80459610822e-07
-2.038321849e-07
8.74525816779e-07
-2.17945239106e-07
8.64519587773e-07
-2.31755540181e-07
8.49429865463e-07
-2.44068840884e-07
8.29656314598e-07
-2.53435659717e-07
-2.59084804114e-07
8.05840275516e-07
1.05256692179e-06
3.25936069348e-07
1.05012142933e-06
-7.4727786027e-08
1.05346690088e-06
-8.26644503579e-08
1.05511957759e-06
-9.25042608923e-08
1.05738964501e-06
-1.03714381991e-07
1.05941196024e-06
-1.14891477495e-07
1.06132283271e-06
-1.26637003827e-07
1.06274429642e-06
-1.38454709972e-07
1.06344136853e-06
-1.50430984788e-07
1.0627505562e-06
-1.62455885965e-07
1.06067449877e-06
-1.74152825857e-07
1.05647465353e-06
-1.85827198097e-07
1.04984305764e-06
-1.97168039681e-07
1.0399034546e-06
-2.08086726667e-07
1.0261019283e-06
-2.1790326414e-07
1.00801263716e-06
-2.26009556015e-07
9.86032988206e-07
-2.31532050247e-07
-2.34258633322e-07
9.61166802183e-07
1.29019875866e-06
3.01908406097e-07
1.28572550781e-06
-7.1361545658e-08
1.28627196815e-06
-8.4046962776e-08
1.28609519642e-06
-9.28532723724e-08
1.28626274984e-06
-1.04081765718e-07
1.28607573116e-06
-1.1480738527e-07
1.28544893467e-06
-1.2590825148e-07
1.28401938308e-06
-1.36852538905e-07
1.28133153372e-06
-1.47665533971e-07
1.2772196267e-06
-1.58049049806e-07
1.27102970106e-06
-1.68028997472e-07
1.26268022576e-06
-1.77440954986e-07
1.25144377267e-06
-1.86185868459e-07
1.23724390651e-06
-1.93891880743e-07
1.21936361978e-06
-2.0032529482e-07
1.19836637979e-06
-2.04943370721e-07
1.17407927403e-06
-2.07617834341e-07
-2.08109696232e-07
1.14804316016e-06
1.57573194245e-06
2.7054374045e-07
1.57040978553e-06
-6.73241375581e-08
1.56758203715e-06
-8.20407147776e-08
1.56454198998e-06
-9.01984917055e-08
1.56149154582e-06
-1.01192588665e-07
1.55800936328e-06
-1.11216644823e-07
1.55363794764e-06
-1.21395959982e-07
1.54814725469e-06
-1.3110583692e-07
1.54111631482e-06
-1.40380941576e-07
1.53221380153e-06
-1.49031383032e-07
1.52117929417e-06
-1.5692834098e-07
1.50767499432e-06
-1.64030153581e-07
1.49159017403e-06
-1.7013563883e-07
1.47260292724e-06
-1.75087688347e-07
1.4509407957e-06
-1.7867946434e-07
1.42658622455e-06
-1.80788728995e-07
1.4003452372e-06
-1.81347203186e-07
-1.80458914245e-07
1.37242406468e-06
1.92105611539e-06
2.30190246642e-07
1.91375825383e-06
-6.17706053244e-08
1.90593021349e-06
-7.56466636515e-08
1.89898365708e-06
-8.36533180756e-08
1.89145416266e-06
-9.37755998488e-08
1.88338010187e-06
-1.02918087035e-07
1.87403946737e-06
-1.11816209454e-07
1.86327451298e-06
-1.20040570757e-07
1.85069906006e-06
-1.27560699795e-07
1.83609799486e-06
-1.3423366176e-07
1.81932736849e-06
-1.40005367505e-07
1.80021295867e-06
-1.44834048952e-07
1.77882919709e-06
-1.48633230762e-07
1.75509786782e-06
-1.5130345702e-07
1.72939942549e-06
-1.52811243912e-07
1.70181419539e-06
-1.53150824664e-07
1.6731342441e-06
-1.52393143247e-07
-1.50724809463e-07
1.64344565221e-06
2.34469874956e-06
1.77458171755e-07
2.32876012692e-06
-4.97077165263e-08
2.31422020405e-06
-6.33428420851e-08
2.30182827446e-06
-7.23000840755e-08
2.28848881924e-06
-8.0986435789e-08
2.27468833803e-06
-8.86735839487e-08
2.2592859645e-06
-9.59422256894e-08
2.24225473834e-06
-1.02255977031e-07
2.22331388971e-06
-1.07893292154e-07
2.20220070284e-06
-1.12549582378e-07
2.17918317609e-06
-1.1637069164e-07
2.15398220902e-06
-1.19235945097e-07
2.12708444709e-06
-1.21223468058e-07
2.09833927804e-06
-1.222408173e-07
2.06836162549e-06
-1.2238413798e-07
2.03712001269e-06
-1.21652734629e-07
2.005263983e-06
-1.20153769277e-07
-1.1779595566e-07
1.97244364627e-06
1.69267032036e-06
1.56993288303e-07
1.70057557899e-06
-6.43168950045e-08
1.68987516163e-06
-5.82532528365e-08
1.67898990461e-06
-6.4986920824e-08
1.66818884552e-06
-7.1042444935e-08
1.65583046489e-06
-7.73285171252e-08
1.64338476104e-06
-8.26363206722e-08
1.62907913608e-06
-8.76870688879e-08
1.61419204033e-06
-9.17564268171e-08
1.59754536133e-06
-9.53202002381e-08
1.58023466795e-06
-9.78876540448e-08
1.56141930407e-06
-9.9833100919e-08
1.54215294497e-06
-1.00868898922e-07
1.52178354133e-06
-1.01222316494e-07
1.5012120014e-06
-1.00760489738e-07
1.48002712487e-06
-9.97277323297e-08
1.45919115815e-06
-9.8272814509e-08
-9.74858060642e-08
1.43981324027e-06
1.56148382128e-06
5.43351285934e-08
1.48427580595e-06
5.98868455407e-09
1.46993718089e-06
-4.65039300504e-08
1.45928954077e-06
-5.84922886522e-08
1.44879915978e-06
-6.30721055395e-08
1.43755470161e-06
-6.75969002664e-08
1.42531031929e-06
-7.10755035648e-08
1.41231746974e-06
-7.43242656111e-08
1.39800633429e-06
-7.72821252608e-08
1.38303842947e-06
-7.94922492707e-08
1.36695631113e-06
-8.12791516809e-08
1.35036799335e-06
-8.23344231289e-08
1.33303012353e-06
-8.28451440128e-08
1.31537599738e-06
-8.26319733974e-08
1.2972867283e-06
-8.19009837666e-08
1.27898482254e-06
-8.05645204604e-08
1.26000487101e-06
-7.84506820206e-08
-7.29712508506e-08
1.2362577143e-06
1.09821705906e-06
2.22555318595e-07
1.29163049226e-06
-1.90799815165e-07
1.29194404457e-06
-5.35026471648e-08
1.28406401358e-06
-5.24198386508e-08
1.2744680555e-06
-5.5469096225e-08
1.2645200247e-06
-5.80874445815e-08
1.25331338322e-06
-6.05741326309e-08
1.24142130431e-06
-6.28490291705e-08
1.22916644927e-06
-6.47050416031e-08
1.21619667331e-06
-6.65417315198e-08
1.20308826658e-06
-6.76158356021e-08
1.18951877255e-06
-6.82915692961e-08
1.17589421252e-06
-6.83580601716e-08
1.16198540233e-06
-6.81105998737e-08
1.14814809023e-06
-6.72304835454e-08
1.1340865518e-06
-6.59045277176e-08
1.12068745511e-06
-6.43913702117e-08
-6.89819596712e-08
1.11730008695e-06
1.62003148137e-06
-2.85674886758e-07
1.12608483425e-06
3.02886455309e-07
1.1057461711e-06
-3.05702914573e-08
1.1021659333e-06
-4.98404437173e-08
1.09494780651e-06
-4.83446076834e-08
1.08557744014e-06
-4.96783928212e-08
1.07545718557e-06
-5.03269374379e-08
1.06451701242e-06
-5.15482982048e-08
1.05270513739e-06
-5.28385664953e-08
1.04058012904e-06
-5.36644811465e-08
1.02780252953e-06
-5.44066560154e-08
1.01498283566e-06
-5.47063528174e-08
1.00183600875e-06
-5.47246848964e-08
9.88856826818e-07
-5.41705038799e-08
9.75653335892e-07
-5.35583019764e-08
9.63631956075e-07
-5.30914225773e-08
9.52529327131e-07
-5.29768170045e-08
-4.35817207449e-08
9.27789967659e-07
6.61289884729e-08
6.16445323237e-07
1.00699850073e-06
-6.34829706136e-07
1.01742221536e-06
-4.1627009512e-08
1.0029815267e-06
-3.34773337412e-08
9.95831717984e-07
-4.0127077227e-08
9.87316156188e-07
-3.96820043016e-08
9.77994161363e-07
-4.03167090262e-08
9.6810575955e-07
-4.09639892762e-08
9.57983056526e-07
-4.16601506348e-08
9.47471115156e-07
-4.24875058164e-08
9.36827330193e-07
-4.28658970617e-08
9.25726320022e-07
-4.2810680771e-08
9.14361175982e-07
-4.23228942905e-08
9.02555111281e-07
-4.16772669246e-08
8.90198331111e-07
-4.04624142219e-08
8.75470902948e-07
-3.78553129802e-08
8.55744818757e-07
-3.27247606677e-08
-3.65328813264e-08
8.49063881785e-07
2.28484320868e-06
-8.18109381698e-07
7.88365560476e-07
8.68079943936e-07
8.11382668722e-07
-5.92318587725e-08
8.32362363555e-07
-5.17629402768e-08
8.25457079007e-07
-3.17244818185e-08
8.1858892196e-07
-3.20544648877e-08
8.1062448429e-07
-3.10898425889e-08
8.02735806079e-07
-3.19832746811e-08
7.94978422947e-07
-3.29648875595e-08
7.87782038258e-07
-3.4065940559e-08
7.81140235784e-07
-3.50903353096e-08
7.75055841885e-07
-3.56415853637e-08
7.69395886231e-07
-3.58365323867e-08
7.64267508946e-07
-3.57322867018e-08
7.59927591559e-07
-3.54839986794e-08
7.58593053367e-07
-3.6027333076e-08
7.65512714385e-07
-3.9116549968e-08
-3.18083086334e-08
7.61133157731e-07
-1.09739226601e-06
1.02132355462e-06
8.97110260035e-07
-1.11906889226e-06
8.11000732193e-07
3.07481046831e-08
7.78269971e-07
-1.5549768833e-08
7.72224133377e-07
-2.29091175668e-08
7.63486422155e-07
-2.14992542918e-08
7.54855091081e-07
-2.13494311787e-08
7.4480985183e-07
-2.0956520769e-08
7.33946223284e-07
-2.10089398225e-08
7.22088529641e-07
-2.11174744069e-08
7.09350898867e-07
-2.11118687386e-08
6.95660531402e-07
-2.08787052697e-08
6.81175404487e-07
-2.03586991768e-08
6.65965178578e-07
-1.98032098762e-08
6.50329868443e-07
-1.92845910913e-08
6.32880385806e-07
-1.80946973913e-08
6.08454645814e-07
-1.43370240619e-08
-2.42771121299e-08
6.0136899306e-07
2.39204082772e-06
-7.23348656054e-07
4.13682158592e-07
8.66730472539e-07
6.5605498317e-07
-2.0657293213e-07
6.53886244252e-07
-7.25131793277e-09
6.56227734975e-07
-2.48351422595e-08
6.50614625131e-07
-1.4594041189e-08
6.46501517225e-07
-1.59860830746e-08
6.42473131818e-07
-1.59074985272e-08
6.38657628758e-07
-1.62141475707e-08
6.35274856723e-07
-1.66198846157e-08
6.32315544843e-07
-1.69419942497e-08
6.29540592935e-07
-1.7096364827e-08
6.2701509115e-07
-1.70963127402e-08
6.24803162396e-07
-1.69005861794e-08
6.22792229889e-07
-1.67344716458e-08
6.22639896497e-07
-1.75309575755e-08
6.30858057098e-07
-2.21102198519e-08
-1.05763701746e-08
6.17425335494e-07
-7.36256368322e-07
5.78859490068e-07
9.0311299118e-07
-7.64590013057e-07
5.34843988453e-07
1.68027553819e-07
5.86061738166e-07
-5.19645219831e-08
5.57863788826e-07
5.55898055539e-09
5.55648259062e-07
-1.09426844868e-08
5.46363002311e-07
-5.33474391206e-09
5.3853747581e-07
-7.02471089742e-09
5.302680977e-07
-6.95352037494e-09
5.2221796602e-07
-7.5031995055e-09
5.1446457336e-07
-7.85961586275e-09
5.06752861e-07
-8.26136993926e-09
4.99127549946e-07
-8.60388120076e-09
4.91655380848e-07
-8.71630858643e-09
4.84153017549e-07
-8.66594166996e-09
4.74828083691e-07
-7.71496741326e-09
4.54505739079e-07
-1.50529426436e-09
-1.5254544794e-08
4.59649330837e-07
1.29560099173e-06
-2.21330099579e-07
4.13905630163e-07
1.26331735245e-07
6.08653569862e-07
-1.91354367075e-08
5.63093732393e-07
1.14033895685e-09
5.74364608575e-07
-2.86142561274e-09
5.6666085309e-07
-1.48049969543e-09
5.65039018108e-07
-2.15992318257e-09
5.61256832118e-07
-2.01040693265e-09
5.57770726589e-07
-2.33266305889e-09
5.54020760682e-07
-2.41866404998e-09
5.50254681695e-07
-2.50834528164e-09
5.46063664714e-07
-2.72254177843e-09
5.41398302161e-07
-2.90306733061e-09
5.3624737855e-07
-2.72255154205e-09
5.30339809393e-07
-2.0733187411e-09
5.25518091129e-07
-2.37937559732e-09
5.3246999091e-07
-7.94322447627e-09
1.12307089002e-08
5.06448363117e-07
1.99650560505e-07
3.26590638958e-07
3.08170469731e-07
3.09597492876e-07
3.06919701628e-07
3.05618176121e-07
3.03609390583e-07
3.01746263059e-07
2.9959378944e-07
2.97420038613e-07
2.95141992363e-07
2.92607451818e-07
2.89869668827e-07
2.87290874213e-07
2.85338076823e-07
2.83073266437e-07
2.75250583341e-07
2.86639218464e-07
-4.26834243994e-08
6.37985309563e-08
-9.75133250095e-08
8.29935174213e-08
-1.84905922024e-07
9.56302141801e-08
-2.3594631413e-07
6.97909685401e-08
-2.44862966456e-07
8.71567892128e-09
-2.17806187393e-07
-2.23557652684e-08
-2.03450804221e-07
-2.05775561214e-08
-1.89716617333e-07
-1.54248966849e-08
-1.86349502828e-07
-8.65846738963e-09
-1.8703715003e-07
-1.91726597359e-09
-1.94299427628e-07
3.60012525274e-09
-2.03792268869e-07
7.5602198404e-09
-2.15923579295e-07
9.85841434928e-09
-2.27794717061e-07
1.07822037996e-08
-2.39816838446e-07
1.05936465254e-08
-2.50010081462e-07
9.66621412419e-09
-2.59309300659e-07
8.22806039091e-09
-2.66152372305e-07
6.56145024378e-09
-2.71862562891e-07
4.76515671668e-09
-2.75199982089e-07
3.02040897212e-09
-2.77560011413e-07
1.35306833327e-09
-2.77908660478e-07
-1.34550006127e-10
-2.77576564696e-07
-1.47446228207e-09
-2.7571003507e-07
-2.59241647965e-09
-2.73385617809e-07
-3.54804215736e-09
-2.70050235003e-07
-4.31203651603e-09
-2.66445552225e-07
-4.93104427691e-09
-2.62200932622e-07
-5.39267777318e-09
-2.57755205075e-07
-5.74383430195e-09
-2.52965360701e-07
-5.9919575128e-09
-2.47988906994e-07
-6.16761086515e-09
-2.42833699188e-07
-6.28826589096e-09
-2.37464004642e-07
-6.37567370858e-09
-2.31992163954e-07
-6.44953989724e-09
-2.26260793637e-07
-6.51631069934e-09
-2.20417427581e-07
-6.6038061916e-09
-2.14303718381e-07
-6.70790689915e-09
-2.0799225674e-07
-6.84281091902e-09
-2.01403801888e-07
-7.01036029957e-09
-1.94518487257e-07
-7.21374550826e-09
-1.87366763461e-07
-7.4549391875e-09
-1.79810212269e-07
-7.72455604144e-09
-1.72022819809e-07
-8.03375978371e-09
-1.63733639087e-07
-8.35769155259e-09
-1.55276090072e-07
-8.72154263414e-09
-1.46242757765e-07
-9.08137269359e-09
-1.37091484298e-07
-9.48253912922e-09
-1.27362883932e-07
-9.86636169066e-09
-1.17552236352e-07
-1.02784548175e-08
-1.07192047844e-07
-1.06603280981e-08
-9.67853666766e-08
-1.10684280635e-08
-8.58898358362e-08
-1.14225923487e-08
-7.49206569495e-08
-1.17848652985e-08
-6.35961674189e-08
-1.20998953558e-08
-5.21950840805e-08
-1.24038718191e-08
-4.05166146555e-08
-1.26520747811e-08
-2.87338541694e-08
-1.28818251614e-08
-1.67572280643e-08
-1.30662874604e-08
-4.65577407658e-09
-1.32306724345e-08
7.59721868094e-09
-1.33637224836e-08
1.99961954623e-08
-1.34892685817e-08
3.25162480691e-08
-1.35915837373e-08
4.5117467256e-08
-1.358983385e-08
5.73144670596e-08
-1.31866179066e-08
6.92564229436e-08
-1.28697556324e-08
8.10363088061e-08
-1.26819872284e-08
9.27270468067e-08
-1.25242768057e-08
1.04280818504e-07
-1.23906975314e-08
1.15795135202e-07
-1.22637206885e-08
1.27160038837e-07
-1.21496534422e-08
1.3850728512e-07
-1.20223556983e-08
1.49674735786e-07
-1.19029141902e-08
1.60824373911e-07
-1.17605422425e-08
1.71758767641e-07
-1.16219640263e-08
1.82678353037e-07
-1.14557904124e-08
1.93356390862e-07
-1.13155761484e-08
2.04033017358e-07
-1.11630347217e-08
2.14547605797e-07
-1.10608691627e-08
2.25167856658e-07
-1.09935544597e-08
2.35762705362e-07
-1.10478234934e-08
2.46673401787e-07
-1.12048771754e-08
2.57835859358e-07
-1.15497369755e-08
2.69676554892e-07
-1.20407015073e-08
2.8208974081e-07
-1.27748492554e-08
2.9557919111e-07
-1.36457033583e-08
3.1002094054e-07
-1.47296436803e-08
3.25912348596e-07
-1.58735547995e-08
3.43133674131e-07
-1.71433833863e-08
3.62166060274e-07
-1.83913133613e-08
3.83020296775e-07
-1.96441751299e-08
4.05501334956e-07
-2.09766514625e-08
4.29807430569e-07
-2.23232615099e-08
4.5597718154e-07
-2.37683149679e-08
4.84451068144e-07
-2.51128249929e-08
5.15050067351e-07
-2.65473894814e-08
5.48421386336e-07
-2.7971954513e-08
5.84466794693e-07
-2.98003745094e-08
6.23806826219e-07
-3.14649957078e-08
6.64602953213e-07
-3.20394071911e-08
7.04315203468e-07
-2.92680331405e-08
7.37198709946e-07
-2.17187876098e-08
7.62473188438e-07
-1.3233212884e-08
7.88046352725e-07
-1.31842202596e-08
8.28232874775e-07
-2.73399486228e-08
8.92369341009e-07
-5.06217162829e-08
9.95334725555e-07
-8.76712192482e-08
1.12264852443e-06
-1.08922437667e-07
1.2625154308e-06
-1.17313486164e-07
1.27366478966e-06
1.40256348708e-08
9.71821863706e-07
3.26213828087e-07
7.1458458697e-07
2.72928900803e-07
5.92154643279e-07
1.32673760189e-07
5.22696690254e-07
7.62219987876e-08
4.78461270419e-07
4.95816022426e-08
4.47043794844e-07
3.51210044341e-08
4.23501332892e-07
2.6833645936e-08
4.04426335472e-07
2.14408252061e-08
3.88670459554e-07
1.79486000972e-08
3.74943545811e-07
1.52825449705e-08
3.63341020722e-07
1.33489154536e-08
3.53446107705e-07
1.16847702966e-08
3.45464387664e-07
1.04277729243e-08
3.38684645285e-07
9.21376598185e-09
3.3315200254e-07
8.23186329359e-09
3.28269016373e-07
7.10527632362e-09
3.24413591123e-07
6.12206778811e-09
3.21186358102e-07
4.99731195132e-09
3.19018891138e-07
4.05030229122e-09
3.17487397331e-07
3.00656667005e-09
3.16963670465e-07
2.18250591329e-09
3.16988556809e-07
1.30182720695e-09
3.17820782795e-07
7.38816609178e-10
3.18760215175e-07
3.82676732297e-10
3.20190429909e-07
2.16493465228e-10
3.2164663602e-07
4.94118249482e-11
3.2376804855e-07
-1.53745691751e-10
3.2604404321e-07
-4.1931003612e-10
3.28486422714e-07
-4.20848903845e-10
3.30350768726e-07
-6.09276691178e-10
3.31976921444e-07
-6.20925314009e-10
3.33385382427e-07
-8.04202993484e-10
3.35240077291e-07
-7.9362703418e-10
3.37331224151e-07
-8.45152366328e-10
3.39856525694e-07
-6.51589597911e-10
3.42295079229e-07
-5.96717866135e-10
3.44983438424e-07
-3.1486484709e-10
3.47402208077e-07
-2.45591737465e-10
3.50000602677e-07
6.17875846386e-11
3.52151458868e-07
1.02295271905e-10
3.54399863854e-07
4.03393454419e-10
3.56005991279e-07
3.37904376856e-10
3.57689754435e-07
5.58801733931e-10
3.58519156724e-07
3.2621309099e-10
3.59386429972e-07
4.930019299e-10
3.59026381057e-07
1.37574048812e-10
3.58538913248e-07
3.19702952867e-10
3.56174080541e-07
-1.01283564485e-10
3.53215098603e-07
2.38720040933e-10
3.47225600038e-07
-6.92587447665e-11
3.39746189327e-07
6.43554152859e-10
3.27596482543e-07
5.80712028991e-10
3.12786501393e-07
1.76157393525e-09
2.91249544198e-07
2.04976902584e-09
2.65510232277e-07
3.93463172043e-09
2.30435940076e-07
4.82676918314e-09
1.89203884195e-07
7.60598856149e-09
1.35615609047e-07
9.12440670859e-09
7.36881178271e-08
1.26039135222e-08
-3.84774408428e-09
1.45289207331e-08
-9.20002124354e-08
1.83349219375e-08
-1.98798811701e-07
2.01657385898e-08
-3.18161575811e-07
2.35673018654e-08
-4.5858922261e-07
2.45802179706e-08
-6.15835015664e-07
2.96328485199e-08
-8.01907049538e-07
3.51717718486e-08
-1.01752040744e-06
4.99885144053e-08
-1.2857161465e-06
7.57771179805e-08
-1.61081838878e-06
1.16390250113e-07
-2.02429295246e-06
1.76853152945e-07
2.15800493319e-07
-2.49010147444e-06
2.26238773434e-08
5.97030894331e-08
5.05736345966e-08
7.15576942328e-08
9.33812684838e-08
5.73210528365e-08
1.21511517427e-07
4.55721077523e-08
9.62564583403e-08
3.29995292005e-08
5.22988046838e-08
2.15093950917e-08
1.55518768153e-08
1.33760695098e-08
-1.01140087819e-08
8.44864900996e-09
-2.75308618754e-08
5.80541256199e-09
-3.59474645773e-08
4.53408080325e-09
-3.84532382181e-08
3.82075538134e-09
-3.56049827487e-08
3.2404376469e-09
-2.98335957142e-08
2.53928723831e-09
-2.16630732597e-08
1.70578447491e-09
-1.284244033e-08
7.36355964381e-10
-3.424833643e-09
-2.77919375904e-10
5.34602710577e-09
-1.32665305693e-09
1.38699068703e-08
-2.34293457419e-09
2.12626001241e-08
-3.34564195273e-09
2.8223144809e-08
-4.30090326841e-09
3.40696503532e-08
-5.25597710449e-09
3.96098611272e-08
-6.17656094069e-09
4.43980165648e-08
-7.10339118847e-09
4.91657503061e-08
-8.02105942103e-09
5.36137010517e-08
-8.95143007252e-09
5.83489256743e-08
-9.87430414936e-09
6.32003688805e-08
-1.08049873805e-08
6.85961409537e-08
-1.17258642527e-08
7.447030151e-08
-1.26386416015e-08
8.10502692626e-08
-1.35342122644e-08
8.83446784843e-08
-1.44086413316e-08
9.64035062607e-08
-1.52590902598e-08
1.05288039252e-07
-1.60741917395e-08
1.14925455211e-07
-1.68626751329e-08
1.25362165267e-07
-1.76164830989e-08
1.36480442822e-07
-1.83376696503e-08
1.48295054214e-07
-1.90256886274e-08
1.60684511758e-07
-1.96851294959e-08
1.73614684813e-07
-2.03130000031e-08
1.87011138177e-07
-2.09117102122e-08
2.00771046636e-07
-2.14857971279e-08
2.14890306875e-07
-2.20313226286e-08
2.29198082186e-07
-2.25572178667e-08
2.43767208299e-07
-2.30542950923e-08
2.58364693722e-07
-2.3536055287e-08
2.73130543022e-07
-2.39882878875e-08
2.87799242545e-07
-2.4425257748e-08
3.0255469551e-07
-2.48300616676e-08
3.17105906491e-07
-2.52233232487e-08
3.3164416373e-07
-2.55738777713e-08
3.45940747539e-07
-2.58960167312e-08
3.60140039525e-07
-2.61754168438e-08
3.74065554594e-07
-2.6415013656e-08
3.87821601866e-07
-2.65975907939e-08
4.01296490806e-07
-2.67301902539e-08
4.14547619152e-07
-2.67998540505e-08
4.27527457916e-07
-2.68085844147e-08
4.40234194587e-07
-2.67559811296e-08
4.52663494433e-07
-2.66428670916e-08
4.64764997482e-07
-2.64773955143e-08
4.76579134656e-07
-2.62570683768e-08
4.88058525227e-07
-2.60344094512e-08
4.99506484422e-07
-2.59541941169e-08
5.11339433792e-07
-2.5930260851e-08
5.22963960962e-07
-2.53432664337e-08
5.3411407364e-07
-2.46934536721e-08
5.44710373497e-07
-2.39197342537e-08
5.54546623783e-07
-2.30251630356e-08
5.63547123596e-07
-2.20046088485e-08
5.71541808071e-07
-2.08816540685e-08
5.78497351024e-07
-1.96604801003e-08
5.84283150187e-07
-1.83723371995e-08
5.88940019634e-07
-1.70267679995e-08
5.92375905091e-07
-1.5671327348e-08
5.94678940081e-07
-1.43139880412e-08
5.958066538e-07
-1.29924901027e-08
5.95881348496e-07
-1.17195249178e-08
5.94887790274e-07
-1.05254475296e-08
5.92921806474e-07
-9.41913689572e-09
5.8992377964e-07
-8.42568170149e-09
5.8594587734e-07
-7.54446949988e-09
5.80883832569e-07
-6.78468537772e-09