/*--------------------------------*- C++ -*----------------------------------*\
| =========                 |                                                 |
| \\      /  F ield         | OpenFOAM: The Open Source CFD Toolbox           |
|  \\    /   O peration     | Version:  v1806                                 |
|   \\  /    A nd           | Web:      www.OpenFOAM.com                      |
|    \\/     M anipulation  |                                                 |
\*---------------------------------------------------------------------------*/
FoamFile
{
    version     2.0;
    format      ascii;
    class       volVectorField;
    location    "15";
    object      Ua;
}
// * * * * * * * * * * * * * * * * * * * * * * * * * * * * * * * * * * * * * //

dimensions      [0 1 -1 0 0 0 0];


internalField   nonuniform List<vector> 
12225
(
(0.0939889925017 47.0212511887 0)
(0.870207645797 11.8793946895 0)
(0.655320404072 11.7078011834 0)
(0.761471943853 11.6574634918 0)
(0.739068041421 11.5514628094 0)
(0.781971293498 11.5258705311 0)
(0.813621908736 11.4806553584 0)
(0.870887274365 11.4143923494 0)
(0.942436726655 11.2714325955 0)
(1.02797361637 11.0150138378 0)
(1.11512579603 10.6256279237 0)
(1.18337509513 10.1136212112 0)
(1.21356298372 9.54352435757 0)
(1.21574037036 9.03358249895 0)
(1.284948009 8.67709472985 0)
(1.64661992531 8.31666546607 0)
(2.46118380256 7.15691763265 0)
(3.03440840622 3.74530974306 0)
(2.25898801908 -39.6868779709 0)
(0.953790895922 -7.31227467581 0)
(1.1157627663 -7.55859933675 0)
(1.09786039101 -7.37962482542 0)
(1.1555659342 -7.26510739917 0)
(1.20542713054 -7.12768245321 0)
(1.27166842648 -6.95253304446 0)
(1.34703752378 -6.74922246169 0)
(1.43038377845 -6.51652885373 0)
(1.51524601567 -6.26811382667 0)
(1.59496268292 -6.01189237164 0)
(1.65808207634 -5.75322748445 0)
(1.69882965831 -5.48617323476 0)
(1.73787773178 -5.19128449118 0)
(1.85142051202 -4.81415881925 0)
(2.16192595566 -4.28317911412 0)
(2.64349910089 -3.60525387924 0)
(2.70219877951 -2.9958923319 0)
(-1.24695991125 30.5020533607 0)
(1.3317022309 3.86055864382 0)
(0.735609506335 3.54014789304 0)
(0.922153590489 3.49398709463 0)
(0.872525132296 3.33635450197 0)
(0.914049804745 3.21796198123 0)
(0.939220452752 3.07495898533 0)
(0.981617112469 2.9271203571 0)
(1.0260136627 2.76154229289 0)
(1.07001898764 2.57489306991 0)
(1.10518670062 2.35994161873 0)
(1.12322628443 2.10858426775 0)
(1.12378073523 1.81863492513 0)
(1.1332560356 1.49768129081 0)
(1.22312477334 1.15511187941 0)
(1.47974080823 0.76039519394 0)
(1.83742326125 0.171035102926 0)
(1.89191116881 -0.757191220419 0)
(2.63596519298 -22.1054054018 0)
(0.861514785801 -2.50406784145 0)
(1.00501786542 -1.74900892123 0)
(0.984725392188 -1.86644639895 0)
(1.01207208391 -1.70050691865 0)
(1.04452856762 -1.60617041019 0)
(1.08341821615 -1.48007009902 0)
(1.13105918625 -1.35605304092 0)
(1.18092242073 -1.22534574218 0)
(1.22747500704 -1.09114203536 0)
(1.26168339628 -0.951449804452 0)
(1.27519559838 -0.805164665247 0)
(1.2683726577 -0.646424744003 0)
(1.26428188937 -0.468005993292 0)
(1.31619495341 -0.279994770873 0)
(1.46739245419 -0.158031692084 0)
(1.63424051158 -0.275999708461 0)
(1.57925877453 -0.730871657941 0)
(-0.364635407779 13.4093870964 0)
(0.968412819667 1.35176412588 0)
(0.862383658681 0.935102411434 0)
(0.915092789352 0.913435923546 0)
(0.914142646883 0.805298348137 0)
(0.944090372981 0.711390977531 0)
(0.975991413694 0.607215142506 0)
(1.01921988706 0.492744822507 0)
(1.06713061952 0.366900809812 0)
(1.11546939414 0.230298979901 0)
(1.15695174228 0.0892402224282 0)
(1.18542772876 -0.0456118472687 0)
(1.20332353304 -0.156396724637 0)
(1.23030990148 -0.223655065538 0)
(1.30020069755 -0.246482432945 0)
(1.41952360056 -0.280723939772 0)
(1.50264649544 -0.436266215069 0)
(1.41848514716 -0.727829419609 0)
(1.16823500212 -5.2465103143 0)
(1.02606049739 -0.477176000044 0)
(0.92322493421 -0.344310573809 0)
(0.971799188205 -0.327800238902 0)
(0.971335822254 -0.258287809218 0)
(0.996096558285 -0.200086444491 0)
(1.01982063182 -0.142943837154 0)
(1.05156531243 -0.099085543558 0)
(1.08518024147 -0.0730302548818 0)
(1.11787697522 -0.0693701275425 0)
(1.14469881143 -0.0880149230521 0)
(1.16302435652 -0.123799073957 0)
(1.17820480802 -0.164895239141 0)
(1.20732716384 -0.199263900782 0)
(1.26967722288 -0.231453421982 0)
(1.35292322029 -0.301696109508 0)
(1.38767444166 -0.459664323484 0)
(1.30738168282 -0.667827086478 0)
(0.688347483966 1.75664450479 0)
(0.960275563548 0.0380511140046 0)
(0.929921054232 0.0712513144299 0)
(0.962598254205 0.00607399644059 0)
(0.971652733455 -0.00553172193506 0)
(0.995098331447 -0.0253892315915 0)
(1.01950852057 -0.0366068663419 0)
(1.04905168527 -0.0504318153052 0)
(1.0792709603 -0.0678866176535 0)
(1.10728359809 -0.0922893440787 0)
(1.12957719114 -0.123600192523 0)
(1.14542102298 -0.158882249516 0)
(1.1608939495 -0.192025234423 0)
(1.18879125675 -0.220352090702 0)
(1.23737474073 -0.256227995212 0)
(1.28815615625 -0.330944754586 0)
(1.29354602194 -0.463377068217 0)
(1.223962349 -0.610519864752 0)
(0.842401158038 -0.087719557792 0)
(0.97906701205 -0.0366220771947 0)
(0.943439412955 -0.0146556050191 0)
(0.974309979129 -0.0385801410599 0)
(0.983031800473 -0.037723944469 0)
(1.00325483486 -0.043880145312 0)
(1.02423689083 -0.0492862725652 0)
(1.04900762085 -0.0605262982602 0)
(1.07394516694 -0.0781306965538 0)
(1.09659907361 -0.103223963244 0)
(1.11465809521 -0.134364451778 0)
(1.12853770882 -0.168088446175 0)
(1.14366627819 -0.200037101212 0)
(1.16803116065 -0.230841131008 0)
(1.2024185149 -0.272659518304 0)
(1.22888390827 -0.345042361735 0)
(1.21815893961 -0.450405394714 0)
(1.15932424887 -0.55548056579 0)
(0.876504185376 0.222487074163 0)
(0.972994250097 -0.0530754497376 0)
(0.961305932 -0.0176587699904 0)
(0.983172314192 -0.0463760985487 0)
(0.994184622147 -0.0481003442857 0)
(1.01118349203 -0.0569016606785 0)
(1.02929023257 -0.064607062233 0)
(1.04958389349 -0.0772380557148 0)
(1.06959813242 -0.0951850039758 0)
(1.08733378322 -0.119156908636 0)
(1.10154372185 -0.147750775968 0)
(1.11322274864 -0.17832334776 0)
(1.12653956558 -0.20859163991 0)
(1.14547164601 -0.240980170798 0)
(1.16692117865 -0.284946156018 0)
(1.17653259386 -0.350389212722 0)
(1.15779876338 -0.432686855862 0)
(1.10812644343 -0.509485930765 0)
(0.922380146828 0.196021020468 0)
(0.972555403375 -0.0516599811866 0)
(0.977677247593 -0.0253897336546 0)
(0.992181293252 -0.0490965320218 0)
(1.00426659748 -0.0538543995541 0)
(1.01827630027 -0.0643854770818 0)
(1.03355688111 -0.0747017347001 0)
(1.04976631723 -0.0890839351244 0)
(1.06537648246 -0.107777486164 0)
(1.0788295474 -0.131022733458 0)
(1.08962308493 -0.157597026818 0)
(1.09884746903 -0.185776342332 0)
(1.1092310208 -0.214810317105 0)
(1.1219494327 -0.247584648493 0)
(1.1326370603 -0.290353715166 0)
(1.13114398361 -0.346852255897 0)
(1.10892210435 -0.410851550596 0)
(1.06655171722 -0.468399117157 0)
(0.965132441353 0.198808681664 0)
(0.972214135475 -0.0559150175608 0)
(0.993035020242 -0.0362711471374 0)
(1.00013451119 -0.0558537018677 0)
(1.01277201934 -0.062721712517 0)
(1.02386426176 -0.0743623319525 0)
(1.03645040494 -0.0865042266829 0)
(1.04897581066 -0.101975185995 0)
(1.06071926832 -0.120902470495 0)
(1.070488889 -0.143201718684 0)
(1.078228549 -0.167922638821 0)
(1.08480646224 -0.194101845118 0)
(1.09167581829 -0.221835385415 0)
(1.09838566302 -0.253610122739 0)
(1.10077588041 -0.292924754129 0)
(1.09229560138 -0.340200241105 0)
(1.06893008971 -0.38993405197 0)
(1.03231252808 -0.433679779334 0)
(0.99512241888 0.204331304311 0)
(0.973120721796 -0.0543266395114 0)
(1.00292609519 -0.0439877238018 0)
(1.00457587975 -0.0592510037208 0)
(1.01692035014 -0.0680468793537 0)
(1.0256008607 -0.0803543749453 0)
(1.03584464148 -0.0938278457393 0)
(1.04540003181 -0.11001231802 0)
(1.05407243352 -0.129004623854 0)
(1.06093881213 -0.150544504937 0)
(1.06612430534 -0.173957754294 0)
(1.07020560727 -0.198738005686 0)
(1.07375589078 -0.225384319156 0)
(1.07566024207 -0.255619994565 0)
(1.07256998861 -0.291032647679 0)
(1.06035734255 -0.330704974437 0)
(1.03726270089 -0.370322156879 0)
(1.00497152485 -0.404767135119 0)
(1.01822119791 0.212280663543 0)
(0.975969396632 -0.0521624938178 0)
(1.01008888112 -0.0486609935391 0)
(1.00769358143 -0.060901601609 0)
(1.01923858216 -0.0708980453701 0)
(1.02583095133 -0.0835033344253 0)
(1.03393159965 -0.0976869054015 0)
(1.04092234923 -0.114107556134 0)
(1.04694791004 -0.132842722329 0)
(1.05128957571 -0.153570696127 0)
(1.05415894274 -0.175801510513 0)
(1.0557839372 -0.19939962779 0)
(1.05618041147 -0.224759696353 0)
(1.0541266133 -0.252877146033 0)
(1.04708111969 -0.284192695117 0)
(1.03263686279 -0.317400482743 0)
(1.01023299245 -0.349448377638 0)
(0.981504772431 -0.37707809118 0)
(1.03783579166 0.203789050273 0)
(0.979113663649 -0.0540182991195 0)
(1.01551814399 -0.0555043557362 0)
(1.00953410065 -0.065828488726 0)
(1.01971035294 -0.0765587596578 0)
(1.02415072603 -0.0891407059511 0)
(1.02996750929 -0.103484803676 0)
(1.03438589207 -0.119599960354 0)
(1.03776052656 -0.137567698341 0)
(1.03957087336 -0.157031765312 0)
(1.03993805395 -0.177756344777 0)
(1.03890175037 -0.199676931715 0)
(1.0361984473 -0.223029010618 0)
(1.03067305113 -0.248109910689 0)
(1.02069013617 -0.274756585202 0)
(1.0049543384 -0.301679438495 0)
(0.983684241517 -0.326947312225 0)
(0.958260325464 -0.348577236712 0)
(1.05524858974 0.208782602001 0)
(0.98246248874 -0.0514445298884 0)
(1.01993614571 -0.0577494452498 0)
(1.01081880047 -0.0670907137133 0)
(1.01905607099 -0.0784620415913 0)
(1.02120206597 -0.0910025519921 0)
(1.02450895482 -0.105270189306 0)
(1.02628618131 -0.120876434512 0)
(1.02696908871 -0.137897087842 0)
(1.02611731568 -0.15601641733 0)
(1.02387632894 -0.17507454951 0)
(1.02011404472 -0.195034031876 0)
(1.0144942612 -0.215894068611 0)
(1.00622555149 -0.23757270421 0)
(0.994278510986 -0.259567116758 0)
(0.978119405249 -0.280973414134 0)
(0.958236307781 -0.300492115074 0)
(0.935873973761 -0.317199192331 0)
(1.06638440237 0.192777749203 0)
(0.986707799724 -0.0498764645213 0)
(1.0226917886 -0.0601047169143 0)
(1.01155610636 -0.0691466001189 0)
(1.0173967808 -0.0808720608493 0)
(1.0172935811 -0.0932498913363 0)
(1.01802967536 -0.107063690688 0)
(1.01721660428 -0.121818591032 0)
(1.0152225447 -0.137537707505 0)
(1.011807102 -0.153960262266 0)
(1.00698136998 -0.170906235587 0)
(1.00067481916 -0.18837063239 0)
(0.992636081254 -0.206127768808 0)
(0.982384015248 -0.223972332349 0)
(0.969346647393 -0.241424521839 0)
(0.953390722957 -0.257853687776 0)
(0.935073023684 -0.27255708566 0)
(0.915441773076 -0.285043149404 0)
(1.06788849178 0.180571649257 0)
(0.989850515067 -0.0472292692145 0)
(1.02232333846 -0.0597921356558 0)
(1.01007690893 -0.0686698549208 0)
(1.01333521872 -0.0804026076508 0)
(1.01109295533 -0.0923638059473 0)
(1.0093417493 -0.105411821287 0)
(1.00610268422 -0.11901847414 0)
(1.00168197981 -0.133164852876 0)
(0.995920715734 -0.147587473497 0)
(0.988876781401 -0.162160632453 0)
(0.980519801546 -0.176747286938 0)
(0.970733324267 -0.191182324767 0)
(0.959265487708 -0.205178279111 0)
(0.945850988419 -0.218461786263 0)
(0.930512853778 -0.230604708173 0)
(0.913810082939 -0.241323823701 0)
(0.896567022125 -0.250354561997 0)
(1.06314262634 0.151969225824 0)
(0.99256673174 -0.0467074972135 0)
(1.01860123313 -0.0597549053151 0)
(1.00627370073 -0.0681693318758 0)
(1.00671756746 -0.0792823619373 0)
(1.0025943807 -0.090268954609 0)
(0.998547035459 -0.101972575095 0)
(0.993194431155 -0.113866436259 0)
(0.986701194345 -0.125927732642 0)
(0.979058647329 -0.137918893637 0)
(0.970324748351 -0.14970904948 0)
(0.960552650172 -0.161197668484 0)
(0.949715140938 -0.172218876428 0)
(0.937718851021 -0.182591708056 0)
(0.924439732846 -0.192140453972 0)
(0.909970714273 -0.200688384006 0)
(0.894808909424 -0.208109631311 0)
(0.879651229918 -0.214370678742 0)
(1.05639152545 0.142100578945 0)
(0.994480343473 -0.0341914006662 0)
(1.01316010613 -0.0452246787495 0)
(1.00105160083 -0.0539294835069 0)
(0.998856200975 -0.0638265623331 0)
(0.993207982985 -0.0736348280813 0)
(0.987286358257 -0.0837003959106 0)
(0.980300212624 -0.0936748458341 0)
(0.97226993703 -0.103556000159 0)
(0.963302921824 -0.113102456233 0)
(0.953471545711 -0.122276094829 0)
(0.942894005213 -0.130964983979 0)
(0.931593378888 -0.139100596736 0)
(0.91955403254 -0.146529835499 0)
(0.906700813581 -0.15320664948 0)
(0.893136146331 -0.159052204442 0)
(0.879266633465 -0.16407284815 0)
(0.865694058554 -0.168291234834 0)
(1.0474354496 0.0163944328546 0)
(0.991551984348 -0.0784145835914 0)
(1.01015529275 -0.0851669818052 0)
(0.997320346998 -0.0918838142008 0)
(0.994183361337 -0.0985719550959 0)
(0.987474919282 -0.105462770709 0)
(0.980600956114 -0.112246106799 0)
(0.972724427938 -0.119014959277 0)
(0.963957425992 -0.12552436266 0)
(0.954433364153 -0.131782632562 0)
(0.944239196542 -0.13759199104 0)
(0.933534888856 -0.142967122454 0)
(0.922338769533 -0.147766702204 0)
(0.910689891326 -0.15201062576 0)
(0.898504798983 -0.15560757362 0)
(0.885889771082 -0.158580421682 0)
(0.873227813067 -0.160920036936 0)
(0.861158066331 -0.162742051342 0)
(1.07462393445 0.441250367187 0)
(1.00023999552 0.115781589151 0)
(1.00940234659 0.108725820098 0)
(0.995980011891 0.0959829583282 0)
(0.992094594395 0.0860845502774 0)
(0.984708135044 0.0752935933813 0)
(0.977164016686 0.0648230880752 0)
(0.968638994161 0.0541930113829 0)
(0.959284454769 0.04387796192 0)
(0.949228904992 0.0338609944132 0)
(0.938545236764 0.0243385278339 0)
(0.927452661241 0.0152036005036 0)
(0.916028436977 0.00663354501049 0)
(0.904248569875 -0.0012750633851 0)
(0.892050858984 -0.00846793640745 0)
(0.879479660319 -0.0149766637688 0)
(0.866802719111 -0.0208291538092 0)
(0.854453695414 -0.0260705548637 0)
(0.979450410252 -1.26254897943 0)
(0.972041726439 -0.504061994329 0)
(1.02048584879 -0.501913789931 0)
(1.00441793076 -0.491425748834 0)
(1.00220745561 -0.48270614128 0)
(0.994109597812 -0.473331115179 0)
(0.986395139309 -0.463995439567 0)
(0.977553452848 -0.45460859052 0)
(0.968245811596 -0.445123498007 0)
(0.958443171687 -0.435389069351 0)
(0.948416895042 -0.425296200291 0)
(0.938157670226 -0.414775560388 0)
(0.927703060842 -0.404034724533 0)
(0.917124840221 -0.393181338732 0)
(0.906375115913 -0.382174529573 0)
(0.895496853898 -0.371048593645 0)
(0.884909124951 -0.359811418535 0)
(0.874857207848 -0.348711292811 0)
(1.3356723844 3.79751855702 0)
(1.04602524292 1.0269404719 0)
(1.00286480223 1.00691767922 0)
(0.993792957958 0.962488447713 0)
(0.988556636527 0.93078807598 0)
(0.980743166161 0.894709462544 0)
(0.972224402014 0.859454031107 0)
(0.96275475211 0.823437863887 0)
(0.952574566792 0.787344190759 0)
(0.941820259305 0.7511591914 0)
(0.93048962542 0.715129676573 0)
(0.919064888412 0.679486392663 0)
(0.90756299103 0.6447861754 0)
(0.895978778066 0.611173507005 0)
(0.884181978615 0.578796350032 0)
(0.872264613993 0.547895754731 0)
(0.86030056841 0.518859829603 0)
(0.850315602976 0.491848778843 0)
(0.309220186971 -8.83621124202 0)
(0.907616866711 -1.83678217257 0)
(1.05688972037 -1.76784498422 0)
(1.03302130808 -1.70645897982 0)
(1.03564766542 -1.65256234705 0)
(1.02465933326 -1.59572164928 0)
(1.01641812789 -1.54183876603 0)
(1.00633440739 -1.48851465439 0)
(0.996150075624 -1.43602453268 0)
(0.985466778067 -1.38397763079 0)
(0.974537658728 -1.33233304176 0)
(0.963167078897 -1.28154431896 0)
(0.951492569219 -1.23214200967 0)
(0.939487093984 -1.18396393935 0)
(0.927086588315 -1.13734302002 0)
(0.91427344572 -1.0926373714 0)
(0.901365471139 -1.05054442933 0)
(0.884933772034 -1.01147344798 0)
(2.79150540319 17.5053864766 0)
(1.06957357297 2.36075257543 0)
(1.00411888196 2.09469195574 0)
(0.987680468177 2.05015113691 0)
(0.982139385928 1.96686287141 0)
(0.97512711377 1.88977312428 0)
(0.965849668671 1.81597285337 0)
(0.957212112987 1.74441204999 0)
(0.948567918988 1.67647863753 0)
(0.940459590851 1.61201543009 0)
(0.932968320573 1.55142183803 0)
(0.925990480672 1.49515088587 0)
(0.919369156811 1.4426786545 0)
(0.913327682066 1.39299720064 0)
(0.907875956144 1.34612021152 0)
(0.903047707491 1.30232081154 0)
(0.898858253766 1.26229303833 0)
(0.900559546127 1.22694587871 0)
(-2.22633676672 -29.9416691241 0)
(1.08409494968 -3.09612978397 0)
(1.014759678 -2.3644882155 0)
(1.07460722469 -2.42473230343 0)
(1.0546867208 -2.28949831523 0)
(1.04455336488 -2.2118251735 0)
(1.03356440236 -2.13106243967 0)
(1.02037120796 -2.06000399147 0)
(1.00669322257 -1.9960688823 0)
(0.991539815037 -1.93949000568 0)
(0.975014693093 -1.89003802002 0)
(0.957173913886 -1.84717379884 0)
(0.937906380498 -1.80991838087 0)
(0.917408148885 -1.7772682745 0)
(0.89622094977 -1.7479469421 0)
(0.875350836354 -1.72014938153 0)
(0.85624134244 -1.6919435955 0)
(0.835004981364 -1.6623545539 0)
(5.7970498261 43.3322178374 0)
(0.545318917672 4.00465435523 0)
(1.2301931292 2.96582727694 0)
(0.982381779096 3.12637900989 0)
(1.04551170977 2.94074472017 0)
(1.02160588553 2.86333079047 0)
(1.01865557304 2.76630334908 0)
(1.01123463072 2.68448204703 0)
(1.00517428841 2.60857988095 0)
(0.999348893478 2.54034322722 0)
(0.993789054367 2.47892122313 0)
(0.988325252012 2.42344143013 0)
(0.983094482777 2.37359584483 0)
(0.978434639621 2.32938844003 0)
(0.974874208082 2.29012791372 0)
(0.972826689062 2.2545697894 0)
(0.971648403273 2.22063838916 0)
(0.97428517302 2.18534510245 0)
(-3.55975488985 -53.4217577236 0)
(1.79898160569 -5.08054654239 0)
(0.791569050661 -4.60777717197 0)
(1.1086830406 -4.52940496543 0)
(0.996989784001 -4.32837911121 0)
(1.01069649714 -4.19650735708 0)
(0.98895227484 -4.05495487511 0)
(0.976505211124 -3.93027097324 0)
(0.96161213535 -3.81150342279 0)
(0.947392246947 -3.70081213086 0)
(0.933187287876 -3.59593425573 0)
(0.919068142985 -3.49611539556 0)
(0.905168788106 -3.40088051402 0)
(0.891687929505 -3.31030378109 0)
(0.878579050063 -3.2253202585 0)
(0.865588582632 -3.14781791079 0)
(0.852140853684 -3.08024965115 0)
(0.832041820737 -3.02575254544 0)
(4.06059931658 60.5505836315 0)
(0.649348651493 7.13257108812 0)
(1.37010707097 7.62035702772 0)
(1.13316061818 7.07645878723 0)
(1.20110855149 6.86338917718 0)
(1.17145463748 6.58150793765 0)
(1.17190250155 6.33493114497 0)
(1.16242550973 6.09393311912 0)
(1.15564274904 5.86384801802 0)
(1.14776890617 5.64274530984 0)
(1.14019578615 5.4303589688 0)
(1.13237403977 5.22671872054 0)
(1.12407231293 5.0321550131 0)
(1.11495349961 4.84677198365 0)
(1.10459909965 4.67029849306 0)
(1.09252646508 4.50192530882 0)
(1.07721800179 4.34213026286 0)
(1.06443556509 4.19608048692 0)
(0.103545175221 -62.0951382332 0)
(0.858458330085 -9.93240096343 0)
(0.705440013252 -10.2018269055 0)
(0.741085824572 -9.56861803608 0)
(0.729907742729 -9.24752268604 0)
(0.727352459175 -8.85129548598 0)
(0.72237992133 -8.50057825451 0)
(0.716811981844 -8.15770844437 0)
(0.711074454261 -7.8331422034 0)
(0.705256487873 -7.52213802657 0)
(0.699626510255 -7.22379126001 0)
(0.694279773333 -6.93575617857 0)
(0.689298728863 -6.65624397832 0)
(0.684451619563 -6.38323645751 0)
(0.678955419398 -6.11624336642 0)
(0.673047733178 -5.85582302296 0)
(0.670624925363 -5.59845358846 0)
(0.673399173211 -5.32318761851 0)
(0.0355512552678 0.0866443914287 8.25720127471e-19)
(0.0162801881543 0.135894196733 0)
(0.0198125477359 0.167777510762 0)
(0.0285297100536 0.191500555622 0)
(0.0187214848986 0.210537276033 0)
(0.0120934382913 0.220085309723 -5.64827408497e-19)
(-0.0249514638643 0.22394871638 0)
(-0.0689544534922 0.232780540204 0)
(-0.105812273551 0.247971803915 1.79811139733e-19)
(-0.134829561226 0.267236165773 0)
(-0.156794402083 0.287549511481 -1.18151044868e-19)
(-0.173429141738 0.306423167737 0)
(-0.186253438369 0.32223194899 -8.65767813946e-20)
(-0.196527352146 0.334188869204 -7.61107891101e-20)
(-0.205123310849 0.342267248463 0)
(-0.21247524406 0.346833872555 6.1042778105e-20)
(-0.218880575709 0.348569897941 5.54514204351e-20)
(-0.224349838283 0.3481825077 5.07461316355e-20)
(-0.228932203401 0.346374587009 0)
(-0.232575038995 0.343728023872 0)
(-0.235309198176 0.340712466735 0)
(-0.23712750274 0.337650023005 0)
(-0.238090779075 0.334723812689 0)
(-0.238259416216 0.332028175368 0)
(-0.237691436346 0.329529205586 -3.11675056991e-20)
(-0.236484961064 0.327144694323 -2.94465048255e-20)
(-0.234704467862 0.32471763385 0)
(-0.232435334734 0.322076013785 2.64653213888e-20)
(-0.229704032979 0.318993707373 2.51691270317e-20)
(-0.226580490843 0.315251386139 2.39833473241e-20)
(-0.223079130128 0.310612605806 0)
(-0.219245937582 0.30485744263 0)
(-0.215083170094 0.297768732108 -2.09855159087e-20)
(-0.210619609745 0.289153801514 0)
(-0.205855564226 0.278846413117 0)
(-0.200799192872 0.2666930946 -1.86607290964e-20)
(-0.195461978249 0.252583910841 0)
(-0.189835917971 0.236424725822 0)
(-0.183926285065 0.218152627696 0)
(-0.177719318971 0.197719362977 0)
(-0.171224858964 0.175103747117 0)
(-0.16442406271 0.150294596899 3.08999744927e-20)
(-0.157329388197 0.123292058724 0)
(-0.149922882596 0.094105677828 0)
(-0.1422214872 0.062738125041 2.87528495592e-20)
(-0.13421640519 0.029206691278 2.81627574321e-20)
(-0.125921392539 -0.00649919455756 0)
(-0.117344900157 -0.0443669304588 0)
(-0.108501049318 -0.0844185487232 2.67262832602e-20)
(-0.0994031856977 -0.126658156018 0)
(-0.0900647627828 -0.171133545912 -2.60184516441e-20)
(-0.0805082986216 -0.217864018185 0)
(-0.070732537723 -0.266918440898 2.54899608031e-20)
(-0.0607641378462 -0.318346229058 0)
(-0.0506094414104 -0.37223353392 2.51267462858e-20)
(-0.0402826023829 -0.428668773621 2.50029750258e-20)
(-0.0297847196781 -0.487780232631 0)
(-0.019132097887 -0.549696772551 0)
(-0.00833052740329 -0.614578375872 0)
(0.00260899440598 -0.682583894236 2.48612228054e-20)
(0.0136809019165 -0.753893352423 0)
(0.0248569976386 -0.828654761017 0)
(0.0360911825807 -0.906947342094 0)
(0.0472155659471 -0.988585968481 0)
(0.0579448412383 -1.07272647239 0)
(0.068511566088 -1.15666630581 0)
(0.078985605495 -1.23925464773 0)
(0.0894095076787 -1.31949601439 -2.60055315331e-20)
(0.0998227927534 -1.39651753345 0)
(0.110227486949 -1.46957246503 -2.65180119318e-20)
(0.12063366663 -1.53801358013 -2.68036334572e-20)
(0.131029659165 -1.60133526355 0)
(0.141409361246 -1.65911239094 2.74305985663e-20)
(0.151757727111 -1.71106830647 0)
(0.162058124783 -1.7569724873 -2.81306987321e-20)
(0.172295826947 -1.79672405173 0)
(0.182453957019 -1.83022842151 2.89134172935e-20)
(0.192546669148 -1.85749618878 -2.93435705973e-20)
(0.202603044816 -1.87853360157 0)
(0.212673657307 -1.89343088014 0)
(0.222816487574 -1.9022492735 0)
(0.233116580885 -1.90513422053 0)
(0.243675884165 -1.90222464971 -3.21542229132e-20)
(0.254601885489 -1.89378122204 3.29275024405e-20)
(0.266004952824 -1.88010904741 -6.76172826753e-20)
(0.277992314532 -1.86170477046 -6.9643282894e-20)
(0.290674065616 -1.83921444041 -7.19870662137e-20)
(0.304192749507 -1.81354897136 0)
(0.318724715858 -1.78585564118 0)
(0.334654623414 -1.75771135574 0)
(0.352377559332 -1.73087446671 -8.61491113197e-20)
(0.372330246422 -1.707255149 0)
(0.394897576065 -1.68904011964 0)
(0.420299838725 -1.67839392836 -1.05171658403e-19)
(0.448505801815 -1.67707527303 0)
(0.479437809939 -1.68594767357 1.24298423254e-19)
(0.513159375242 -1.70509603872 0)
(0.549811309261 -1.73349595497 -1.50848241229e-19)
(0.588760941761 -1.7690023409 0)
(0.628154459576 -1.80898400042 0)
(0.665692392901 -1.8496838817 0)
(0.69897258327 -1.88711858115 -2.4185152646e-19)
(0.729221241319 -1.9130721065 0)
(0.777158823569 -1.93544556414 -3.27047554761e-19)
(0.849043458165 -1.97759003105 -3.92070464352e-19)
(0.933915395899 -1.99101200986 0)
(1.07282593066 -1.88299055549 0)
(1.26441006349 -1.58824248712 0)
(1.26022985597 -1.19436786007 -1.29340542151e-18)
(0.881162443786 -0.0849851432228 0)
(0.722747954029 0.837622226192 0)
(0.635460513746 1.10875603684 -8.76712121748e-19)
(0.557583983007 1.30777403098 -6.82284077136e-19)
(0.506404507511 1.46893903246 0)
(0.469200209292 1.60388368347 4.99237474851e-19)
(0.4406687999 1.71903910542 4.49095678976e-19)
(0.417965348461 1.81806780121 -4.12383877981e-19)
(0.399427454797 1.90336662743 0)
(0.384029833462 1.9764521497 0)
(0.371118397376 2.03849913536 0)
(0.360272901425 2.0903817504 3.32332177902e-19)
(0.351181676664 2.132895197 0)
(0.343565524744 2.16662787144 3.12596033589e-19)
(0.337187902612 2.19214521408 0)
(0.331871197389 2.20987647817 0)
(0.327473585694 2.22040900128 0)
(0.323875946411 2.22410183181 -2.92258179344e-19)
(0.320955633216 2.22165596537 -2.89863365942e-19)
(0.318623521476 2.21377755515 0)
(0.316834675922 2.20128804358 0)
(0.315565085492 2.1848231402 0)
(0.314752859967 2.16489694741 0)
(0.314295185018 2.14277072451 0)
(0.313951225641 2.12162938476 0)
(0.313729373676 2.10142068432 -5.78463793386e-19)
(0.313647998317 2.08208737284 0)
(0.313700611434 2.06330414407 0)
(0.313834260122 2.04488057137 0)
(0.313992206579 2.02667937281 5.94673321364e-19)
(0.314152825344 2.00873327091 6.00415955278e-19)
(0.314373229492 1.99105520999 -6.06751323797e-19)
(0.314691432157 1.97369020095 -6.13663016333e-19)
(0.315112002802 1.95669789843 0)
(0.315578693149 1.9402325831 0)
(0.316028150013 1.92451818227 0)
(0.316440602387 1.90989494486 -6.47305410145e-19)
(0.316815861112 1.89672504291 0)
(0.317172616848 1.88548181064 0)
(0.317524687854 1.87661693215 6.79086079209e-19)
(0.317927207642 1.87063615014 0)
(0.318463104027 1.86793829231 7.03432508222e-19)
(0.319266138811 1.86895899036 0)
(0.320449635163 1.87393875197 7.30261921088e-19)
(0.322132194434 1.88306990516 0)
(0.324394964475 1.89621920645 0)
(0.327369131677 1.91319960615 0)
(0.331129798919 1.93344504558 0)
(0.335725529156 1.95632125326 0)
(0.341082835559 1.98066539541 0)
(0.347178911799 2.00525965718 0)
(0.353968588858 2.02828263122 0)
(0.361480776148 2.04785047661 8.77569398886e-19)
(0.369601121241 2.06143175488 0)
(0.378205825008 2.0665814225 0)
(0.38702078133 2.06006251651 9.32799664445e-19)
(0.395703565416 2.03894986077 0)
(0.403793974905 1.9999344663 0)
(0.410749872353 1.94137886408 9.87614610974e-19)
(0.415585009773 1.86244389599 0)
(0.417161189298 1.7649308624 0)
(0.414560638571 1.65150729867 1.03996561484e-18)
(0.40731107894 1.52845240728 -1.0561835926e-18)
(0.399500479318 1.40201358184 1.07114163815e-18)
(0.389325978111 1.28405882371 0)
(0.379247746844 1.16596423777 0)
(0.374924586645 1.04326269046 2.20113366944e-18)
(0.381071081493 0.912638585237 0)
(0.388179423626 0.800253300003 -2.20048235333e-18)
(0.387168243119 0.700427555689 -2.18669362026e-18)
(0.277328001104 0.673828189056 0)
(0.10930864951 -0.0553846899917 -2.56119564994e-18)
(0.114459736195 0.0285818454853 0)
(0.263307860055 0.141251201749 9.01225955992e-19)
(0.29573544285 0.196166400413 -5.66465171255e-19)
(0.26303007539 0.201812468971 -4.08461441241e-19)
(0.193679747567 0.171412451601 1.6134123943e-19)
(0.118744429355 0.124251346987 2.68983917231e-19)
(0.0571846337628 0.0748580114675 0)
(0.0132709444012 0.0287980254447 -9.83378519321e-20)
(-0.0139807200376 -0.0120474640344 1.72307476828e-19)
(-0.027646506262 -0.0475785814363 2.28613311018e-19)
(-0.0314566328906 -0.0784435688226 -1.36987307711e-19)
(-0.0286848017455 -0.105428873624 1.85297378457e-19)
(-0.0219194826344 -0.12923753899 5.5793188478e-20)
(-0.013074588159 -0.150359694565 0)
(-0.00342963413822 -0.16914275765 -4.72788461392e-20)
(0.00612658594056 -0.185815747689 -4.38921964666e-20)
(0.0151035372229 -0.200534517367 -4.09342158044e-20)
(0.0231962835042 -0.213447202516 7.85253162401e-20)
(0.0303322181082 -0.224655496519 0)
(0.0365100548549 -0.234298517698 6.97539792096e-20)
(0.0418359491379 -0.242459090587 0)
(0.0464663788918 -0.249266523972 -6.26331839872e-20)
(0.0505914658301 -0.254784864783 0)
(0.0544144231554 -0.259115924522 8.40939456773e-20)
(0.0581295295113 -0.262300329131 -2.80839858668e-20)
(0.0619421482073 -0.264399209501 -5.17602669898e-20)
(0.0660168619588 -0.26542492398 -7.33093952532e-20)
(0.0705260660178 -0.265400208938 -2.27228779385e-20)
(0.0755855348463 -0.264320212536 -2.1775476932e-20)
(0.081310481681 -0.262175368434 0)
(0.0877571415496 -0.258947860671 -4.22982012076e-20)
(0.0949784691332 -0.254604883665 1.93366588302e-20)
(0.102985483084 -0.249122263136 0)
(0.111769170794 -0.242456272098 0)
(0.121296044743 -0.234579105415 1.74047524187e-20)
(0.131518378004 -0.225444568738 0)
(0.142379658444 -0.215021572882 0)
(0.15380684736 -0.203268077056 0)
(0.165736093484 -0.190151036808 0)
(0.178086362682 -0.175634202036 0)
(0.190792670831 -0.159680084845 3.3682023407e-20)
(0.203776304185 -0.142258265115 6.17502188979e-20)
(0.216977769227 -0.123323582609 0)
(0.230327253864 -0.102849193091 3.18871020579e-20)
(0.24377042579 -0.0807773490835 -2.70844964138e-20)
(0.257249500448 -0.0570786581527 0)
(0.270718354209 -0.0316809575825 0)
(0.284131381288 -0.0045430667511 -8.20695297105e-20)
(0.297442577759 0.0244245233303 -5.55716174738e-20)
(0.310625939 0.0552805969046 2.53561993067e-20)
(0.323653542494 0.0881317038967 5.46520588964e-20)
(0.336510839268 0.123058753764 2.93422644145e-20)
(0.349177015424 0.160180973057 0)
(0.361641580862 0.199603873573 -7.86150883438e-20)
(0.373885890906 0.24145965602 -2.46897282824e-20)
(0.385903709458 0.285868056138 0)
(0.397680555821 0.332969938819 5.37286963905e-20)
(0.409205853444 0.382903813209 -5.38128574083e-20)
(0.420464503051 0.435824102182 -2.48106369071e-20)
(0.431449521356 0.491886218816 0)
(0.442186914077 0.551252665361 0)
(0.452751607773 0.614097815841 0)
(0.463474705632 0.680509726045 5.51315954846e-20)
(0.474369851433 0.748133641354 0)
(0.484938949764 0.814584133145 -5.58482558233e-20)
(0.494987935616 0.87907096334 0)
(0.504388802512 0.940834842515 -3.04355384229e-20)
(0.513045268357 0.999189426184 0)
(0.520870522477 1.05350236474 -3.10031187077e-20)
(0.52779350191 1.10327449922 -3.13330682426e-20)
(0.533756852995 1.14805990886 0)
(0.538723973113 1.18755459902 -2.78962769423e-20)
(0.542678856363 1.22147326364 0)
(0.545617040283 1.24965207913 2.86535857394e-20)
(0.547549933391 1.27190899148 0)
(0.548493698816 1.28815687731 -2.94857309553e-20)
(0.548477575073 1.29827700363 2.99355928847e-20)