/*--------------------------------*- C++ -*----------------------------------*\
| =========                 |                                                 |
| \\      /  F ield         | OpenFOAM: The Open Source CFD Toolbox           |
|  \\    /   O peration     | Version:  v1806                                 |
|   \\  /    A nd           | Web:      www.OpenFOAM.com                      |
|    \\/     M anipulation  |                                                 |
\*---------------------------------------------------------------------------*/
FoamFile
{
    version     2.0;
    format      ascii;
    class       volScalarField;
    location    "6";
    object      alpha;
}
// * * * * * * * * * * * * * * * * * * * * * * * * * * * * * * * * * * * * * //

dimensions      [0 0 -1 0 0 0 0];


internalField   nonuniform List<scalar> 
12225
(
0.387293586153
0.351940487478
0.360772299288
0.363597256938
0.374735983867
0.379529386492
0.385730934535
0.390100836313
0.392500560304
0.39182433867
0.386690410003
0.378421958997
0.371922295182
0.361266723437
0.340943197229
0.317184377561
0.288586391629
0.260856276031
0.275054644354
0.298652220188
0.333751038307
0.327915062404
0.337204823035
0.340021856177
0.344427252894
0.347680026803
0.350074186125
0.35095224516
0.349004366094
0.34439603078
0.339765835118
0.332686202943
0.319610893372
0.303982777193
0.287246376994
0.283862495447
0.350883429779
0.320609468078
0.33485515914
0.333841752889
0.343156949169
0.34671623406
0.351453099338
0.354814605617
0.357235124622
0.358250218218
0.357236781283
0.354139744137
0.349676165719
0.342769312095
0.33194871607
0.319749553682
0.30929694936
0.31354500269
0.341492343904
0.309517492837
0.333667880666
0.328316490094
0.336876045578
0.33888209912
0.34233688658
0.344618454199
0.346269734677
0.346896754475
0.346195182634
0.344056514303
0.340535470937
0.335103466578
0.327426070981
0.319614324573
0.315237078345
0.322736026085
0.348247946376
0.308951713233
0.332219154915
0.325656344164
0.333362244125
0.334338917109
0.336837856353
0.338156447313
0.338874239496
0.338695684446
0.337504327668
0.335265698203
0.33191824379
0.327314782075
0.321779175036
0.31721141574
0.316724565513
0.32485893814
0.349673969513
0.306496626952
0.330271889448
0.322386163837
0.329479074761
0.329652886831
0.331482072977
0.332160469682
0.332293845795
0.331655547078
0.330217505658
0.328004959021
0.325001613488
0.321303294114
0.317542417464
0.31539295186
0.317157678088
0.32495060375
0.350424190257
0.304969649715
0.328489311018
0.319599723206
0.326108490401
0.325610941587
0.326904719266
0.327100961624
0.326837578127
0.325935337631
0.324417337243
0.322350412733
0.319810611042
0.317033341186
0.314744154058
0.314317117753
0.317296626627
0.324526131298
0.350564241402
0.303946881337
0.326962395401
0.317302534815
0.32327804267
0.322229858347
0.323099111345
0.322939205059
0.322437253036
0.321431729658
0.319967323933
0.318144317031
0.316120304712
0.314201699
0.313098554681
0.313861154558
0.317466272402
0.324087973688
0.350465644181
0.30341413926
0.325760627435
0.31552964097
0.321016968569
0.31950504507
0.320029563128
0.319619588835
0.319001380067
0.318005775726
0.316685304962
0.315176028206
0.313688681521
0.312552514372
0.312383885383
0.313969810784
0.317860058564
0.323951915823
0.350407437185
0.303321837853
0.325010480725
0.314370407363
0.319443180975
0.317554924945
0.31782648996
0.317264387261
0.316605553782
0.31567243158
0.314546526467
0.313397436531
0.312456991668
0.312025500517
0.312598524751
0.314736639445
0.318715100872
0.324283006431
0.351117403496
0.303449918286
0.324994756844
0.313989620412
0.318828454697
0.316725830562
0.316904396757
0.316295839145
0.315659423459
0.314843522093
0.313959096367
0.313167636704
0.312684587836
0.312758993893
0.313777955877
0.316124600617
0.319899326879
0.324841866761
0.355245692195
0.303735488007
0.326581639806
0.315024246066
0.319921906091
0.317726774747
0.31787923909
0.317258021244
0.316693849497
0.316004857601
0.315239695977
0.314571737361
0.314218056006
0.314415791083
0.315462778513
0.317629821433
0.320960018353
0.325200922311
0.358461668173
0.304521541786
0.328067688512
0.316134256837
0.320851605412
0.318494218406
0.318541797747
0.31783479033
0.317164511219
0.316369910164
0.315552356232
0.314883776701
0.314610132681
0.314897841159
0.315999782521
0.318078686738
0.321103095624
0.324854099695
0.362290185823
0.305430938574
0.329687989276
0.317264211054
0.321753369843
0.319053317806
0.318791164231
0.317857151874
0.317059010292
0.316231629137
0.315478587414
0.314983274559
0.314957015978
0.315511923257
0.316775154431
0.318849646571
0.321608872151
0.324943432319
0.367251947401
0.306426635
0.331717782789
0.318629788644
0.322874699796
0.319765709815
0.319147138393
0.317942311355
0.316993553881
0.316169528727
0.315537886119
0.315289603707
0.315578676557
0.316406027119
0.317830423925
0.319871494005
0.322394627812
0.325295115169
0.372408993756
0.307459764822
0.334015366974
0.320276927773
0.324377548005
0.320914615556
0.320023843879
0.318612962333
0.317583421435
0.31677314662
0.316289318465
0.316241405009
0.316770983257
0.317763809157
0.319251230378
0.321186663088
0.32345662539
0.325994688957
0.37704128174
0.308357528935
0.336315090565
0.322050117189
0.326154369519
0.322476551112
0.321459171316
0.319969424654
0.318937410289
0.318208028894
0.31783270231
0.317933667584
0.318581729105
0.319641067253
0.321080833923
0.322878032916
0.324885796574
0.327131768325
0.381304345268
0.309022058086
0.338457556694
0.323773924477
0.328021826968
0.324270863218
0.323269967899
0.321797603874
0.320826145178
0.320183180802
0.319902933008
0.320092213863
0.320791725133
0.321838251579
0.323192757803
0.324837493042
0.326628530378
0.328620568424
0.383514785127
0.309062457695
0.339528815105
0.324687604826
0.329198187127
0.325577760982
0.324779148365
0.323488011721
0.32270564976
0.32224200673
0.322117533494
0.322419683418
0.323178055707
0.324216881552
0.325505031806
0.327035975388
0.328674342571
0.330480805487
0.378343751423
0.308299307859
0.337981155458
0.323905537274
0.328894747571
0.325904995235
0.325719175397
0.325049470319
0.324828424157
0.324863920685
0.325148713717
0.325754615556
0.326715848604
0.327870860329
0.329193438557
0.330686050659
0.332227297215
0.333867033841
0.374396549254
0.307242684468
0.33621294168
0.322694313529
0.328051659402
0.325566472782
0.325866369348
0.325648807806
0.325859318754
0.326250761659
0.326823852323
0.327627895786
0.328730393081
0.329946804756
0.331288114288
0.332738451244
0.334216281499
0.335746261531
0.371268773328
0.306158016014
0.334539237134
0.321498444231
0.32715462306
0.325111050363
0.325807853826
0.325982751986
0.326532261586
0.327210473602
0.328019502245
0.32898577507
0.330189421084
0.331468070293
0.332821222643
0.334255710029
0.335684605627
0.337164076841
0.367909209917
0.30495830624
0.332866236968
0.320273004475
0.326223817086
0.324609382377
0.325688224934
0.326224627079
0.327087963425
0.328043490376
0.329049961208
0.33017787452
0.331490198563
0.332845038007
0.334219288322
0.33566605539
0.337073773138
0.338507844516
0.364462220142
0.303735062555
0.331148069146
0.319079365043
0.325335710151
0.324132546119
0.325573161112
0.326455826153
0.327609581735
0.328797772024
0.330005256292
0.331275082062
0.332689984752
0.33410546649
0.335541010795
0.337013335943
0.338448186709
0.339861056172
0.360691961389
0.302467616867
0.329411556471
0.317939215854
0.324442532829
0.323662371586
0.325442393427
0.326624473462
0.328042376185
0.329460539306
0.330853623134
0.332252174175
0.333770322434
0.335266255008
0.336750030136
0.338279375883
0.339773824033
0.341240092714
0.357450574134
0.301929674557
0.32710336428
0.316545856413
0.323191639987
0.322776908537
0.324806868057
0.326246195912
0.327884644409
0.329504848992
0.331062508907
0.332578572025
0.334162897071
0.335718829544
0.337255171391
0.338816135946
0.340348116428
0.341703311354
0.343850558652
0.298136456322
0.324980004305
0.314951115252
0.321845869733
0.321857093171
0.324193670617
0.325925435957
0.327845460641
0.329757030515
0.331626124842
0.333345170819
0.33508999967
0.336824896067
0.338508799126
0.340238711818
0.341990809942
0.3439877582
0.364319964208
0.307270341803
0.316625883877
0.311064067875
0.317213668669
0.317585040347
0.319862928197
0.321497002433
0.323240039156
0.324958269435
0.326512881965
0.327931574597
0.329404464104
0.330844275799
0.332240787718
0.33372841725
0.335258196177
0.336176225514
0.24043247654
0.277697299571
0.313919056974
0.304020156358
0.310951858595
0.311645427058
0.314499841013
0.317018508681
0.31991519489
0.323051174287
0.326317582634
0.329355741203
0.332422825718
0.335602262733
0.338796565234
0.342017466034
0.34529688641
0.34860488908
0.339008830046
0.322108200208
0.320275982266
0.319358468829
0.326320209163
0.326940344899
0.329139383804
0.330743211436
0.332375026731
0.333763663288
0.334811975545
0.33577593785
0.336800230901
0.337509455862
0.337923146687
0.338270131266
0.338439458235
0.339148058804
0.476030084458
0.476384973538
0.476581204506
0.476553339349
0.476348647586
0.476015887525
0.475621524244
0.475203614377
0.474788581324
0.474394221245
0.474031929958
0.473708112297
0.473425703971
0.473185162641
0.472985273039
0.472823533806
0.472696874961
0.472601405683
0.472533467413
0.472489547013
0.472465824338
0.472459619356
0.472467141846
0.472487309678
0.472517750044
0.472558655938
0.472608134152
0.472666409853
0.472732676863
0.472807835706
0.472891652195
0.472984847794
0.473087108972
0.473199498356
0.473321956039
0.473454614903
0.473596568377
0.473748764611
0.473910171932
0.47408093494
0.47425986618
0.474446445211
0.47463922256
0.474836846033
0.475037504646
0.475239044005
0.47543923835
0.475635473958
0.475824943221
0.476005230848
0.476173956311
0.476330265623
0.47647160765
0.476594609895
0.476694776654
0.476767764087
0.476809036237
0.476814110971
0.476778501308
0.476698168666
0.476571398638
0.476399963545
0.476184574966
0.475924585226
0.475619074454
0.475268701758
0.474874217108
0.474437181398
0.473960606056
0.473447514415
0.472902438659
0.472329766088
0.471734737727
0.471122073436
0.470496908091
0.469863650863
0.469226685821
0.468590714559
0.4679595925
0.467335919921
0.466721730556
0.466120005402
0.465532456169
0.464961311739
0.464405421782
0.463866766184
0.463344789418
0.462833040748
0.462334977745
0.461846586704
0.461366639624
0.460894817442
0.460429783872
0.459998814602
0.459617618526
0.459249153159
0.458860041454
0.458458381
0.458042738796
0.457619660342
0.45708994062
0.456476252821
0.456579686226
0.45675355118
0.456755686509
0.456515778789
0.45608009837
0.455921176956
0.455671502075
0.455439917283
0.455241499168
0.455069925879
0.454917896543
0.454779729631
0.454651453625
0.454530456847
0.454414140855
0.454299717413
0.454186677201
0.454076357261
0.453972346748
0.453876116298
0.453786589533
0.453702907265
0.453622431571
0.453544116421
0.453467426789
0.453392172853
0.453318197989
0.453245391609
0.453173537702
0.453102509155
0.453032200421
0.452962766167
0.452894302598
0.452827041423
0.452761102271
0.452696223826
0.452632938067
0.452571436144
0.452513498691
0.452457696078
0.452404744014
0.452355990792
0.452312967844
0.452277293338
0.452249875103
0.452231382941
0.452222458033
0.452223747515
0.452236403324
0.452262041354
0.452302508578
0.452359696424
0.452435840064
0.45253325345
0.452654536472
0.452802436915
0.452980426604
0.453192318031
0.453443721716
0.453740391717
0.454090505789
0.454505248482
0.455000039864
0.455591866594
0.456301838825
0.457146876906
0.458140430453
0.459306255629
0.460659131153
0.462197252929
0.463903646328
0.465735958912
0.46763237294
0.469639258307
0.471695736769
0.473710259527
0.475562794404
0.476916009628
0.476112398275
0.4763535198
0.476275273383
0.475999353142
0.47565120429
0.475287201604
0.474928930619
0.474587639844
0.474268026199
0.473972422005
0.47370152513
0.473456430294
0.473236757195
0.473042552894
0.472872762368
0.472726499139
0.472602050268
0.472497694732
0.47241094558
0.4723403004
0.472283133205
0.472238007391
0.472202443385
0.472176167326
0.472157607629
0.472147552996
0.472144970248
0.472150623965
0.472164522629
0.472187909188
0.472220767408
0.472264030616
0.472318096201
0.472384047702
0.472461419067
0.472550856302
0.472651917316
0.4727648114
0.472888935157
0.473024370348
0.473170128614
0.473325514351
0.473489176333
0.473659597582
0.473834818952
0.474012485139
0.474189708314
0.474363467873
0.474529799265
0.474684345424
0.474820430882
0.474933977395
0.475022906426
0.475085116809
0.475117730651
0.47511800204
0.475083366321
0.475009669395
0.474892814446
0.474732324556
0.474527785798
0.474278124758
0.473984916744
0.473652139417
0.473282693478
0.472878697007
0.472442004601
0.471974017382
0.471476162713
0.470949665248
0.470396351105
0.469818059102
0.469217603376
0.468597862083
0.467962116068
0.467314046911
0.466657664908
0.465997040713
0.465336385004
0.464678556063
0.464025629049
0.46338049116
0.462746431646
0.462124537875
0.461512659325
0.460915309802
0.460338056006
0.459770407169
0.459190892787
0.458614999729
0.458069526109
0.457519635696
0.456924953542
0.45631268544
0.455761155644
0.45527294972
0.454742148964
0.454347634642
0.453951865371
0.453519830443
0.453104279771
0.452493863218
0.452092619599
0.451693898938
0.451350402817
0.451013706065
0.450859943141
0.450800195265
0.450732719808
0.45063570221
0.450503672582
0.450357206489
0.450201746686
0.450040403992
0.449874364422
0.449704156561
0.449529054868
0.449347888048
0.449160604838
0.448970417817
0.448781547411
0.448596199728
0.448414881424
0.448236368707
0.448059209938
0.447882857605
0.447707019627
0.447531671045
0.447356789836
0.447182416577
0.447008521353
0.44683510442
0.446662169116
0.446489763589
0.446317759926
0.446145963836
0.445973823459
0.445800603283
0.44562573654
0.445449769725
0.445273173164
0.445094935892
0.444914911503
0.444733615461
0.444552144552
0.444371127441
0.444190183413
0.444008234084
0.44382387441
0.443635647298
0.443441935127
0.443240902491
0.443030674085
0.442809688251
0.442576992115
0.442332247573
0.442076083511
0.441809936866
0.441536523898
0.441258723023
0.440981320268
0.440710251433
0.440451671432
0.440210926716
0.439993309843
0.43980360905
0.439639694998
0.439511840285
0.439421108414
0.439366871523
0.439351023352
0.439380099931
0.43946300543
0.43959613465
0.439847449643
0.440115262118
0.440409689344
0.440714685174
0.440993846964
0.441299977899
0.475801712971
0.475869644635
0.475826666028
0.475690641343
0.475526371247
0.47536785684
0.475213816566
0.475061164771
0.474906898124
0.47475114687
0.474595022882
0.474440866951
0.474291067877
0.474148118597
0.474013841514
0.473889734131
0.47377641562
0.473674255388
0.473582746888
0.473501311736
0.47342877816
0.473364874742
0.473307692372
0.473257274141
0.473212814186
0.473174716633
0.473142408384
0.473116852064
0.473098137436
0.47308739274
0.473084944514
0.473092084272
0.473109017603
0.473136745059
0.4731755258
0.473225918793
0.473287536795
0.473361070473
0.473446091494
0.47354256675
0.473649868978
0.47376737756
0.473893985956
0.474028370424
0.474168813503
0.47431332542
0.47445940541
0.474604350874
0.474745013076
0.474878010461
0.474998235162
0.475100438192
0.475178815043
0.47522980359
0.475250757417
0.475239644327
0.475194770307
0.475116620233
0.475006383118
0.474862654848
0.474682162726
0.474461517673
0.474196180042
0.473882513904
0.473518771009
0.473104953579
0.472642158765
0.472132500457
0.471579370027
0.470986743825
0.470359580043
0.469703275855
0.469023628815
0.468326437522
0.467617379126
0.466901876695
0.466184855977
0.465470887266
0.46476396948
0.464067720204
0.463383068523
0.462711719521
0.462056748008
0.461419769001
0.460796065482
0.460183287185
0.459594579232
0.459032282514
0.458471995518
0.457901690397
0.457352073443
0.456849442349
0.456317143579
0.455772849823
0.45525307726
0.454769983906
0.454338391184
0.454046305226
0.453644456646
0.453069797448
0.45243304305
0.452026426581
0.451900576132
0.451769308141
0.451737650884
0.451651747672
0.451450703192
0.451125370456
0.450792225098
0.450499641955
0.450229558897
0.449979319976
0.449743047097
0.449517204618
0.449299122869
0.449086728609
0.448877763081
0.448670386
0.448464241179
0.44826182568
0.448065684893
0.447876536246
0.44769323207
0.447513794942
0.447337373994
0.447163572747
0.446992156659
0.446822873416
0.446655450627
0.446489587558
0.446324951789
0.446161238614
0.445998235673
0.445835750479
0.445673552935
0.445511289202
0.445348493512
0.445184960183
0.445020789941
0.444857305066
0.444694666794
0.44453199189
0.444368110378
0.444203389239
0.444039352262
0.443877236899
0.443717764108
0.443561131163
0.443407554958
0.443257255439
0.443110644706
0.442968054449
0.442830088272
0.442697227526
0.442569753289
0.442447680961
0.442330846924
0.442218612902
0.442110075596
0.442003710476
0.441897747777
0.441790201645
0.441678779151
0.441560667049
0.441433152973
0.441293096047
0.441135893336
0.440959506944
0.440765912865
0.44055684801
0.440336583935
0.440114796916
0.439903043434
0.439723957542
0.439601007598
0.43954767515
0.439573057575
0.439674033548
0.439812084685
0.439866372181
0.475439187004
0.475473389236
0.475639553681
0.475710685305
0.47571280621
0.475690932556
0.475644810869
0.475575387215
0.475483465995
0.475371378786
0.475242597897
0.475101814778
0.474953105923
0.474800634319
0.474647601024
0.474496849105
0.474350257627
0.474209291745
0.474074393271
0.473946479512
0.473824957391
0.473709912203
0.473600837586
0.473498046942
0.473400766864
0.473310041087
0.473225791556
0.473148989991
0.473080081684
0.473020425301
0.472970620713
0.472931822993
0.472904697095
0.472890472361
0.472889010701
0.472901242348
0.472927076897
0.472966731305
0.473019707081
0.473085884266
0.473164251502
0.473253818671
0.473352962097
0.473459766274
0.473571859004
0.473686501125
0.473800410264
0.473910262029
0.474012127457
0.474101803467
0.474175212759
0.474229452474
0.47425963224
0.474261668328
0.47423181085
0.47416701352
0.474064537502
0.473923400802
0.473745566281
0.473534643324
0.473292947384
0.473020859814
0.472715684787
0.472374109925
0.471992725071
0.471568498688
0.471099602256
0.470585501962
0.470027092933
0.469426830763
0.468788530205
0.468117417079
0.467419857798
0.466702369322
0.465971680901
0.465235187966
0.464499207318
0.463768202146
0.463048063138
0.462344170073
0.461657392262
0.460985709614
0.460335678624
0.4597148433
0.459113558815
0.458522612981
0.457954673546
0.457440455295
0.456931730126
0.456416133916
0.455922080452
0.455468519453
0.455054061137
0.454654026728
0.454295849454
0.453903056637
0.453427913788
0.45290552213
0.45232110841
0.451832437887
0.451532734489
0.451453589431
0.451403936739
0.451292533394
0.45117913771
0.450963214225
0.450613264158
0.450166416223
0.449725422609
0.449341080881
0.449005717239
0.448709637704
0.448441918782
0.448194944446
0.447963305759
0.447742940239
0.447530550124
0.447323622335
0.447121856076
0.446926894356
0.446740290834
0.446561487586
0.446387999115
0.44621812252
0.446051305134
0.445887508092
0.445726656415
0.445568565372
0.445412929043
0.44525935981
0.445107415624
0.444956692505
0.4448068622
0.444657624262
0.444508633594
0.444359433529
0.444209747853
0.444059778975
0.443910563098
0.443763605007
0.443619287968
0.443475946639
0.44333163037
0.443186248575
0.443040844074
0.442896390208
0.442753270663
0.442611381276
0.442470491363
0.442330316935
0.442190635112
0.442051182418
0.441911880515
0.441772682133
0.441633569624
0.441494583393
0.441355933934
0.441217904218
0.441081034885
0.440945920475
0.440812939669
0.440682585445
0.440555383739
0.440431260864
0.440309733167
0.440189443447
0.440067223491
0.439941326213
0.439810652913
0.439672502144
0.439525797934
0.439372688855
0.439216074782
0.439061902485
0.438925419914
0.438808112954
0.43871248718
0.438629375202
0.438511674008
0.438255735063
0.475040235678
0.475326337973
0.475781653087
0.475984827461
0.47604412357
0.476057019472
0.47603430712
0.4759813671
0.47589915622
0.475791071245
0.475660461725
0.475511736918
0.47534896134
0.475176475215
0.474997623278
0.474815760535
0.474633015396
0.474451727816
0.474272960671
0.474097752975
0.473926417128
0.473759960983
0.473597753058
0.473440704608
0.473288929317
0.473143162194
0.473003667291
0.472871819438
0.47274822764
0.472634278438
0.472530748955
0.472439189783
0.472360089426
0.472294552672
0.472243060697
0.472206369119
0.472184213756
0.472177269261
0.472185069082
0.472207459158
0.472243577618
0.472292582317
0.472352956317
0.472423010061
0.472500511884
0.472583080733
0.472667717107
0.472751298871
0.472830405491
0.47290107087
0.472957932677
0.472997495755
0.473015301306
0.473007050137
0.472969412699
0.472899498474
0.472794119844
0.472651552444
0.472472282498
0.472256107025
0.472003105278
0.471713842182
0.471387650558
0.471023229744
0.470618386931
0.470170936233
0.469679039785
0.469141767992
0.468560066349
0.467936078761
0.467273565876
0.466577727705
0.46585606822
0.465114756271
0.464360624096
0.463602092667
0.462847444942
0.462099527606
0.461361449785
0.460645066022
0.459955540745
0.459282014103
0.458629381269
0.458014448166
0.457423567744
0.456840786786
0.456284856154
0.45577046428
0.455304194933
0.454856602239
0.454406042228
0.454011460658
0.45362427314
0.453223989165
0.452788392252
0.452255922408
0.451726571439
0.451237966027
0.450850779715
0.450644757985
0.450580248405
0.450569728158
0.45049025031
0.450332518063
0.450124561488
0.449830109778
0.449454618694
0.449035590503
0.448629714868
0.448266044482
0.447944871832
0.447660521782
0.447404686657
0.447170541365
0.446952779992
0.446747263441
0.446550695599
0.446360965926
0.446178034222
0.446003197155
0.445837196405
0.44567842133
0.445524134752
0.445372859566
0.44522433954
0.445078721304
0.4449360776
0.444796296459
0.444659100086
0.444524064943
0.444390696205
0.44425852094
0.444127110735
0.443996086587
0.443864952221
0.443733201651
0.443600727168
0.443468213032
0.443337522164
0.443210282166
0.443086876992
0.442964902079
0.442842099019
0.442718097952
0.442593712408
0.442469849778
0.442346854221
0.442224760572
0.442103433473
0.44198277453
0.441862669124
0.441743030595
0.441623815055
0.44150501169
0.441386590418
0.441268564074
0.441150987726
0.441033929188
0.44091754289
0.440801917981
0.440686828337
0.440572051027
0.440457213305
0.440341430129
0.44022364229
0.440102332479
0.439974753042
0.439839577653
0.439696345537
0.43954348961
0.439381626152
0.439213740722
0.439042516622
0.438872770378
0.438714057729
0.438565777143
0.438422271423
0.438265970221
0.438043561513
0.437664179403
0.474649136382
0.475544131415
0.476234149356
0.476383127049
0.476367496203
0.476335795991
0.476287975075
0.47622177039
0.476132656216
0.476020074786
0.475884788563
0.475730378275
0.47555963978
0.475376586632
0.475183987975
0.47498519904
0.474782292816
0.474577645464
0.47437236843
0.474168403247
0.473965951048
0.473766010859
0.473569049845
0.473375956676
0.473186687621
0.473002743087
0.47282464114
0.472653719764
0.472490865201
0.472337676013
0.472195116202
0.472064565193
0.471946909557
0.471843493686
0.471754428018
0.471680720877
0.471622422277
0.471579827247
0.471552445301
0.471540157441
0.471541860239
0.471556614045
0.471582687579
0.471618287468
0.471661056672
0.471708614916
0.471757987104
0.471806412141
0.471850569666
0.47188665257
0.471909548643
0.471915904032
0.471900946898
0.471860356154
0.471790227407
0.471687087972
0.471547698379
0.471373298722
0.471165708583
0.470925954708
0.470653974609
0.470349633177
0.470010264434
0.46963260814
0.469213090505
0.468748596003
0.46823644303
0.467675485359
0.467067154779
0.466415406388
0.465723626298
0.4649983916
0.464248987089
0.463483932382
0.462707007481
0.461927562447
0.461158576718
0.460404675387
0.459661547438
0.458937284374
0.45825545787
0.45757962117
0.456925134311
0.456304498232
0.455726791934
0.455193229341
0.454683723542
0.454202787565
0.453751661142
0.453314855369
0.452902484174
0.452477284428
0.451970892231
0.451451921008
0.450953141674
0.450507278459
0.450164228107
0.449900418893
0.449723234264
0.449636825801
0.44958949799
0.449519906774
0.449383912098
0.449189486263
0.448946960425
0.448647330845
0.448303099548
0.447939793479
0.447587275181
0.447262132857
0.446967929194
0.446702965775
0.446462664767
0.446242318169
0.446037762898
0.445845447391
0.445662438475
0.445487209913
0.445319823329
0.445161358937
0.445011837871
0.444868987872
0.44473028587
0.444594423687
0.444461223302
0.444330852257
0.444203440725
0.444078912546
0.443957002655
0.443837269378
0.443719196044
0.44360225714
0.443485979104
0.443369876816
0.443253359824
0.443135899203
0.443017578884
0.442899703941
0.442784413311
0.442673672738
0.442567278941
0.442462594475
0.442357331352
0.442250886473
0.442143905233
0.44203708987
0.441930763686
0.441824956718
0.441719603996
0.44161466694
0.441510103842
0.441405883157
0.441301969629
0.441198327101
0.441094897283
0.440991647878
0.440888574456
0.440785668084
0.440682979149
0.440580464278
0.44047782208
0.44037474873
0.440270746859
0.440164816367
0.440055786491
0.439942118677
0.439821313432
0.439692011053
0.43955356324
0.439404367146
0.43924504578
0.439078082349
0.438905157634
0.438729408915
0.438557747641
0.438387738454
0.438211239642
0.438007536661
0.437725591914
0.43729329146
0.474359810131
0.476169857257
0.476873221741
0.476748737261
0.476585420969
0.476482433683
0.47639476227
0.476302528399
0.476192269836
0.476061509552
0.475909148335
0.475737922649
0.475549802742
0.4753484817
0.475136142366
0.474916065935
0.474689919917
0.474460381328
0.474228511097
0.473995842516
0.473763135462
0.473531909292
0.473302071232
0.473075025901
0.472851353985
0.472632119859
0.472418011202
0.472210667409
0.472010958088
0.471820488779
0.471640241756
0.471471883092
0.471316077822
0.47117399844
0.471046256365
0.470933613119
0.470835914891
0.470753741232
0.470686537633
0.470634020868
0.470595107306
0.470568841197
0.470553514744
0.470547480012
0.470548571541
0.470554905206
0.47056398722
0.470573682049
0.470581709837
0.470585277755
0.470578652118
0.470559248814
0.470521766527
0.470460006894
0.470368457193
0.470241952812
0.470077684483
0.469879067621
0.46964783197
0.469385875583
0.469094364847
0.468774772604
0.46842448075
0.468038756238
0.467611470747
0.467138481777
0.466615009162
0.466038038546
0.465409578506
0.464735480865
0.464020517764
0.463269015783
0.462494665837
0.461711742068
0.460923054985
0.460134064565
0.459358719602
0.458602144322
0.457853585116
0.45712907452
0.456436751535
0.455789179258
0.455187304996
0.454605806237
0.454055405693
0.453542510451
0.453074125944
0.452638612297
0.452186843647
0.451698783006
0.451203838797
0.450693529976
0.450186995885
0.449748975295
0.449388261356
0.449115469188
0.448924986538
0.448782049832
0.448674912877
0.448590576771
0.448498816749
0.448375086614
0.448208274336
0.448004517035
0.447766224576
0.447492134653
0.447191917635
0.446881420806
0.446577556861
0.446291086341
0.446026464511
0.445784195231
0.445562366033
0.445358137235
0.445168549825
0.444990655026
0.444822146873
0.444661891256
0.444510163924
0.444367702442
0.444233882623
0.444106462736
0.443983113469
0.443862693626
0.443744959239
0.443630033928
0.44351800388
0.443408807516
0.443302175134
0.44319767962
0.443094794738
0.442992977724
0.442891720872
0.442790440642
0.442688474187
0.442585293278
0.442481247428
0.442378043445
0.442278094281
0.442183311868
0.442092990236
0.442004554192
0.441915719155
0.441825879471
0.441735496159
0.441645061218
0.441554804534
0.441464696129
0.441374729889
0.441284892069
0.441195230833
0.441105734589
0.44101640374
0.440927168524
0.440837961078
0.440748691255
0.440659305688
0.44056971094
0.440479854073
0.440389567285
0.44029844525
0.440206073721
0.440111823211
0.44001460794
0.439913158205
0.439805966174
0.439690708023
0.439566108044
0.439431449556
0.439285261436
0.439128034738
0.438961895901
0.438787686272
0.438607142812
0.438424937826
0.438237168936
0.438034085672
0.437793818581
0.437470451147
0.437009138183
0.474236963328
0.477112212641
0.47748925149
0.476946904628
0.47665472404
0.476492860899
0.476363046547
0.476234219363
0.476090207836
0.475927967417
0.475745609413
0.475546376309
0.475331226415
0.47510378699
0.474865480638
0.474619471446
0.474367062847
0.4741107082
0.473851171872
0.473590601476
0.473329284746
0.47306863878
0.472809338062
0.472552483729
0.472298279663
0.472048398507
0.471803413326
0.471564727657
0.47133322579
0.471110494765
0.470897420269
0.470695321428
0.4705050221
0.470327717393
0.470163550057
0.470013415941
0.469877331085
0.469755474339
0.469647322604
0.469552646665
0.46947027963
0.469399323401
0.469338229643
0.469285630725
0.469239905534
0.469199819133
0.469164155136
0.469132079694
0.469102655712
0.469074767323
0.469044098265
0.469005661291
0.468952859596
0.468875592157
0.468763862253
0.468608738806
0.468409931742
0.46817362392
0.467903593571
0.467604526197
0.467282757151
0.466941685786
0.466579937441
0.466189332417
0.465760609428
0.465286375867
0.464760276865
0.464175807342
0.46353270212
0.462841974562
0.462113710569
0.461349260131
0.46056002117
0.459772559824
0.458971627102
0.458170081616
0.457390026922
0.456638121346
0.455924884813
0.455252572562
0.454600456359
0.453981240535
0.453401699683
0.452863935723
0.452374374332
0.451910540184
0.451451125433
0.4509714257
0.45046251036
0.44995036808
0.449466450657
0.449017080808
0.448631654852
0.44833242483
0.448104953604
0.447937066616
0.447808179723
0.447695134762
0.44758882981
0.447480218173
0.44735655937
0.4472100307
0.447038395629
0.446843537915
0.4466251428
0.446383524861
0.446125063244
0.445859697028
0.445597905806
0.445347346731
0.445112288074
0.444894279056
0.444692928725
0.444506769313
0.444333729707
0.444171502796
0.444018334226
0.443873495197
0.443737370515
0.443610436957
0.443491789199
0.44337932109
0.443271039884
0.443165873975
0.443063485467
0.442963885401
0.442867097159
0.44277303654
0.442681437156
0.442591893121
0.442503892873
0.442416917846
0.442330416856
0.442243754166
0.442156155246
0.442067175792
0.44197744572
0.441888886384
0.44180404761
0.441724420061
0.441649086555
0.441575609443
0.441501951372
0.441427551779
0.441352667761
0.441277644273
0.441202558056
0.441127350327
0.441051990585
0.440976505688
0.440900976409
0.440825432537
0.440749886635
0.440674265338
0.440598478707
0.440522398597