/*--------------------------------*- C++ -*----------------------------------*\
| =========                 |                                                 |
| \\      /  F ield         | OpenFOAM: The Open Source CFD Toolbox           |
|  \\    /   O peration     | Version:  v1806                                 |
|   \\  /    A nd           | Web:      www.OpenFOAM.com                      |
|    \\/     M anipulation  |                                                 |
\*---------------------------------------------------------------------------*/
FoamFile
{
    version     2.0;
    format      ascii;
    class       surfaceScalarField;
    location    "6";
    object      phia;
}
// * * * * * * * * * * * * * * * * * * * * * * * * * * * * * * * * * * * * * //

dimensions      [0 3 -1 0 0 0 0];
oriented        oriented;


internalField   nonuniform List<scalar> 
24170
(
1.2950014011e-07
1.89654015926e-07
1.88294389488e-07
-5.68293767736e-08
1.22855313106e-07
6.81396862316e-08
1.254672819e-07
-2.87261550237e-09
1.38382820652e-07
-1.11825417291e-08
1.52141494851e-07
-1.41833966898e-08
1.7334632158e-07
-2.00927284229e-08
1.96248831233e-07
-2.32535855615e-08
2.21368009172e-07
-2.46724546561e-08
2.45855994512e-07
-2.50462465146e-08
2.69683500143e-07
-2.39116851441e-08
2.94856105515e-07
-2.59310095685e-08
3.26449271331e-07
-3.20746443398e-08
3.62649059725e-07
-3.69387697056e-08
4.06302224144e-07
-4.41646004826e-08
4.64989193261e-07
-5.92998244661e-08
5.75177343896e-07
-1.10881577843e-07
-5.50218680554e-07
1.12481265877e-06
7.51456749859e-07
-2.13207374212e-07
2.7234845454e-07
4.28040198436e-07
2.89697221801e-07
5.5156490051e-08
2.83598696073e-07
3.73188742705e-09
2.74217841804e-07
-1.01386558042e-09
2.70473862848e-07
-1.17110072412e-08
2.70617938423e-07
-2.09021417972e-08
2.75550277319e-07
-2.98671254858e-08
2.89090388738e-07
-3.95251165697e-08
3.11195770949e-07
-4.89157546125e-08
3.42098227021e-07
-5.63307090945e-08
3.81123744217e-07
-6.67279975822e-08
4.25654326894e-07
-7.83055579091e-08
4.76847609759e-07
-8.99519884263e-08
5.35126451794e-07
-1.04200085005e-07
6.00010487009e-07
-1.25947807541e-07
7.08507199607e-07
-2.21156259649e-07
-6.79721283568e-07
8.36371789468e-07
-1.34278865322e-07
2.86828842346e-07
2.65466414884e-07
2.86003985882e-08
2.53011243891e-07
6.88834594083e-08
2.32284505243e-07
2.44055318345e-08
2.29508193753e-07
3.04933152932e-09
2.28785328838e-07
-1.08427344621e-08
2.34129248929e-07
-2.51915111342e-08
2.43820757889e-07
-3.93293460314e-08
2.58842554621e-07
-5.3946169322e-08
2.77558865936e-07
-6.76019099813e-08
3.00652851685e-07
-7.92179033286e-08
3.27584998808e-07
-9.37842582734e-08
3.57640154472e-07
-1.08396553313e-07
3.91539329557e-07
-1.23976031578e-07
4.3192285475e-07
-1.44653562124e-07
4.90200359966e-07
-1.84377713403e-07
5.88637263422e-07
-3.19856074018e-07
-6.90038717205e-07
5.98994791275e-07
4.35368104169e-07
2.48603340469e-07
3.18400931399e-07
1.49471531895e-07
3.27091257715e-07
6.33156031121e-08
3.17013791164e-07
3.53000165951e-08
3.13746564866e-07
6.88389595262e-09
3.13316162786e-07
-1.11427162247e-08
3.17051881787e-07
-2.9569096539e-08
3.23842398742e-07
-4.73673556938e-08
3.34004818253e-07
-6.53101057289e-08
3.46795949096e-07
-8.18307149336e-08
3.62999595223e-07
-9.68107319369e-08
3.8187294679e-07
-1.14145923542e-07
4.03839939642e-07
-1.31818517632e-07
4.29484460855e-07
-1.51058606261e-07
4.61848740788e-07
-1.78379592558e-07
5.1050305654e-07
-2.34336245283e-07
5.68802819011e-07
-3.7944524013e-07
-6.44785897703e-07
5.22181358307e-07
3.40218057431e-07
3.28147713485e-07
3.69167372171e-07
1.20481008882e-07
3.6288135616e-07
7.02945912813e-08
3.57636307177e-07
4.07549218728e-08
3.55102057117e-07
1.04179834381e-08
3.55282163228e-07
-1.08921995096e-08
3.58896734156e-07
-3.228255538e-08
3.65181535565e-07
-5.32239849189e-08
3.7430230154e-07
-7.38874624079e-08
3.85987362356e-07
-9.33035069079e-08
4.00821218263e-07
-1.11419078259e-07
4.18005258298e-07
-1.31274285645e-07
4.37918584194e-07
-1.51677545014e-07
4.61536263163e-07
-1.74663629709e-07
4.91742378427e-07
-2.08588133425e-07
5.31678816332e-07
-2.74391892666e-07
5.58858338581e-07
-4.06871154752e-07
-5.86867049232e-07
5.0111540512e-07
4.21741599338e-07
3.59383300573e-07
4.19930384008e-07
1.24437957129e-07
4.15913569995e-07
7.6182542125e-08
4.12265035341e-07
4.52863701613e-08
4.10034594291e-07
1.31020129332e-08
4.10078475753e-07
-1.11229191717e-08
4.1273439212e-07
-3.53406550687e-08
4.17572685361e-07
-5.87457541225e-08
4.24599536579e-07
-8.17494850605e-08
4.33863553275e-07
-1.03482973709e-07
4.45713848412e-07
-1.24253905376e-07
4.59678788094e-07
-1.46224378523e-07
4.76179734834e-07
-1.69141290363e-07
4.9643747782e-07
-1.95800044563e-07
5.22032495498e-07
-2.34995745694e-07
5.49868800388e-07
-3.02965438456e-07
5.55393110072e-07
-4.13124413902e-07
-5.3466979052e-07
5.01989703398e-07
4.68612737611e-07
3.73202785548e-07
4.69488235153e-07
1.23501742421e-07
4.66560331666e-07
7.95553150946e-08
4.64838108215e-07
4.75169185968e-08
4.63580649879e-07
1.51482266686e-08
4.64074782753e-07
-1.09368854704e-08
4.66434042362e-07
-3.69607311597e-08
4.70426984729e-07
-6.21541774287e-08
4.76030926837e-07
-8.68806678793e-08
4.8338520613e-07
-1.10484971326e-07
4.92722568828e-07
-1.33351929426e-07
5.0383186376e-07
-1.57177957517e-07
5.17183950154e-07
-1.82386077889e-07
5.3367826286e-07
-2.1220643158e-07
5.53032480153e-07
-2.54295643759e-07
5.68579740394e-07
-3.18600850107e-07
5.6077917241e-07
-4.05774962145e-07
-4.88053634922e-07
5.15056163968e-07
5.18232117937e-07
3.73520511793e-07
5.18706226901e-07
1.23946140199e-07
5.18097533828e-07
8.12315416926e-08
5.17770695304e-07
4.85637482815e-08
5.17511410816e-07
1.59257214185e-08
5.18454132579e-07
-1.17433728099e-08
5.20658454984e-07
-3.91488494904e-08
5.23994722968e-07
-6.57265613832e-08
5.28473916452e-07
-9.16390690518e-08
5.34204174505e-07
-1.16640988119e-07
5.41392755345e-07
-1.40971643962e-07
5.49966328419e-07
-1.66219492889e-07
5.60301544519e-07
-1.93126077184e-07
5.72624243493e-07
-2.24891709712e-07
5.85070602738e-07
-2.67041751723e-07
5.90177030888e-07
-3.2407551728e-07
5.75350119828e-07
-3.90779650073e-07
-4.48998155407e-07
5.35721275606e-07
5.66605371514e-07
3.61536692103e-07
5.68127056327e-07
1.2255672041e-07
5.70280692409e-07
7.95672100278e-08
5.71129560782e-07
4.83469029391e-08
5.71905326958e-07
1.59063696665e-08
5.73327660882e-07
-1.24316350589e-08
5.7548097865e-07
-4.05896291633e-08
5.78328320668e-07
-6.79557396949e-08
5.81870783753e-07
-9.46695904934e-08
5.8622801237e-07
-1.2057584681e-07
5.91553008415e-07
-1.4601593455e-07
5.97836503246e-07
-1.72292769609e-07
6.051758981e-07
-2.00307485412e-07
6.13120704724e-07
-2.32694947973e-07
6.18918845143e-07
-2.7274325645e-07
6.16190232122e-07
-3.21298513209e-07
5.97386107237e-07
-3.72338117542e-07
-4.1326868487e-07
5.62811745342e-07
6.15524212178e-07
3.41089498308e-07
6.18360786434e-07
1.20223140284e-07
6.23541390258e-07
7.50118395964e-08
6.25410918497e-07
4.70715441756e-08
6.27236128253e-07
1.44533258058e-08
6.29129745167e-07
-1.40846030613e-08
6.31301858336e-07
-4.27392532617e-08
6.3374922751e-07
-7.0451038843e-08
6.36481547511e-07
-9.75878229608e-08
6.39575167581e-07
-1.2398582435e-07
6.43188719095e-07
-1.49979194984e-07
6.4727961704e-07
-1.76636518527e-07
6.51587754593e-07
-2.0492805601e-07
6.55193110396e-07
-2.3650005753e-07
6.55157914951e-07
-2.72970411785e-07
6.46714751621e-07
-3.13162689453e-07
6.26376966491e-07
-3.51602054941e-07
-3.82059962535e-07
5.94739981716e-07
6.66734905831e-07
3.1199829705e-07
6.69524454155e-07
1.17784333934e-07
6.77033792087e-07
6.80951445651e-08
6.80037576818e-07
4.46933042424e-08
6.82944229436e-07
1.22160556059e-08
6.85387646637e-07
-1.59826461453e-08
6.87741316202e-07
-4.45760671311e-08
6.8989925417e-07
-7.22647322443e-08
6.91928457624e-07
-9.93991959909e-08
6.93871095568e-07
-1.25889435125e-07
6.95918038026e-07
-1.52012907451e-07
6.97856854602e-07
-1.78809093606e-07
6.99201603529e-07
-2.06394462908e-07
6.98705837128e-07
-2.36292651732e-07
6.93882037454e-07
-2.68366785973e-07
6.81644895317e-07
-3.01185404707e-07
6.60162089319e-07
-3.30758400862e-07
-3.52507872344e-07
6.3125060449e-07
6.00169433951e-07
2.85788469395e-07
6.04602592767e-07
1.13561272834e-07
6.10729454908e-07
6.24629087313e-08
6.14466786042e-07
4.14356359029e-08
6.1754555193e-07
9.65800912969e-09
6.20049826678e-07
-1.81023095223e-08
6.22152013445e-07
-4.62813302663e-08
6.23825085998e-07
-7.36826420041e-08
6.25122772235e-07
-1.0047320432e-07
6.26028980942e-07
-1.26741210183e-07
6.26618319733e-07
-1.52827831828e-07
6.26864849637e-07
-1.78410084017e-07
6.25829700057e-07
-2.05369869212e-07
6.22849209409e-07
-2.32806111709e-07
6.15952797997e-07
-2.61473146343e-07
6.03682723116e-07
-2.88715151671e-07
5.85664008439e-07
-3.12002795933e-07
-3.29222655113e-07
5.62505433982e-07
7.28126412421e-07
2.5760232283e-07
7.35570016846e-07
1.06436993897e-07
7.42191394075e-07
5.61379862585e-08
7.473040409e-07
3.67551463815e-08
7.51373850623e-07
5.846846707e-09
7.54654435948e-07
-2.10489417055e-08
7.57199078715e-07
-4.87095727162e-08
7.59006000097e-07
-7.53413715988e-08
7.60006006436e-07
-1.01587748965e-07
7.60150256254e-07
-1.27308801668e-07
7.59999097477e-07
-1.51816162858e-07
7.58448144475e-07
-1.76791384711e-07
7.55442775987e-07
-2.01346217036e-07
7.49307254145e-07
-2.26391585265e-07
7.39256082482e-07
-2.50496014178e-07
7.2387782741e-07
-2.72715432463e-07
7.03317478215e-07
-2.90729343486e-07
-3.03579644898e-07
6.7835049919e-07
8.82938048594e-07
2.2762217154e-07
8.91669504085e-07
9.76640463621e-08
8.99180345918e-07
4.92078986762e-08
9.05423100898e-07
3.07816635111e-08
9.10516734886e-07
1.41819999906e-09
9.14328985653e-07
-2.46438892558e-08
9.17149061468e-07
-5.09860854109e-08
9.18718841316e-07
-7.68621097783e-08
9.19074946538e-07
-1.01879428816e-07
9.18556613838e-07
-1.26068245848e-07
9.16637611321e-07
-1.49464434428e-07
9.13272129029e-07
-1.72285424545e-07
9.07205335882e-07
-1.94554913224e-07
8.97936319674e-07
-2.16166320754e-07
8.84246777214e-07
-2.36122709013e-07
8.659092485e-07
-2.53478909666e-07
8.42962235219e-07
-2.66937965391e-07
-2.76059285121e-07
8.16418015753e-07
1.06812015638e-06
1.99282585119e-07
1.08005811925e-06
8.63313310457e-08
1.08816369067e-06
4.12648765807e-08
1.09605878911e-06
2.38522564736e-08
1.10186466916e-06
-4.06203413967e-09
1.10649797049e-06
-2.81935917102e-08
1.10917880969e-06
-5.33873387262e-08
1.11048614331e-06
-7.72289092167e-08
1.10987374739e-06
-1.00757603415e-07
1.10786573697e-06
-1.22960155718e-07
1.10384603971e-06
-1.44519592769e-07
1.09772305734e-06
-1.64760795044e-07
1.08801972636e-06
-1.84535406204e-07
1.07509950724e-06
-2.02316872793e-07
1.05764656109e-06
-2.18470505543e-07
1.03635577594e-06
-2.31404937917e-07
1.01102614803e-06
-2.41327524903e-07
-2.47454394601e-07
9.8270198846e-07
1.28904930724e-06
1.78587389176e-07
1.30497648674e-06
7.06965938921e-08
1.31457704545e-06
3.27951859008e-08
1.32372207147e-06
1.52957872305e-08
1.33072970755e-06
-9.81149101542e-09
1.33539302079e-06
-3.23043406145e-08
1.33828069161e-06
-5.49551403607e-08
1.33844792751e-06
-7.6903652278e-08
1.33691944419e-06
-9.78380913077e-08
1.33260972314e-06
-1.17961532494e-07
1.32648824164e-06
-1.36743534896e-07
1.31632232914e-06
-1.54682267132e-07
1.30361911554e-06
-1.70837610315e-07
1.28624872088e-06
-1.85458389966e-07
1.26594316242e-06
-1.97538046489e-07
1.24115270158e-06
-2.07213709991e-07
1.21416277264e-06
-2.1377792638e-07
-2.17813571008e-07
1.18387430952e-06
1.55624806657e-06
1.68605023873e-07
1.57443854913e-06
5.3949315865e-08
1.58532243184e-06
2.30453991673e-08
1.59585306882e-06
5.91474931476e-09
1.60316713335e-06
-1.61720597308e-08
1.6079865371e-06
-3.61369840008e-08
1.60989029943e-06
-5.6078950921e-08
1.60902927264e-06
-7.51629745833e-08
1.60527179199e-06
-9.33302971105e-08
1.59876221988e-06
-1.10515535772e-07
1.58885503331e-06
-1.26431253516e-07
1.57568718375e-06
-1.41008968185e-07
1.55867293097e-06
-1.53880663929e-07
1.53831970587e-06
-1.64924048578e-07
1.51426544031e-06
-1.73773282051e-07
1.48747717551e-06
-1.80382519796e-07
1.45790702947e-06
-1.84623124327e-07
-1.86798993529e-07
1.42701983157e-06
1.87580261833e-06
1.78026970422e-07
1.89803679276e-06
3.31396494665e-08
1.90952170529e-06
1.26521382568e-08
1.92127004211e-06
-4.58476282301e-09
1.92853112069e-06
-2.25898416977e-08
1.93291661074e-06
-3.94905707181e-08
1.93334271489e-06
-5.60080758553e-08
1.93062230646e-06
-7.16363957378e-08
1.92393739521e-06
-8.63973534456e-08
1.91423155022e-06
-1.00076097761e-07
1.9003682007e-06
-1.12524273018e-07
1.8834734875e-06
-1.23543172541e-07
1.86244825695e-06
-1.33011131178e-07
1.83875058328e-06
-1.40772281881e-07
1.8114826806e-06
-1.46744426065e-07
1.78244424287e-06
-1.50878685811e-07
1.75079190445e-06
-1.53255161723e-07
-1.54060524525e-07
1.71874227544e-06
2.26423468204e-06
2.11530429568e-07
2.29236806354e-06
5.71503471749e-09
2.30442881565e-06
2.24653476423e-09
2.31611443856e-06
-1.53748219765e-08
2.3224423402e-06
-2.76991925329e-08
2.3250715976e-06
-4.12253606963e-08
2.32326397374e-06
-5.32587597666e-08
2.31756780471e-06
-6.50593982451e-08
2.30741289869e-06
-7.57155439025e-08
2.29380574196e-06
-8.57242359826e-08
2.27590909394e-06
-9.4389921131e-08
2.25503110692e-06
-1.02065165101e-07
2.23029663368e-06
-1.08256894359e-07
2.20325350087e-06
-1.13283582219e-07
2.17315695744e-06
-1.1683156082e-07
2.14187818078e-06
-1.19176852748e-07
2.10846106837e-06
-1.20248315737e-07
-1.20361744773e-07
2.07529254588e-06
1.66791953844e-06
2.22999713672e-07
1.68083834425e-06
-6.4745205457e-09
1.68712232821e-06
-6.00470692156e-09
1.69356453691e-06
-2.06617338128e-08
1.69512409263e-06
-3.00112506606e-08
1.69564780101e-06
-3.96830437793e-08
1.69132816059e-06
-4.94297951676e-08
1.68592079729e-06
-5.77734623934e-08
1.67596656251e-06
-6.62956424578e-08
1.66530178144e-06
-7.3352262518e-08
1.65054410785e-06
-8.01751926438e-08
1.63546646649e-06
-8.53898693526e-08
1.61681564183e-06
-9.01307512409e-08
1.59820570646e-06
-9.33035499876e-08
1.57683857601e-06
-9.58607603845e-08
1.55594949298e-06
-9.70520283584e-08
1.53311162996e-06
-9.77133991267e-08
-9.73220247486e-08
1.51133859351e-06
1.46097259044e-06
2.26664256882e-07
1.46930639529e-06
-1.61481948421e-08
1.47579862024e-06
-1.04376182191e-08
1.47827880949e-06
-2.45527649093e-08
1.47940123508e-06
-3.03770363469e-08
1.4768410873e-06
-3.84920502814e-08
1.47310936472e-06
-4.45239326425e-08
1.46577995653e-06
-5.11324567543e-08
1.45728505986e-06
-5.69516811504e-08
1.44603924883e-06
-6.24407788116e-08
1.43396589886e-06
-6.71428982331e-08
1.41950480317e-06
-7.12242651325e-08
1.40466402593e-06
-7.43699847625e-08
1.38790348069e-06
-7.67414063917e-08
1.37108421791e-06
-7.82090331926e-08
1.35288011902e-06
-7.90484619815e-08
1.33512649986e-06
-7.91448007224e-08
-7.89071714576e-08
1.31640427124e-06
1.27841282177e-06
2.2012931206e-07
1.28780379992e-06
-2.48591111016e-08
1.29031006406e-06
-1.62583148991e-08
1.29301314063e-06
-2.65439284263e-08
1.29228207818e-06
-3.02910069667e-08
1.290319635e-06
-3.50161928713e-08
1.28523712257e-06
-4.00218232881e-08
1.27847190492e-06
-4.45358601196e-08
1.27012157483e-06
-4.86552052877e-08
1.26001163389e-06
-5.28029750429e-08
1.24904445633e-06
-5.59561865092e-08
1.23669596367e-06
-5.89632063641e-08
1.22388212812e-06
-6.0891414615e-08
1.20987098259e-06
-6.26565100393e-08
1.19557039609e-06
-6.33837246e-08
1.18057010935e-06
-6.39089467596e-08
1.16545246131e-06
-6.37781857971e-08
-6.35129973777e-08
1.15041051912e-06
1.1233833139e-06
2.09322057131e-07
1.12858247862e-06
-2.9437654896e-08
1.13111227196e-06
-1.4802680206e-08
1.13230491137e-06
-2.82705560662e-08
1.13171567041e-06
-2.85346644258e-08
1.12850737313e-06
-3.2612414131e-08
1.12381951384e-06
-3.4851461075e-08
1.11746599969e-06
-3.78771349227e-08
1.1093663153e-06
-4.10590911721e-08
1.1008468269e-06
-4.35025152067e-08
1.09067984499e-06
-4.62535502482e-08
1.08052734442e-06
-4.7972830368e-08
1.06889376966e-06
-4.97812901813e-08
1.05757564867e-06
-5.04094147762e-08
1.04491961252e-06
-5.10452888378e-08
1.03257841401e-06
-5.10043176944e-08
1.01949172469e-06
-5.0846050874e-08
-5.03084200881e-08
1.00688570172e-06
9.79113982895e-07
1.93504184138e-07
9.90237168051e-07
-4.03659112656e-08
9.90198111386e-07
-1.78107102398e-08
9.9312040967e-07
-2.89133824865e-08
9.91600479712e-07
-2.59027770201e-08
9.88873846197e-07
-2.7461010566e-08
9.8394620007e-07
-2.93994745462e-08
9.7783714078e-07
-3.15260839459e-08
9.70945162986e-07
-3.34750424971e-08
9.62814843557e-07
-3.58498894019e-08
9.54499929664e-07
-3.7327871052e-08
9.45261553774e-07
-3.87537716821e-08
9.36021382412e-07
-3.94382605434e-08
9.25853906821e-07
-4.02621536448e-08
9.15426263398e-07
-4.04393029515e-08
9.0476477501e-07
-4.01727052519e-08
8.93794211291e-07
-4.01063953754e-08
-4.05318558517e-08
8.8435883288e-07
8.77823981308e-07
1.60427454297e-07
8.65655358459e-07
-2.57421649207e-08
8.67685445405e-07
-1.53449509785e-08
8.70603420031e-07
-3.03650921134e-08
8.6858280074e-07
-2.22723271597e-08
8.65020767114e-07
-2.36885198722e-08
8.60473837013e-07
-2.34821448293e-08
8.54927042278e-07
-2.49766971718e-08
8.48424285296e-07
-2.66044717684e-08
8.41684577822e-07
-2.78770258867e-08
8.34287944288e-07
-2.93725692197e-08
8.26663956441e-07
-3.00886538308e-08
8.1833620248e-07
-3.09635313747e-08
8.09846023074e-07
-3.12084490975e-08
8.01002402907e-07
-3.11566917847e-08
7.91477210578e-07
-3.0831534577e-08
7.82076721825e-07
-2.97931514314e-08
-2.48873654049e-08
7.66363817855e-07
6.26162788084e-07
2.67299689303e-07
7.66707196104e-07
-1.64330599042e-07
7.62707098366e-07
-1.07729867697e-08
7.6823215194e-07
-3.33935902304e-08
7.65675339186e-07
-1.68253272165e-08
7.62844319472e-07
-1.85563832949e-08
7.58907295447e-07
-1.83518956725e-08
7.54320768515e-07
-1.94837922275e-08
7.49184538527e-07
-2.04568818778e-08
7.43621862701e-07
-2.18361085285e-08
7.37952252534e-07
-2.26888780403e-08
7.31539333751e-07
-2.28891542564e-08
7.24995997544e-07
-2.3251407739e-08
7.18140349224e-07
-2.36606973521e-08
7.11077284254e-07
-2.35951372008e-08
7.03883378527e-07
-2.28969368136e-08
6.96312398792e-07
-2.20602365263e-08
-3.60761949748e-08
7.0834574831e-07
1.02566691884e-06
-1.17628642283e-07
6.43372378954e-07
2.21365849398e-07
6.68756916387e-07
-3.31167755463e-08
6.72154843131e-07
-3.01053119198e-08
6.65774436933e-07
-1.12412235046e-08
6.60478629717e-07
-1.19644005814e-08
6.54575526522e-07
-1.0940522272e-08
6.48211129632e-07
-1.19442440111e-08
6.4146039899e-07
-1.27758640421e-08
6.3454323955e-07
-1.38417060095e-08
6.27866034869e-07
-1.44653585604e-08
6.20684209816e-07
-1.50618447572e-08
6.13641688427e-07
-1.55263597213e-08
6.06739738209e-07
-1.59180391105e-08
5.99891887741e-07
-1.60198285917e-08
5.93352538113e-07
-1.58684599644e-08
5.88363588531e-07
-1.62362865323e-08
1.30326712962e-08
5.40216863579e-07
-4.65161162528e-07
9.05963897083e-07
6.04499914146e-07
-8.44905117479e-07
6.08150500108e-07
-3.23638955012e-08
5.93625790136e-07
-9.51198624415e-09
5.93747352521e-07
-9.59940216303e-09
5.929677251e-07
-9.72162242061e-09
5.93176296856e-07
-9.48016716826e-09
5.92943293414e-07
-1.04412837503e-08
5.92393140723e-07
-1.11843743161e-08
5.91965861307e-07
-1.20791402279e-08
5.91794475547e-07
-1.28677345918e-08
5.91064938773e-07
-1.32530093734e-08
5.89534119487e-07
-1.3095128071e-08
5.87503656618e-07
-1.29535946104e-08
5.85054657537e-07
-1.27939243323e-08
5.81007169437e-07
-1.11489681793e-08
5.66725004513e-07
-1.05420835324e-09
-1.5767741192e-08
5.96442824335e-07
1.45609307036e-06
-6.31900578285e-08
4.8583135371e-07
1.29266996742e-07
5.44639821162e-07
-8.59870546793e-08
5.481766207e-07
-5.89572425001e-09
5.36161436238e-07
4.79844879242e-09
5.28419170563e-07
-2.25706031421e-10
5.19315534482e-07
1.4613562747e-09
5.10785506173e-07
-4.80468128139e-10
5.02664095763e-07
-1.80444705149e-09
4.95687720765e-07
-3.47356978454e-09
4.89278337445e-07
-4.57553250406e-09
4.82808612723e-07
-5.44127989007e-09
4.77014415802e-07
-6.2009450691e-09
4.72188155096e-07
-7.07688027245e-09
4.67541719148e-07
-7.28363447704e-09
4.65295346161e-07
-8.07644402462e-09
4.80486809411e-07
-1.51953116792e-08
-8.8422841986e-11
4.66035676195e-07
3.57369004251e-07
4.87030615852e-07
4.01726164758e-07
3.96067368978e-07
4.01044008666e-07
4.01029544739e-07
4.02668570558e-07
4.02349021884e-07
4.00764765427e-07
3.97591232028e-07
3.93245768754e-07
3.87996271626e-07
3.81998016122e-07
3.75103212786e-07
3.67990223585e-07
3.6015028968e-07
3.45272194344e-07
3.45363346306e-07
-4.0204287295e-10
5.20951243513e-08
7.80193155473e-09
4.6116180185e-08
-1.15147501486e-08
4.39170474337e-08
-2.97341628456e-08
3.76006611942e-08
-4.97099969405e-08
2.92354988734e-08
-6.12739583184e-08
2.17056825995e-08
-7.15509169346e-08
1.52714012103e-08
-7.48459041509e-08
9.87937506279e-09
-7.6418742738e-08
5.11936246504e-09
-7.26853986079e-08
1.0479194674e-09
-6.76500033652e-08
-2.48826057191e-09
-5.85937285276e-08
-5.38183200176e-09
-4.89781475345e-08
-7.79298078977e-09
-3.64744438922e-08
-9.64520830205e-09
-2.40972751222e-08
-1.11272448642e-08
-9.66792755589e-09
-1.21831053131e-08
4.13807341131e-09
-1.30011639659e-08
1.94688566025e-08
-1.35196900508e-08
3.39528392858e-08
-1.39116904423e-08
4.96535227239e-08
-1.40989509317e-08
6.43567024552e-08
-1.42414303219e-08
8.00811019795e-08
-1.42298900594e-08
9.48383327024e-08
-1.42128537721e-08
1.10399996654e-07
-1.40838819672e-08
1.2493389185e-07
-1.39595416086e-08
1.40079916487e-07
-1.3728644014e-08
1.54110154342e-07
-1.35192867221e-08
1.68593018005e-07
-1.32070529615e-08
1.81944452895e-07
-1.29136356306e-08
1.95573822116e-07
-1.25340177537e-08
2.08019158704e-07
-1.21887861669e-08
2.20657895271e-07
-1.17625407532e-08
2.32189671317e-07
-1.1376776886e-08
2.43791912443e-07
-1.09345486471e-08
2.54320920655e-07
-1.05467137033e-08
2.64899643085e-07
-1.01065918716e-08
2.74550353347e-07
-9.72828244143e-09
2.84203756817e-07
-9.31681159735e-09
2.93060107862e-07
-8.96755626315e-09
3.01892665681e-07
-8.59557783008e-09
3.10051521803e-07
-8.2864014405e-09
3.18160518031e-07
-7.96337346826e-09
3.25714240589e-07
-7.69997823948e-09
3.33201637956e-07
-7.42966748854e-09
3.40247972175e-07
-7.21274018379e-09
3.47223464545e-07
-6.99379042937e-09
3.53860501427e-07
-6.81973272007e-09
3.60443606971e-07
-6.64510564749e-09
3.66770017468e-07
-6.51216677604e-09
3.73062591973e-07
-6.38350478846e-09
3.79194917856e-07
-6.29997658377e-09
3.85328651922e-07
-6.23719847438e-09
3.91378512245e-07
-6.21587285786e-09
3.97476435609e-07
-6.21190729658e-09
4.03552405596e-07
-6.24414875724e-09
4.09701967967e-07
-6.28074456612e-09
4.15855216699e-07
-6.31701780807e-09
4.22019232261e-07
-6.30670730337e-09
4.28059645578e-07
-6.19212846951e-09
4.3369695774e-07
-5.7921822517e-09
4.38729325331e-07
-5.16097640453e-09
4.437647149e-07
-5.17726851382e-09
4.49076540728e-07
-5.41556112934e-09
4.54675903312e-07
-5.72409791748e-09
4.6066161512e-07
-6.03407401438e-09
4.66876820277e-07
-6.32870695481e-09
4.73422561383e-07
-6.56914071295e-09
4.80127719825e-07
-6.78690540362e-09
4.87115199547e-07
-6.96320682354e-09
4.9424576154e-07
-7.1359651979e-09
5.01639523133e-07
-7.29530826439e-09
5.09158748279e-07
-7.46003756246e-09
5.16996517638e-07
-7.60220498011e-09
5.24919393376e-07
-7.78176512555e-09
5.33123166981e-07
-7.92348403117e-09
5.41383623816e-07
-8.0633616276e-09
5.49908842769e-07
-8.16156142621e-09
5.58396151116e-07
-8.24396332008e-09
5.67141693345e-07
-8.22267230116e-09
5.75639205539e-07
-8.19280768799e-09
5.84290275055e-07
-8.02906091472e-09
5.92478882532e-07
-7.82941656327e-09
6.00742587568e-07
-7.40993314975e-09
6.08089624838e-07
-6.94655703918e-09
6.1529203062e-07
-6.12486787205e-09
6.21183086962e-07
-5.18090868804e-09
6.26440546956e-07
-3.64766727975e-09
6.30679643773e-07
-1.61707383391e-09
6.33626906318e-07
2.17104658725e-10
6.39080075675e-07
4.35440134149e-09
6.42402912306e-07
7.54930047603e-09
6.44257609833e-07
1.2352668841e-08
6.40976468462e-07
1.76691229345e-08
6.33217661264e-07
2.48148944987e-08
6.16524458879e-07
3.35694689179e-08
5.93254427281e-07
4.29601378343e-08
5.73395701394e-07
3.84631805758e-08
5.83207678428e-07
1.1855128911e-08
5.9787081119e-07
5.83212936075e-09
6.01347889502e-07
2.18055997741e-08
6.04034277071e-07
2.40568273222e-08
6.25749942671e-07
1.01080573071e-08
7.44915072948e-07
-9.02421085072e-08
9.21907169336e-07
-1.48532628796e-07
1.00403822423e-06
-5.09996117493e-08
9.13436176217e-07
1.19455052609e-07
8.72156085477e-07
6.1267292803e-08
8.3267841729e-07
5.32319331434e-08
7.79660393849e-07
6.30114708477e-08
7.26550277704e-07
6.08261040427e-08
6.82745988807e-07
4.94526017012e-08
6.48842057263e-07
3.8434892795e-08
6.22074986289e-07
2.99096953685e-08
6.00822471374e-07
2.3817938468e-08
5.83239816502e-07
1.91605843643e-08
5.68701331141e-07
1.58500027522e-08
5.56135672425e-07
1.31765227699e-08
5.45571232639e-07
1.13059280892e-08
5.36217698782e-07
9.75962714901e-09
5.2825242552e-07
8.72886550612e-09
5.21026168422e-07
7.78400048102e-09
5.14729232717e-07
7.08421787789e-09
5.08874523186e-07
6.36960328994e-09
5.03465779619e-07
5.78576360008e-09
4.9823093016e-07
5.20687355169e-09
4.93283159416e-07
4.77143160437e-09
4.88466224653e-07
4.36678336571e-09
4.83886051616e-07
4.09615436466e-09
4.79399041481e-07
3.85194510458e-09
4.75082249208e-07
3.71650614848e-09
4.7079832267e-07
3.59148458923e-09
4.6661260643e-07
3.55377390988e-09
4.6238658245e-07
3.5106149478e-09
4.58181892771e-07
3.54482880364e-09
4.53850280078e-07
3.56364555039e-09
4.49462119831e-07
3.66145842451e-09
4.44854391355e-07
3.74807214104e-09
4.40110455116e-07
3.92335105225e-09
4.35064966005e-07
4.08954584126e-09
4.2986693518e-07
4.34139319955e-09
4.24383410606e-07
4.58830433151e-09
4.1877989407e-07
4.93180476172e-09
4.12846021222e-07
5.29524387864e-09
4.06611898394e-07
5.78286749814e-09
3.9979729401e-07
6.32965222712e-09
3.92389309259e-07
7.04343411615e-09
3.84082538162e-07
7.86179138395e-09
3.74838575773e-07
8.8767080919e-09
3.6434742191e-07
1.00149147503e-08
3.5257510321e-07
1.13352091837e-08
3.39263258129e-07
1.27446218954e-08
3.2443962955e-07
1.42579272843e-08
3.07964865544e-07
1.57670473653e-08
2.89985275466e-07
1.7238943684e-08
2.70539046003e-07
1.85627049089e-08
2.49919917698e-07
1.96720935101e-08
2.28355506299e-07
2.04845561611e-08
2.06252856389e-07
2.09321500636e-08
1.83982572193e-07
2.09861766084e-08
1.62000942365e-07
2.05816932192e-08
1.40766414029e-07
1.97457218908e-08
1.20703253009e-07
1.84324525758e-08
1.02234296743e-07
1.67746721681e-08
8.55984933528e-08
1.47689921938e-08
7.10855679893e-08
1.26042095085e-08
5.87666246171e-08
1.02004172296e-08
4.89878496944e-08
7.63717109477e-09
4.17044492611e-08
4.89105010401e-09
3.69782497608e-08
2.33549994094e-09
3.43994870666e-08
-9.81992209733e-11
3.4038771515e-08
-2.26816840199e-09
3.55575967979e-08
-4.44210976974e-09
3.90104260378e-08
-6.24672306751e-09
4.47711322588e-08
-8.83719184206e-09
5.19779603524e-08
-1.00536928113e-08
5.825094701e-08
-9.34451610048e-09
6.27575544064e-08
-7.22020115243e-09
6.1811232582e-08
-1.97249083975e-09
4.83434742411e-08
1.07216934584e-08
3.51412901775e-08
1.01075400373e-08
3.80201832622e-08
3.40118428607e-08
1.81623666288e-08
7.98106472274e-08
-1.49945536562e-08
8.47959027684e-08
-3.46480104224e-08
6.50830753385e-08
-4.31941905379e-08
4.26052641363e-08
-4.06595319105e-08
2.45577952272e-08
-3.28496022263e-08
1.1047122582e-08
-1.97061285021e-08
8.43666558645e-10
-4.83183067979e-09
-7.03358541219e-09
1.26852908588e-08
-1.31375725003e-08
3.0274543439e-08
-1.7882738338e-08
4.90414463646e-08
-2.1472777756e-08
6.70769800549e-08
-2.41419476359e-08
8.55787817717e-08
-2.60206463799e-08
1.02982387793e-07
-2.72866709654e-08
1.205167549e-07
-2.80343827341e-08
1.36803359789e-07
-2.84034752389e-08
1.53089263145e-07
-2.84472924348e-08
1.68131294368e-07
-2.82785780396e-08
1.83110582675e-07
-2.79263629277e-08
1.9692294349e-07
-2.74604065164e-08
2.10667008928e-07
-2.68945822764e-08
2.23331353346e-07
-2.62875372095e-08
2.35965440877e-07
-2.56248116961e-08
2.47601497718e-07
-2.49605811348e-08
2.59156474846e-07
-2.42780148116e-08
2.69827598587e-07
-2.36023936979e-08
2.80487135268e-07
-2.29164285578e-08
2.90340613014e-07
-2.2253042187e-08
3.00186624798e-07
-2.15868506923e-08
3.09341264151e-07
-2.09443075198e-08
3.18538270484e-07
-2.02994862535e-08
3.2712942426e-07
-1.96880723428e-08
3.35752431678e-07
-1.90810154808e-08
3.43873754241e-07
-1.85040230191e-08
3.52029491364e-07
-1.79332408945e-08
3.59768102649e-07
-1.73942598955e-08
3.67535005141e-07
-1.68614631954e-08
3.74951206338e-07
-1.63608910437e-08
3.82357085893e-07
-1.58699718244e-08
3.89458431679e-07
-1.54092789558e-08
3.96506022007e-07
-1.49596488408e-08
4.03277984787e-07
-1.45368985512e-08
4.099515172e-07
-1.41244408375e-08
4.16366989788e-07
-1.37345948126e-08
4.22646182792e-07
-1.33526285868e-08
4.28678563756e-07
-1.29889881748e-08
4.34542382631e-07
-1.26315638976e-08
4.40167455631e-07
-1.22858433179e-08
4.45591582766e-07
-1.19431283241e-08
4.50745501126e-07
-1.16121846708e-08
4.55657960404e-07
-1.12920695376e-08
4.60284537526e-07
-1.09992564833e-08
4.64646623926e-07
-1.07305289558e-08
4.68714613031e-07
-1.0479205382e-08
4.7249373018e-07
-1.02232678379e-08
4.75941018818e-07
-9.93359528635e-09
4.78994392937e-07
-9.52816182687e-09
4.81545023588e-07
-8.90740333642e-09
4.83691319682e-07
-8.09830872025e-09
4.85214822914e-07
-6.84078823626e-09
4.85209006281e-07
-5.32470591178e-09
4.8427029002e-07
-4.59334678238e-09
4.82744781493e-07
-4.32748106003e-09
4.80948385813e-07
-4.33656215417e-09
4.79045257425e-07
-4.52292281668e-09
4.77227270536e-07
-4.81940393271e-09
4.75556716309e-07
-5.18318192364e-09
4.74152021132e-07
-5.58015775001e-09
4.72999641851e-07
-5.99818964135e-09
4.72182977468e-07
-6.41283765101e-09
4.71639217522e-07
-6.83943884349e-09
4.71409134138e-07
-7.26375127823e-09
4.71450895374e-07
-7.66607005295e-09
4.71787888426e-07
-8.05391510606e-09
4.72310147202e-07
-8.4232931326e-09
4.73120477025e-07
-8.71690578754e-09
4.74094763991e-07
-8.94494775908e-09
4.75292643877e-07
-9.05933854257e-09
4.76503340374e-07
-9.0629153741e-09
4.77820620007e-07
-8.88559279927e-09
4.78967942007e-07
-8.52776608292e-09
4.80036229584e-07
-7.87190027176e-09
4.8057149059e-07
-6.9208806242e-09
4.80669346584e-07
-5.52987261537e-09