/*--------------------------------*- C++ -*----------------------------------*\
| =========                 |                                                 |
| \\      /  F ield         | OpenFOAM: The Open Source CFD Toolbox           |
|  \\    /   O peration     | Version:  v1806                                 |
|   \\  /    A nd           | Web:      www.OpenFOAM.com                      |
|    \\/     M anipulation  |                                                 |
\*---------------------------------------------------------------------------*/
FoamFile
{
    version     2.0;
    format      ascii;
    class       volScalarField;
    location    "6";
    object      rho;
}
// * * * * * * * * * * * * * * * * * * * * * * * * * * * * * * * * * * * * * //

dimensions      [0 0 0 0 0 0 0];


internalField   nonuniform List<scalar> 
12225
(
0.589861464157
0.626027091434
0.616969168932
0.614075145955
0.602679454913
0.597782998612
0.591454829557
0.587000241627
0.584555605844
0.585244368984
0.590476438868
0.598913832995
0.605555743289
0.616462543039
0.637327560177
0.661823618471
0.691459048792
0.720352875052
0.705539180568
0.681009293554
0.644731004565
0.650746003131
0.641174471595
0.638275392474
0.633744854162
0.630402156272
0.627943151995
0.62704159614
0.629041807112
0.633776949607
0.638538804877
0.645827997729
0.659316635977
0.675483689451
0.692851716102
0.69637017466
0.627112247494
0.658285289511
0.643593778236
0.644637560872
0.635050846704
0.631392374264
0.62652740763
0.62307769459
0.620595047298
0.619554244276
0.620593348512
0.623770084898
0.628351873798
0.635449438214
0.646587889082
0.659173413105
0.669980757565
0.665585891614
0.636762704262
0.669752502976
0.644816665411
0.650332043662
0.641512927653
0.639448154622
0.635894119121
0.633548308884
0.631851178287
0.631206890303
0.631927788695
0.6341259754
0.637746988956
0.64333805912
0.651250303377
0.659313091826
0.663836345938
0.656089605915
0.62981875186
0.670338084186
0.646309221845
0.653075834158
0.645131514044
0.644125468805
0.641552242494
0.640194954586
0.639456242743
0.639639992098
0.640866168838
0.643170991712
0.646619289428
0.651365083069
0.657077448268
0.661795677171
0.662298811443
0.653898588928
0.62835412914
0.67287984031
0.648316060653
0.65645077856
0.649133346925
0.64895415911
0.647068764596
0.6463696914
0.646232260986
0.646889994534
0.648372119084
0.650653297323
0.653751368737
0.657568810624
0.661453631299
0.663675207174
0.661851209895
0.653804002895
0.627583763435
0.674461334026
0.65015383752
0.65932817386
0.652609371095
0.653122676626
0.651788029619
0.651585617342
0.651857283463
0.652788001774
0.654354282558
0.656487686809
0.659110347898
0.661979702411
0.664345952759
0.664787481063
0.661707621055
0.654242012959
0.627439964
0.675520879629
0.651728539331
0.661701515643
0.655530115283
0.656612145028
0.65571480867
0.655879869779
0.656398036214
0.65743619233
0.65894848498
0.660831705089
0.662923349457
0.664906822969
0.666047598599
0.665258958287
0.661532315061
0.654694182417
0.627541199644
0.676072861638
0.652968245222
0.663533904852
0.65786447279
0.659425969765
0.658884201794
0.65930765428
0.659946250717
0.660974849568
0.662339387241
0.663899459616
0.665437310541
0.666612356158
0.666786777523
0.665146601278
0.661125412475
0.654834599088
0.627600965142
0.676168502303
0.653742219174
0.664732381009
0.659489872026
0.661440706926
0.661160097988
0.661740936736
0.662421811071
0.663386299106
0.664550282539
0.665738496957
0.66671115935
0.667157491791
0.666564766321
0.664353722074
0.660241996926
0.65449290798
0.626872035265
0.676035788667
0.653758443703
0.665126117198
0.660124892622
0.66229750402
0.662112959718
0.662741917066
0.663399745713
0.664243217792
0.665157680518
0.665976152834
0.666475749977
0.666398791869
0.665344992279
0.662918909136
0.659018716005
0.653916204379
0.62263545822
0.675739900579
0.652121283554
0.66405637534
0.658995394874
0.661263132298
0.661105593868
0.661747515309
0.662330556433
0.663042678958
0.663833639845
0.664524216227
0.664889909815
0.664685455885
0.663603023426
0.661363314687
0.657923282017
0.653545717856
0.619337464569
0.67492552936
0.650588608546
0.662908928315
0.658035235649
0.660470195006
0.660421039014
0.661151521424
0.661844148475
0.662665359112
0.66351042332
0.664201599782
0.664484518379
0.664187059045
0.66304792477
0.660899515536
0.657775535543
0.65390358157
0.615413976555
0.673983526724
0.648917971732
0.661741118826
0.657104091798
0.659892597199
0.660163416615
0.661128415869
0.661953175133
0.662808283814
0.66358668101
0.664098733379
0.664125880763
0.66355222032
0.662246528229
0.660102999869
0.657253286268
0.653811402744
0.6103334447
0.672952320882
0.646825860303
0.660330133531
0.655946455916
0.659156725611
0.65979567859
0.661040423889
0.662020820149
0.662872470892
0.663525381551
0.663782045778
0.663483215243
0.662628029929
0.661156033119
0.659047463565
0.65644204067
0.65344853052
0.605058104899
0.671882557265
0.644458728254
0.658628721137
0.654395343498
0.657970167351
0.658890108836
0.660347517073
0.661411260725
0.662248603274
0.66274865673
0.662798179528
0.662250839082
0.661224864938
0.659688151476
0.657689242822
0.65534578811
0.652726772118
0.600324030666
0.67095313342
0.642090445854
0.656797712023
0.652562041536
0.656357466886
0.65740785741
0.658946315257
0.660012334498
0.660765877626
0.661153678921
0.661049355095
0.660379784789
0.659285468909
0.657798523466
0.655943015252
0.653870874623
0.651553842768
0.595971027061
0.670265273848
0.639885057047
0.655018298226
0.650635902448
0.654505439593
0.655538449945
0.657058420811
0.658061527737
0.658725542497
0.659014991378
0.658819494336
0.658097072584
0.657016452999
0.655618145749
0.653920717499
0.652072915002
0.650018494027
0.593715359549
0.670223458742
0.6387826793
0.654075385345
0.649422934737
0.653156909777
0.653980922135
0.655313392837
0.65612096328
0.65659960312
0.656728109838
0.656416174292
0.655633321302
0.654561148222
0.653231946817
0.651652645913
0.649963046867
0.648100716945
0.59899370271
0.671013402758
0.640375370811
0.654882464285
0.649735790689
0.652819304707
0.653011010984
0.653701988365
0.653930075445
0.653893447598
0.653599586974
0.652974447612
0.651982845698
0.650791587075
0.649427830525
0.647889165526
0.646300832033
0.644611519645
0.603026358602
0.672107317284
0.642195617612
0.656132665675
0.650605138234
0.653168556108
0.652859153625
0.653083609495
0.652866427498
0.652462603388
0.651871441281
0.651042154269
0.649905253135
0.648651164467
0.647268651725
0.645774166266
0.644251782092
0.642676134582
0.606224028209
0.673230499973
0.643919147897
0.657367306371
0.651530270113
0.65363844857
0.652919522521
0.65273908681
0.652172218639
0.651472665618
0.650638299788
0.649641936477
0.648401068698
0.647083195027
0.645688887947
0.644211170826
0.642739621796
0.641216416113
0.609660813951
0.674473084242
0.645642510833
0.658632773062
0.652490399227
0.654156103932
0.653042942572
0.652489563641
0.651599023971
0.650613562392
0.649575758135
0.648412970956
0.647060390811
0.645664351533
0.644248685063
0.642758723163
0.641309376779
0.639833303288
0.613189351366
0.675740341392
0.64741298208
0.659865689687
0.653406645532
0.65464818285
0.65316165558
0.652251064994
0.651061041865
0.649835779477
0.648590909898
0.647282082556
0.64582410131
0.644365922873
0.642887484634
0.641371593095
0.639894700232
0.638440833261
0.617051494032
0.677053708413
0.64920295508
0.661043622325
0.654328281862
0.655133431602
0.653296573703
0.652077099774
0.650614711382
0.64915245601
0.647716450548
0.646275198938
0.644711140145
0.643170418318
0.641642658465
0.640068436051
0.638530585123
0.637022164061
0.62037412401
0.677611238816
0.651583139194
0.662483509875
0.655619299561
0.656047403407
0.653952318687
0.652467313371
0.650777372028
0.649106775155
0.647501162285
0.64593889166
0.644306768384
0.642704381264
0.641122642978
0.639516035873
0.637939731973
0.636545717692
0.634337710706
0.681544232932
0.653773666007
0.664131981237
0.657008587468
0.656996999604
0.654585101893
0.652798216881
0.650817780998
0.648846797308
0.646920314573
0.6451491025
0.643351927683
0.641565584846
0.639832320855
0.638052286401
0.636250030723
0.634196660042
0.61333502317
0.672078680988
0.662400799545
0.668152127597
0.661793348997
0.661409587864
0.659056310907
0.657368795087
0.655569342075
0.65379609306
0.652192209419
0.650728974826
0.649210267027
0.647726084589
0.646286931471
0.644754306423
0.643178717242
0.642233420819
0.741733841182
0.702786516383
0.665199083446
0.675444962754
0.668268224123
0.667550668955
0.664598552391
0.661995030857
0.659002326585
0.655764290516
0.652393671947
0.649260498662
0.646099363769
0.64282441163
0.639536175829
0.63622261626
0.632850973481
0.629452109561
0.639317741045
0.656737745689
0.658629697643
0.659577376329
0.65239096248
0.651751283334
0.649483561421
0.647830249957
0.646148614089
0.644717999668
0.643638252064
0.642645577084
0.641590977229
0.640860890155
0.64043507672
0.640077950539
0.639903683217
0.639174470148
0.500160763972
0.49980506948
0.499608403516
0.499636329995
0.499841476766
0.500174993626
0.500570281246
0.500989203125
0.501405274306
0.501800651353
0.502163903149
0.502488600587
0.502771792576
0.503013013435
0.503213476154
0.503375684722
0.503502714604
0.503598465583
0.503666605381
0.503710656534
0.503734449987
0.503740673499
0.503733128545
0.50371290054
0.503682369499
0.503641342035
0.503591717204
0.503533269416
0.503466807513
0.503391428643
0.503307368057
0.503213902628
0.503111347285
0.502998636911
0.502875832237
0.502742800717
0.502600452208
0.502447836723
0.502285989623
0.502114766775
0.501935359689
0.501748291003
0.501555014731
0.501356887177
0.501155724391
0.500953686404
0.500753004454
0.500556298328
0.500366381763
0.500185674889
0.500016562701
0.499859899982
0.499718242413
0.49959496868
0.499494582974
0.499421437211
0.499380075981
0.499374990317
0.499410676784
0.49949118358
0.499618230947
0.499790045984
0.50000591989
0.500266507279
0.500572736872
0.500923955931
0.501319421621
0.50175757897
0.502235419107
0.502749921065
0.503296550278
0.503870916253
0.504467770673
0.505082386024
0.505709616382
0.506345041717
0.506984265108
0.507622568801
0.508256082181
0.508882192901
0.509498856258
0.510103075384
0.510693126878
0.511266767212
0.511825146542
0.512366270932
0.5128906932
0.51340489025
0.513905384459
0.514396205769
0.514878585747
0.515352842788
0.515820318046
0.51625358726
0.516636847412
0.517007334475
0.517398609497
0.517802533574
0.518220550863
0.51864608102
0.519178918967
0.519796286775
0.519692228049
0.519517316609
0.519515168463
0.519756521605
0.520194855276
0.520354753598
0.520605973078
0.520839001281
0.521038664298
0.521211320171
0.521364313509
0.521503360382
0.521632456646
0.521754230039
0.521871295258
0.52198645828
0.522100231606
0.522211269391
0.522315958839
0.522412819296
0.52250293378
0.522587166796
0.522668173406
0.522747006416
0.522824204304
0.522899958081
0.522974425354
0.523047717394
0.52312005161
0.523191555924
0.523262336562
0.523332237785
0.523401162703
0.523468878005
0.523535263203
0.523600581337
0.523664296772
0.523726217
0.52378454918
0.523840732587
0.523894046547
0.523943133446
0.523986451233
0.524022370489
0.524049976997
0.524068596221
0.524077582477
0.524076284131
0.524063541336
0.524037727186
0.523996982231
0.523939402437
0.523862737908
0.523764659759
0.523642551639
0.523493648852
0.523314458487
0.523101145647
0.522848066709
0.522549435477
0.522197028668
0.521779600558
0.521281648773
0.520686103742
0.519971759878
0.519121644933
0.518122297984
0.516949916986
0.515589761369
0.514043789965
0.51232921998
0.510488749956
0.508584571646
0.506570220979
0.504506893688
0.502486447457
0.500629151289
0.499272873223
0.500078261199
0.499836593628
0.499915016024
0.500191566166
0.500540530598
0.500905410809
0.501264570264
0.50160673025
0.501927178116
0.502223571273
0.502495205859
0.502740980249
0.502961272193
0.503156031287
0.503326312779
0.50347300337
0.50359781909
0.503702484532
0.50378949289
0.503860350224
0.503917689796
0.503962952122
0.503998623988
0.504024979894
0.50404359607
0.504053681327
0.504056271945
0.504050601003
0.504036660018
0.504013202335
0.50398024436
0.503936850126
0.503882621302
0.503816471433
0.503738868413
0.503649164827
0.503547804688
0.503434578769
0.503310092987
0.503174266145
0.503028090301
0.502872263885
0.502708142752
0.50253724884
0.502361547293
0.502183400231
0.502005703401
0.501831485283
0.501664720348
0.501509776113
0.501373343914
0.501259510801
0.501170359031
0.50110799373
0.501075298968
0.501075026906
0.501109748567
0.501183629121
0.501300777364
0.501461674327
0.501666739032
0.5019170529
0.502211042847
0.502544727574
0.502915205738
0.503320360886
0.503758340899
0.504227748549
0.50472716036
0.505255356222
0.505810512515
0.506390792538
0.506993380317
0.507615394632
0.508253548899
0.508904152775
0.509563184134
0.510226558275
0.510890047817
0.511550781705
0.512206674167
0.512854822525
0.513491918697
0.514116865875
0.514731821174
0.515332243787
0.515912532444
0.516483228104
0.517065916899
0.517645028504
0.518193609478
0.518746690333
0.519344888276
0.519960847227
0.520515763492
0.521007015915
0.521541181029
0.521938231029
0.522336574155
0.522771453224
0.523189773437
0.523804318576
0.524208315127
0.524609802138
0.524955706021
0.52529478494
0.525449643022
0.525509817673
0.525577775932
0.525675489249
0.525808468584
0.52595599216
0.526112578904
0.52627509611
0.526442349625
0.526613807422
0.526790200818
0.526972710305
0.527161388165
0.527352998381
0.527543289034
0.527730037162
0.527912731877
0.528092605901
0.528271121729
0.528448830957
0.528626027845
0.528802737496
0.528978982053
0.529154720575
0.529329983161
0.529504769507
0.529679076199
0.529852854658
0.530026233768
0.530199409346
0.530372937687
0.530547560308
0.5307238487
0.530901252067
0.53107929633
0.531259000859
0.531440513442
0.531623314514
0.53180629826
0.53198883076
0.532171295888
0.532354781144
0.532540703612
0.532730533074
0.532925901434
0.53312866051
0.533340702679
0.53356360429
0.53379832792
0.534045216221
0.534303636465
0.534572140643
0.534847989764
0.535128280685
0.5354081848
0.53568171225
0.535942650828
0.53618560306
0.53640522502
0.536596681155
0.536762117542
0.536891163299
0.536982742311
0.537037486358
0.537053482828
0.537024134202
0.536940453915
0.536806083326
0.536552434278
0.536282147968
0.535985017066
0.53567723818
0.535395544829
0.535086655081
0.500389666487
0.50032157582
0.500364654921
0.500500999994
0.500665661727
0.500824558945
0.500978975833
0.501132005326
0.501286658198
0.501442804016
0.501599328172
0.501753883805
0.501904075643
0.502047403732
0.502182040208
0.502306482834
0.502420110021
0.50252255064
0.502614311991
0.502695973508
0.502768709774
0.502832792601
0.502890136173
0.502940697057
0.50298528321
0.503023489204
0.503055889632
0.503081519009
0.503100287216
0.503111062703
0.503113517948
0.503106357724
0.503089375892
0.503061569136
0.503022677731
0.502972141367
0.502910348719
0.502836607575
0.502751347967
0.502654603658
0.502547004277
0.502429172806
0.502302219475
0.502167472245
0.502026653744
0.50188175947
0.501735297038
0.501589976141
0.501448953444
0.501315618691
0.501195091937
0.501092634307
0.501014063564
0.50096294951
0.50094194425
0.500953084608
0.500998068973
0.501076412138
0.50118692361
0.501331013084
0.501511964401
0.501733179275
0.50199921449
0.502313722655
0.502678465597
0.50309345155
0.503557592037
0.504068779749
0.504623626342
0.505218156297
0.505847408079
0.506505978005
0.5071880584
0.507887837887
0.508599624142
0.509317976979
0.510037952682
0.510754961827
0.511464986413
0.512164389375
0.512852232977
0.513526799295
0.514184993071
0.514825184874
0.515452109775
0.516068125836
0.516660012353
0.51722540725
0.517788841821
0.518362412799
0.518915236337
0.519420850763
0.519956361954
0.520503996901
0.521027013355
0.521513168315
0.521947534258
0.522241517378
0.522646002903
0.52322448707
0.523865554036
0.524274965276
0.52440168718
0.524533867392
0.524565745142
0.524652247642
0.524854700232
0.525182328089
0.525517844823
0.525812528257
0.526084564738
0.526336626105
0.526574630798
0.526802138699
0.527021837975
0.527235816392
0.527446348993
0.52765528956
0.527862996797
0.528066954422
0.528264597069
0.528455201066
0.528639922208
0.528820752687
0.528998549621
0.529173712295
0.529346476834
0.529517097314
0.529685848083
0.529853032093
0.53001898428
0.530184011684
0.53034832829
0.530512128081
0.530675642976
0.53083922968
0.531003357785
0.531168234717
0.531333758989
0.531498597411
0.531662587342
0.531826619318
0.531991873134
0.532157978834
0.532323399828
0.5324868881
0.532647716374
0.532805685445
0.532960576302
0.533112166834
0.533260041099
0.533403864221
0.533543027022
0.533677043585
0.533805629986
0.533928770291
0.534046629173
0.534159850173
0.534269344263
0.534376649227
0.534483550389
0.534592051225
0.534704465192
0.534823630912
0.534952285503
0.535093598752
0.535252216101
0.535430195447
0.535625544806
0.535836513348
0.536058792226
0.536282617456
0.536496325816
0.536677071769
0.536801165005
0.536854994292
0.536829375339
0.536727459646
0.536588126945
0.536533336493
0.500753055924
0.500718771154
0.500552208901
0.500480908599
0.50047878268
0.500500708091
0.500546939213
0.50061652836
0.500708670121
0.500821028441
0.500950123789
0.501091254305
0.501240334235
0.501393190698
0.501546614744
0.501697755973
0.501844730188
0.501986068
0.502121325957
0.502249583805
0.502371435723
0.502486795735
0.502596171179
0.502699247403
0.502796799615
0.502887780825
0.502972268966
0.503049289231
0.503118394723
0.503178222551
0.503228170793
0.503267080748
0.503294285288
0.503308551318
0.503310017223
0.503297750061
0.503271840593
0.503232071439
0.503178942839
0.503112575501
0.503033984172
0.502944162322
0.502844738777
0.502737634943
0.502625230066
0.502510271189
0.502396049811
0.502285899282
0.502183758876
0.502093842435
0.502020237472
0.501965853844
0.501935594248
0.50193355278
0.501963489224
0.502028458514
0.502131208127
0.50227272493
0.502451043818
0.502662549115
0.50290492283
0.503177786786
0.503483849482
0.503826439047
0.504208983274
0.504634531999
0.505104930131
0.505620725318
0.506181032705
0.506783402175
0.507424019354
0.508097652442
0.508797922539
0.509518296656
0.51025202532
0.510991686331
0.511730936858
0.512465292743
0.513188832993
0.513896146829
0.514586353972
0.515261478236
0.515914922457
0.516539093538
0.517143679368
0.517737937519
0.518309123606
0.518826334925
0.519338071245
0.519856770084
0.520353844535
0.520810220281
0.521227285302
0.521629867058
0.521990351284
0.522385702403
0.522863979616
0.523389867506
0.523978254852
0.524470298524
0.52477209345
0.524851793722
0.524901795352
0.525013983321
0.525128180117
0.525345635899
0.525698088464
0.526148166129
0.5265923849
0.526979568045
0.527317434282
0.527615741287
0.527885488872
0.528134346935
0.528367763073
0.528589829147
0.528803867136
0.529012408788
0.529215756609
0.529412254016
0.529600334257
0.529780558798
0.529955432214
0.530126670549
0.530294830571
0.530459951166
0.530622107636
0.530781485944
0.530938394265
0.531093223177
0.531246418194
0.531398386495
0.531549458953
0.531699938442
0.531850172893
0.532000622785
0.532151566675
0.532302800487
0.532453279257
0.532601485335
0.532747031992
0.532891598608
0.533037152507
0.533183785137
0.533330444751
0.533476149569
0.533620512487
0.533763638465
0.533905760109
0.534047163817
0.534188074376
0.534328757552
0.534469292358
0.534609726472
0.534750077691
0.534890305244
0.535030196735
0.535169466622
0.535307569337
0.535443904865
0.535578090953
0.535709629969
0.535837990981
0.535963248117
0.536085889246
0.536207283866
0.536330629317
0.536457688973
0.536589571989
0.536729005287
0.536877075473
0.537031614601
0.537189696151
0.537345317679
0.537483087031
0.53760150286
0.537698034527
0.537781935287
0.537900755821
0.538159137997
0.50115298655
0.500866178875
0.500409773492
0.500206125411
0.500146692541
0.500133766984
0.500156531585
0.500209593774
0.500291995434
0.500400333201
0.500531251177
0.500680331197
0.500843500399
0.501016409163
0.501195705351
0.501378026103
0.501561237849
0.501742994631
0.501922230616
0.502097903754
0.50226970044
0.502436609684
0.502599264247
0.502756749929
0.502908952259
0.503055133669
0.503195028844
0.50332725845
0.503451211122
0.503565495633
0.503669331922
0.503761164135
0.503840501673
0.503906235846
0.503957883509
0.503994686336
0.504016908998
0.504023874608
0.504016051073
0.503993592989
0.503957365023
0.503908212149
0.50384765623
0.503777392275
0.503699658986
0.503616844804
0.503531958309
0.503448130888
0.503368792995
0.503297922037
0.503240895501
0.503201218175
0.503183361303
0.503191636247
0.503229382296
0.503299498997
0.503405184577
0.503548170637
0.503727972548
0.503944797687
0.504198571143
0.504488731576
0.504815954327
0.505181551227
0.505587730416
0.506036694682
0.506530299326
0.507069489887
0.507653331372
0.508279686489
0.508944794811
0.509643449635
0.510368128428
0.511112645975
0.511870147423
0.512632177926
0.513390416454
0.514142000494
0.514883802137
0.515603900377
0.516297094027
0.516974292169
0.517630565813
0.518249004361
0.518843321635
0.519429558127
0.519988845987
0.520506397214
0.520975574352
0.521425997732
0.521879446149
0.522276589366
0.522666319674
0.523069262799
0.523507788517
0.524043888154
0.5245769018
0.525068935883
0.525458871857
0.525666368458
0.525731341532
0.525741937442
0.525821987593
0.525980859243
0.526190325354
0.526486928719
0.526865187888
0.527287337214
0.527696268298
0.528062703397
0.528386338894
0.528672886032
0.528930711249
0.529166688977
0.52938616406
0.52959330635
0.529791436767
0.52998268173
0.530167081008
0.530343326747
0.530510670434
0.530670734967
0.530826279212
0.53097879198
0.531128531344
0.53127534923
0.531419172049
0.531560112451
0.531698450319
0.531834612523
0.531969097871
0.532102383141
0.532234900271
0.532367031412
0.532499277021
0.532632147401
0.532765751226
0.532899398435
0.533031210106
0.533159544484
0.533284014041
0.533407043892
0.533530911956
0.533655991372
0.533781461594
0.533906407311
0.534030481307
0.534153648377
0.534276045012
0.534397770421
0.534518940195
0.534639641725
0.534759919259
0.534879783679
0.534999265308
0.535118351169
0.535236985672
0.535355100358
0.535472539366
0.53558921269
0.535705348462
0.535821171611
0.535937058271
0.536053901602
0.53617277061
0.536295196723
0.536423953224
0.536560379192
0.53670494028
0.536859218847
0.537022593705
0.537192052117
0.537364886095
0.537536233919
0.537696449086
0.537846137831
0.537991010415
0.538148804889
0.538373346593
0.538756389225
0.501545075443
0.500647858968
0.49995623301
0.499806920098
0.499822585916
0.499854357196
0.499902285685
0.499968640021
0.500057956954
0.500170796711
0.500306396566
0.500461169101
0.500632313461
0.500815807946
0.501008877876
0.501208160677
0.501411578797
0.50161675042
0.501822561392
0.502027065091
0.502230059688
0.502430543247
0.502628047019
0.502821679498
0.503011484112
0.503195955712
0.503374574159
0.503545996924
0.503709334417
0.50386298251
0.504005973423
0.504136922635
0.504254939937
0.504358675891
0.50444801887
0.504521956652
0.504580438413
0.50462316768
0.504650636103
0.504662962816
0.504661254633
0.504646454184
0.504620298322
0.504584586238
0.504541682564
0.504493975206
0.504444448673
0.504395872708
0.504351577946
0.504315383177
0.504292416251
0.504286041212
0.504301044602
0.504341761093
0.504412107835
0.504515569592
0.50465539803
0.504830351999
0.50503860954
0.505279144498
0.505552024005
0.505857388667
0.506197919342
0.506576894609
0.506997909474
0.507464101089
0.507978173259
0.508541290738
0.50915203174
0.509806441367
0.51050113532
0.511229523411
0.511982292474
0.512750893226
0.513531534223
0.514314823917
0.515087717097
0.515845559547
0.516592679213
0.517320934819
0.518006612107
0.518686353999
0.519344706428
0.519969084278
0.520550340137
0.521087238122
0.521599980081
0.522084016609
0.522538091885
0.522977790249
0.523392925948
0.523821010498
0.524330883799
0.524853473863
0.525355780149
0.525804836725
0.526150370155
0.526416104313
0.526594589342
0.526681634173
0.526729311146
0.526799416559
0.526936418769
0.527132291226
0.527376631792
0.527678519048
0.528025365462
0.528391456349
0.528746701114
0.529074379425
0.529370895342
0.529637955501
0.5298801698
0.530102280606
0.530308482038
0.530502352573
0.530686847893
0.530863505725
0.531032263152
0.5311920303
0.531342785043
0.531486817708
0.531626671805
0.531763666096
0.531897979869
0.532029443969
0.532157926915
0.532283505289
0.532406446196
0.532527194876
0.532646272245
0.532764208192
0.532881480256
0.532998577674
0.533116095969
0.533234568656
0.533353911142
0.533472807095
0.533589098946
0.533700803644
0.533808125953
0.533913726148
0.534019912198
0.53412729254
0.534235216165
0.534342974657
0.53445024184
0.534556987381
0.534663276796
0.534769148981
0.534874645992
0.534979799635
0.535084645461
0.535189219934
0.535293581855
0.535397763799
0.535501770226
0.535605610139
0.535709232682
0.535812681613
0.535916261066
0.536020277657
0.536125233349
0.536232137498
0.536342171785
0.536456889184
0.536578812656
0.536709315043
0.536849051323
0.536999640061
0.537160453337
0.537328985507
0.537503540654
0.537680952358
0.537854243708
0.538025872899
0.53820405947
0.538409717839
0.538694382277
0.53913088265
0.501835152618
0.500020671086
0.499315752591
0.499440505213
0.499604177788
0.499707392369
0.499795258874
0.499887699578
0.499998207529
0.500129266587
0.500281980062
0.500453606922
0.500642174054
0.500843981206
0.50105684166
0.501277467308
0.501504187347
0.50173431858
0.501966797714
0.502200087643
0.502433426514
0.50266529075
0.502895773193
0.503123465009
0.503347783458
0.503567660588
0.503782406103
0.503990375
0.504190694195
0.50438175228
0.504562562881
0.504731453573
0.50488775604
0.505030292873
0.505158449539
0.505271460968
0.505369480497
0.505451925819
0.505519352552
0.505572044289
0.505611087842
0.505637441857
0.505652819664
0.50565887463
0.50565777944
0.505651424542
0.505642312093
0.505632584794
0.505624530133
0.505620950275
0.505627598086
0.505647066377
0.505684674405
0.50574664181
0.505838500848
0.505965435318
0.506130266703
0.506329571263
0.50656161708
0.506824503651
0.507117064981
0.507437827746
0.50778942506
0.508176614301
0.508605555656
0.509080418446
0.509606014912
0.510185387344
0.510816536231
0.511493602242
0.512211808989
0.51296682619
0.513744911688
0.514531729475
0.51532445832
0.516117611667
0.516897164136
0.517657956486
0.518410796417
0.519139552857
0.519836027415
0.520487566397
0.521093199809
0.521678396689
0.522232357554
0.522748623017
0.523220129526
0.523658583986
0.524113441821
0.524604883999
0.525103304312
0.525617246579
0.526127436876
0.526568659015
0.526932037234
0.527206860941
0.527398770662
0.527542782826
0.527650728465
0.527735702708
0.527828158599
0.527952829622
0.528120915075
0.528326234811
0.528566364683
0.528842581591
0.529145144976
0.529458086809
0.529764361538
0.530053121164
0.530319871584
0.530564101504
0.530787735861
0.53099363499
0.531184780189
0.531364143013
0.531534047365
0.53169563589
0.531848629766
0.531992284493
0.532127228743
0.5322557225
0.532380114317
0.532501554785
0.532620289743
0.532736194335
0.532849181449
0.532959313003
0.533066860839
0.533172255593
0.533276027915
0.533378725171
0.533480859409
0.533583019208
0.533685873194
0.533789954249
0.533894909873
0.533999018335
0.534099845415
0.534195462145
0.534286580442
0.534375798048
0.534465419693
0.534556056433
0.534647243198
0.534738483631
0.534829545794
0.534920459926
0.535011232187
0.535101876438
0.535192344075
0.535282646787
0.535372784156
0.535462826569
0.535552842499
0.535642922912
0.535733121663
0.535823533047
0.535914210498
0.536005323369
0.536097280726
0.536190500671
0.536285618554
0.536383730281
0.53648611747
0.536594302178
0.536710630182
0.536836389618
0.536972304536
0.537119860633
0.537278563215
0.537446266789
0.537622122903
0.537804378901
0.537988318579
0.538177881851
0.538382913524
0.538625496072
0.538951997435
0.53941781625
0.501958323106
0.499076255209
0.498698439535
0.499241912386
0.499534722906
0.499696942048
0.499827045536
0.499956162843
0.50010050245
0.50026311723
0.500445902028
0.500645608695
0.500861278516
0.5010892772
0.501328180154
0.501574816635
0.501827880882
0.502084913912
0.502345149859
0.502606435637
0.502868482854
0.50312987046
0.503389921899
0.503647532567
0.503902497606
0.504153138859
0.504398880856
0.504638314939
0.504870553123
0.50509400226
0.505307772632
0.505510539543
0.505701475091
0.50587937882
0.506044106166
0.506194756943
0.506331313845
0.506453596296
0.506562128242
0.506657138858
0.506739798456
0.50681100776
0.506872320191
0.506925107949
0.506970997734
0.507011228761
0.507047021687
0.507079213294
0.507108744011
0.507136733719
0.507167514369
0.507206091455
0.507259086087
0.507336636822
0.507448778403
0.507604477382
0.507804028797
0.508041231236
0.508312296979
0.508612527408
0.508935566954
0.509278006717
0.509641230806
0.510033457488
0.510463994089
0.510940274875
0.511468695508
0.51205580655
0.512701894085
0.513395913263
0.514127746999
0.514896054169
0.515689392739
0.516481063778
0.517286400496
0.518092476843
0.518877059561
0.519633440561
0.520351022893
0.521027521228
0.521683780892
0.522307006916
0.522890367913
0.523431734498
0.523924624032
0.52439165402
0.524854275026
0.525337365987
0.525849927579
0.526365789631
0.526853268287
0.52730598556
0.527694313635
0.527995816506
0.528225027081
0.528394204212
0.528524085236
0.528638004774
0.528745134408
0.528854590873
0.528979214319
0.529126889854
0.529299873565
0.529496269281
0.529716396886
0.529959942262
0.530220478153
0.53048798747
0.53075190624
0.53100451397
0.531241505564
0.53146131685
0.531664339883
0.531852052765
0.532026542359
0.532190133904
0.532344595573
0.53249066155
0.532627943052
0.532755958547
0.53287562043
0.532989052355
0.533098263804
0.533204335362
0.533307607653
0.533408069375
0.533505696784
0.533600574655
0.533692971551
0.533783296767
0.533872066239
0.533959802998
0.534047063018
0.534134487606
0.534222858131
0.534312622867
0.534403146395
0.53449249036
0.534578082222
0.534658417864
0.534734422407
0.534808555076
0.534882871366
0.534957936868
0.535033492212
0.535109189363
0.535184950895
0.535260836124
0.535336875832
0.535413042925
0.535489255903
0.53556548471
0.535641716667
0.535718025809
0.535794502899
0.535871277258
0.535948457688