/*--------------------------------*- C++ -*----------------------------------*\
| =========                 |                                                 |
| \\      /  F ield         | OpenFOAM: The Open Source CFD Toolbox           |
|  \\    /   O peration     | Version:  v1806                                 |
|   \\  /    A nd           | Web:      www.OpenFOAM.com                      |
|    \\/     M anipulation  |                                                 |
\*---------------------------------------------------------------------------*/
FoamFile
{
    version     2.0;
    format      ascii;
    class       volScalarField;
    location    "6";
    object      sensitivity;
}
// * * * * * * * * * * * * * * * * * * * * * * * * * * * * * * * * * * * * * //

dimensions      [0 2 -3 0 0 0 0];


internalField   nonuniform List<scalar> 
12225
(
6.34612772458
-7.45282722949
-3.84871608457
-4.20836710635
-4.38232062396
-4.62173047087
-4.94660653407
-5.31844745816
-5.61979693584
-5.82983448555
-6.08617597869
-6.41987666828
-6.95873420254
-7.908514398
-9.37790290479
-11.6588812318
-14.9119446569
-16.4428507905
-22.3070330209
-9.83800015842
-8.66132430651
-8.86724362313
-8.48896152188
-8.40270055323
-8.25379806241
-8.17796876171
-8.17247430089
-8.36201564928
-8.9049205368
-9.77380927705
-10.9872682968
-12.6457423956
-14.8145895375
-17.448587661
-19.9350600536
-19.1967633523
-1.98727411506
-6.16335026934
-7.90666427624
-7.08108828393
-6.94720126881
-6.78002763125
-6.70221199538
-6.72373462346
-6.84211406716
-7.12158096215
-7.63182669615
-8.37879514359
-9.39522337923
-10.75028276
-12.5124227807
-14.5946318541
-16.2953577656
-15.4004570376
-9.4424774503
-9.19667348709
-8.45311156577
-8.41913982234
-8.20556864511
-8.14349329695
-8.09424734346
-8.12147514694
-8.20880756934
-8.40594250718
-8.75431599964
-9.27853825177
-10.0251259107
-11.0432199605
-12.3435663236
-13.7435285467
-14.55236587
-13.4299005545
-8.8203934256
-9.03121160901
-8.91925186402
-8.81131103348
-8.67166450138
-8.63048353276
-8.59184301364
-8.6211031657
-8.70214472057
-8.87952059048
-9.18205912098
-9.63720464655
-10.2764750155
-11.1173784561
-12.116797245
-13.0425083642
-13.3286623778
-12.2657002417
-9.68048395297
-9.59552067932
-9.3810121915
-9.34774526113
-9.21275179756
-9.17910222652
-9.12995512796
-9.142690807
-9.19838830184
-9.33835680558
-9.5833223825
-9.95865113114
-10.4791166095
-11.1378340742
-11.8603683538
-12.4159957273
-12.4004700297
-11.4851119833
-10.1597425324
-9.88561282142
-9.73952445964
-9.74595424219
-9.63223066144
-9.61464952446
-9.56727606021
-9.5757679697
-9.61778531861
-9.7309310127
-9.92889442023
-10.2316251992
-10.639556481
-11.1285789572
-11.6115608617
-11.8916547462
-11.7108901479
-10.9437735423
-10.5095588478
-10.0992622027
-10.0129234466
-10.053904819
-9.96112341902
-9.96086664538
-9.91998295843
-9.93008583876
-9.96509150265
-10.0584532526
-10.2167157724
-10.4539837442
-10.7591538269
-11.0978732081
-11.3855950285
-11.4715285186
-11.2073710063
-10.5620537817
-10.7330648184
-10.2413804923
-10.2146211641
-10.2855915935
-10.2130849836
-10.2302757963
-10.1983655214
-10.2131647008
-10.2446999153
-10.3221399356
-10.4461220344
-10.624742601
-10.8392157501
-11.0518296099
-11.1893938655
-11.1459924614
-10.8444876135
-10.2944571722
-10.8627742102
-10.3398284374
-10.3588297549
-10.4593235619
-10.4048200287
-10.438779557
-10.4165216491
-10.436934217
-10.4660063421
-10.5290480874
-10.6216703857
-10.7475516168
-10.8841000265
-10.9949936805
-11.02230564
-10.8968812107
-10.5852114809
-10.1076918951
-10.9144272707
-10.4063195312
-10.4399881987
-10.5714458722
-10.532971551
-10.5843675014
-10.5724448962
-10.5986816954
-10.6255516629
-10.6755014352
-10.7405442111
-10.8209522562
-10.8927534605
-10.9244630753
-10.8741446769
-10.7002996685
-10.3923027207
-9.97369578588
-10.7533226148
-10.4480470525
-10.412295491
-10.5877199791
-10.5545269456
-10.6226363753
-10.6174077887
-10.6473474479
-10.6721292848
-10.7122885092
-10.7556530005
-10.8010859524
-10.8257208367
-10.8047780463
-10.7091120542
-10.513857366
-10.2203897739
-9.84822866481
-10.5279730221
-10.4505609716
-10.3409647225
-10.5505941829
-10.5176965126
-10.5979107808
-10.5987616036
-10.6321703311
-10.6538003772
-10.6829007344
-10.7069098341
-10.7230299244
-10.7110054715
-10.6519878459
-10.5269496673
-10.3235707677
-10.0482124293
-9.7191919045
-10.27429205
-10.4336202631
-10.2307407958
-10.4785863603
-10.4388935962
-10.5287218873
-10.5311527195
-10.5647703752
-10.5811399829
-10.5991294557
-10.6029322323
-10.5909614588
-10.5467721793
-10.4575040023
-10.3129555794
-10.1091102582
-9.85674412973
-9.57070598286
-9.97033325292
-10.4190374696
-10.1043992226
-10.3968724387
-10.345660359
-10.4450156894
-10.4479477591
-10.481393293
-10.4919666138
-10.4970726725
-10.4809302329
-10.4439540235
-10.372955595
-10.2611865246
-10.1051192302
-9.90643237644
-9.67757208287
-9.43058754076
-9.66644334834
-10.3892056463
-9.96258914421
-10.2974410791
-10.232262769
-10.3389460066
-10.3397058572
-10.370270427
-10.3728034139
-10.3654077063
-10.3326660465
-10.276367336
-10.18805919
-10.0648472953
-9.90719535147
-9.72053592114
-9.51661975618
-9.30535623781
-9.41710899128
-10.3419872587
-9.81727248773
-10.184690236
-10.1022668634
-10.2121823367
-10.2063097329
-10.2300517339
-10.2218650511
-10.2016482442
-10.1548381482
-10.0860973807
-9.98954162742
-9.86462640299
-9.71419446404
-9.54469676493
-9.36660219539
-9.18760782537
-9.15973304791
-10.2832335206
-9.67017162953
-10.0629749465
-9.96293311895
-10.072312409
-10.0574879254
-10.0720984311
-10.0519458696
-10.0195535331
-9.96195235686
-9.88576062469
-9.78685856561
-9.66609267114
-9.52716789083
-9.37650132176
-9.22293278963
-9.07231754564
-9.00650054268
-10.2044451066
-9.56120727664
-9.95522941053
-9.84032591179
-9.94241857153
-9.91664338734
-9.92104838124
-9.89012805382
-9.84859777159
-9.78464341811
-9.7061039245
-9.60992112016
-9.49746593125
-9.37231546594
-9.2402826915
-9.10858607382
-8.98200972519
-9.27431402803
-10.1270503817
-9.60212920748
-9.93604943833
-9.82386777624
-9.90772662377
-9.87139388743
-9.863760243
-9.82286207011
-9.77285646021
-9.70282647044
-9.62120998062
-9.52541097278
-9.41672614865
-9.29857353248
-9.17595849665
-9.05573399493
-8.94185480947
-9.48356333902
-10.0900584671
-9.66893271173
-9.95868012975
-9.85038409003
-9.9196797103
-9.87604306473
-9.86046975845
-9.8134216564
-9.75905985604
-9.6864306705
-9.60428272222
-9.50998277663
-9.4048579309
-9.29163899279
-9.17540687831
-9.06220464908
-8.95555281959
-9.64461579285
-10.0773530117
-9.73950061557
-9.99436099936
-9.89287837658
-9.95177300659
-9.90308741932
-9.88161441174
-9.83121234802
-9.77421528747
-9.70052646745
-9.61899601126
-9.52717530547
-9.42545604381
-9.31657674945
-9.2052561686
-9.09684706425
-8.99510259728
-9.87775595941
-10.078155241
-9.83127707601
-10.0508713666
-9.95539360477
-10.0037426824
-9.950602683
-9.92541406832
-9.87144230983
-9.81295620596
-9.73919442046
-9.65892475957
-9.56898880574
-9.47071042428
-9.36576368496
-9.25794714596
-9.1531997373
-9.05356651551
-10.1023253333
-10.0714098814
-9.93483206644
-10.1170667411
-10.0320109968
-10.0701045436
-10.0136397006
-9.98283833307
-9.92665747063
-9.86672971169
-9.79332636423
-9.71500895307
-9.62889296414
-9.53496402424
-9.43464234278
-9.33197987266
-9.23061488888
-9.13576729816
-10.3863925972
-10.1069660788
-10.0349690811
-10.1840192927
-10.1039834764
-10.1279637776
-10.0673501138
-10.0329272297
-9.97380081874
-9.91303204851
-9.83992194462
-9.76330278609
-9.6797904476
-9.58997358016
-9.49511594475
-9.39545995345
-9.29418359555
-9.18332596253
-9.9490602259
-9.85273193055
-10.2578382126
-10.310168645
-10.2607209531
-10.2738680549
-10.2182055135
-10.1846904304
-10.1289713105
-10.0718033996
-10.00611628
-9.9369742986
-9.8624636833
-9.78511772723
-9.70508922881
-9.62302472526
-9.54251619668
-9.49086175069
-13.0472615752
-10.7811717329
-10.0835915085
-10.2971566812
-10.1653454092
-10.1407595627
-10.0536337349
-9.98736084653
-9.90259119308
-9.81827318535
-9.72128055122
-9.62849209164
-9.53924614958
-9.45053077762
-9.36116147228
-9.26725731479
-9.15214571229
-8.96639284039
-0.828880349621
-7.60037245546
-11.2993334879
-10.5725517422
-10.722043621
-10.6960064018
-10.7035357971
-10.7244907811
-10.7332404154
-10.7420271571
-10.7483766471
-10.7448100899
-10.732396103
-10.7112324172
-10.6770250703
-10.6252330782
-10.5581907642
-10.4357914647
-32.1000407522
-10.9758596697
-10.7147047622
-10.7841094061
-10.4788229507
-10.412590908
-10.2364469592
-10.0877701941
-9.93317456793
-9.79476098197
-9.66816887087
-9.54237466562
-9.41657483018
-9.3142585191
-9.23372507611
-9.15587036087
-9.05666143538
-9.05050655834
-2.08074916864
-10.8345551346
-9.27174205085
-8.92160847443
-8.95934992759
-8.82547365273
-8.74713970772
-8.65139146291
-8.5202346899
-8.35825925185
-8.15549561457
-7.94896795122
-7.73187793049
-7.49088243331
-7.24380043992
-7.03790500885
-6.92594100453
-6.8555793587
-0.00404556371521
0.000993287587789
-0.0103567696063
-0.0171671639466
-0.0227884882686
-0.0322742550482
-0.0446430983221
-0.0572873583847
-0.067836956158
-0.0745596682118
-0.076332938725
-0.072535162689
-0.0629952024877
-0.0477727602954
-0.0271824025892
-0.0015829239514
0.0285204175522
0.0627009639949
0.100473927375
0.141475368566
0.185261473314
0.231588885227
0.280151608375
0.33076774395
0.383254112548
0.437516147319
0.493399795431
0.550819510372
0.609697973489
0.669938092921
0.731441245703
0.794122311788
0.857937442635
0.92276431567
0.988526177935
1.0551477368
1.12254669747
1.19062444813
1.25934104416
1.32859957272
1.39833305966
1.46840529822
1.53870650092
1.60904146025
1.67923861581
1.74905294849
1.8182586525
1.88658324085
1.95376289663
2.01954908985
2.08380236967
2.14638843527
2.20710024785
2.26555448758
2.32138650508
2.3741915012
2.42355504362
2.46894141731
2.50977319567
2.5446572095
2.57211911967
2.59267254039
2.60734575498
2.61623521876
2.61907606466
2.61539885753
2.60470608599
2.58653685484
2.5605936011
2.52678189699
2.4852209522
2.43618873677
2.380221632
2.31790400497
2.24987132581
2.17680856852
2.09940882573
2.01834743972
1.93434140229
1.84792306454
1.75955657094
1.66977183848
1.57906840679
1.48769893988
1.39598586534
1.30448143308
1.2137691954
1.12400960686
1.03503469798
0.949582296125
0.869027667847
0.79164487301
0.716055839594
0.64382260715
0.575563908678
0.507122766278
0.438272646223
0.378072126742
0.328916598293
0.282939047013
0.220705375559
0.144879579839
0.0960064673729
0.0855003739773
0.0843269827921
0.0444974116489
-0.0412773151054
-0.0901880090781
-0.140185765515
-0.175568040409
-0.202711143122
-0.223954716549
-0.241211052149
-0.255890257865
-0.268803388154
-0.280453556552
-0.291185280056
-0.301269712099
-0.310898993946
-0.32019463388
-0.329216178414
-0.338024454513
-0.346703968781
-0.355318979772
-0.363931200866
-0.372586221287
-0.381306201866
-0.390099519286
-0.398956421488
-0.407860749438
-0.416781559247
-0.425687941549
-0.434540661136
-0.443310679005
-0.451963495521
-0.460468380843
-0.468794566167
-0.476924215701
-0.484828169022
-0.492473789213
-0.49979185471
-0.506758733672
-0.513285703977
-0.51922469373
-0.524352200632
-0.528388594069
-0.53100083764
-0.531823430653
-0.530466247943
-0.526536060462
-0.519642757213
-0.509438858538
-0.495665593079
-0.478191150541
-0.457023072228
-0.432345155054
-0.4045124076
-0.374056091719
-0.341672996232
-0.308166263661
-0.274472405222
-0.241650585088
-0.210757051401
-0.182709161092
-0.158277110168
-0.137970599457
-0.122121775177
-0.111503944929
-0.106463764716
-0.10635424121
-0.110263648689
-0.11745130179
-0.126343271969
-0.135155825665
-0.144172728163
-0.145212085803
-0.132379402092
-0.104696938983
-0.0622281983543
-0.00500499409556
0.00624049459558
-0.00624577496745
-0.029993876294
-0.0524576804714
-0.0673373830486
-0.0744582448671
-0.0743377552363
-0.0673936190927
-0.0541436158328
-0.0351681889808
-0.0111036446982
0.0175121746401
0.0501502184527
0.0863730931426
0.125717415438
0.167798000366
0.212181555258
0.258521046018
0.30641618684
0.355580949643
0.40570157491
0.45654930801
0.507903761577
0.559680214679
0.61177773842
0.664182158519
0.716941304325
0.770138620978
0.823865341783
0.878214876656
0.933318858302
0.989272973779
1.04617384785
1.10409936319
1.16313070944
1.22329417296
1.28463680941
1.34716971176
1.41091623028
1.4758674234
1.542025262
1.60932650363
1.67770533892
1.74702299623
1.81711686391
1.88775682317
1.9586731521
2.0295544365
2.10004985682
2.1697013713
2.23791270755
2.3041551283
2.3681550904
2.42960872788
2.48814757843
2.54328557004
2.59449263196
2.64110646101
2.68224403942
2.71712712366
2.74468619043
2.7629955308
2.77122115394
2.77057114762
2.76216077445
2.74684248435
2.72516660433
2.69738341347
2.66351807972
2.62341392321
2.57689713382
2.52381053916
2.46410254181
2.39790280353
2.32552897915
2.24738711205
2.16410537355
2.07643120522
1.98517378453
1.89104618247
1.79477323794
1.69703361488
1.59853605158
1.49970294686
1.40094166326
1.3028457175
1.20602407692
1.11013801771
1.01599776046
0.925334764051
0.839650403599
0.757984532694
0.678858154626
0.606421929611
0.54181369365
0.476016837828
0.406089258252
0.336445015687
0.273931769788
0.217411995663
0.18916291802
0.158829983595
0.0476127163651
-0.0615941869957
-0.157533560908
-0.255787502804
-0.299971352265
-0.328109317902
-0.340724510669
-0.354018144315
-0.370228326842
-0.386056701196
-0.401806985246
-0.417498009558
-0.433284399905
-0.449273712516
-0.465571574466
-0.482278087644
-0.499451360791
-0.51706762421
-0.535078515121
-0.553467735499
-0.572272640531
-0.591536385113
-0.611291910375
-0.631541125337
-0.652271396024
-0.673455048269
-0.695064262924
-0.717062780357
-0.739418248291
-0.762095322691
-0.78507118938
-0.808331492785
-0.831876967585
-0.855712473087
-0.879860115757
-0.904343403539
-0.929190330785
-0.954404330608
-0.980029309927
-1.00618966639
-1.0330512357
-1.06079588242
-1.08962264455
-1.11977026667
-1.15153934499
-1.18528292012
-1.22137522308
-1.26016825778
-1.30194569197
-1.34687871996
-1.39496804673
-1.44596910113
-1.49932020202
-1.55410493992
-1.60907241688
-1.66268190259
-1.71320639155
-1.75885861762
-1.79775665115
-1.82808133328
-1.84851280404
-1.85837903444
-1.85770828879
-1.84723841497
-1.82777179915
-1.80084109791
-1.76932903954
-1.7365887329
-1.70500746241
-1.67544896182
-1.64803575409
-1.61644139209
-1.58586128362
-1.55640502915
-1.52161963727
-1.47890518059
-1.43219688278
-1.40278793272
-0.0591519047997
-0.0984213279572
-0.102744802722
-0.0989084043564
-0.0854852471377
-0.0629382841862
-0.033305435811
0.00145482450834
0.039818541878
0.0807657715881
0.123675282218
0.168208339875
0.214151239665
0.261416650272
0.309900617781
0.359550837149
0.410245656948
0.461897805883
0.51436492545
0.567546928754
0.621265230032
0.675442062711
0.729956622472
0.784735143089
0.839726674723
0.894946022315
0.950400668586
1.00614780598
1.0622696703
1.11885267115
1.17599472081
1.23378962525
1.2923458322
1.35171819925
1.41196992109
1.47313864002
1.53523179026
1.59821682598
1.66207033923
1.72670209461
1.79200948791
1.85782181073
1.92394493621
1.99011401964
2.05603735091
2.12136351295
2.18572898815
2.24876093705
2.31007993717
2.3692811184
2.42594650135
2.47955687376
2.52962684933
2.57586369493
2.61811992701
2.65638593343
2.69053169783
2.720568035
2.74686074051
2.77022398862
2.79085200005
2.80799265226
2.81935786425
2.82248350293
2.81584282362
2.79855169046
2.77023706623
2.73091775127
2.68094577618
2.62095019176
2.5517552411
2.47433349749
2.38982415352
2.2993658288
2.20409097266
2.10512998968
2.00355966223
1.90035537243
1.79640957022
1.69251043306
1.58927598401
1.48722313842
1.38684217305
1.28864780801
1.19282054101
1.0995103837
1.00914073737
0.922926711461
0.840996027497
0.765116156938
0.697359455851
0.63807382344
0.585532657492
0.534784783629
0.48200826443
0.441893760979
0.420407837788
0.41185485655
0.389413179653
0.29438569731
0.149064337594
0.00762295947536
-0.066914391716
-0.0961657338326
-0.107557641762
-0.141512100841
-0.195406478975
-0.263605319579
-0.322072144941
-0.372411904864
-0.417307354673
-0.456311439484
-0.491178395735
-0.522855647847
-0.552093360646
-0.5794288359
-0.605282901921
-0.629985834595
-0.653771225874
-0.676766786474
-0.699051694709
-0.720728534337
-0.741921662444
-0.762758382697
-0.783334793963
-0.803722447946
-0.823975733298
-0.844132874469
-0.864218693048
-0.884245538033
-0.904216818308
-0.924130535013
-0.943988028004
-0.963800400361
-0.983588788382
-1.00338505815
-1.02322313649
-1.04312971971
-1.0631031325
-1.08309295112
-1.10306041701
-1.12299803607
-1.14291345722
-1.1627674922
-1.18245858383
-1.20184803496
-1.22077415352
-1.23906175311
-1.25651931634
-1.27295120131
-1.28817368271
-1.30204355428
-1.31447215792
-1.32547934392
-1.33522666345
-1.34403446757
-1.35239708979
-1.36098886985
-1.37064687819
-1.38233339286
-1.39698433604
-1.41541230268
-1.43827448813
-1.46598738404
-1.498602369
-1.53576004485
-1.57629729899
-1.61860123342
-1.66099349445
-1.7012454783
-1.73645128255
-1.76301935467
-1.77761765921
-1.77511537617
-1.75433344934
-1.71606971017
-1.65800927603
-1.5818932028
-1.50006982388
-1.44034490589
-0.207128381714
-0.204575663761
-0.13365691086
-0.081865184915
-0.0396398864492
0.000963057883575
0.0420538553327
0.0837214065074
0.125639569255
0.167593439606
0.209441172957
0.251218694695
0.292974778499
0.334832172773
0.376855508068
0.41914714349
0.461728777716
0.504664852824
0.547919857178
0.591524248998
0.635456118659
0.679712638525
0.724254298351
0.769132246169
0.814343036833
0.859937447248
0.905995993237
0.952623701914
0.999930150858
1.04803850755
1.09709150438
1.14720593014
1.19848771039
1.25103406694
1.30491010366
1.36011928364
1.41666375147
1.47448180978
1.53347495997
1.59348492348
1.6543264642
1.71573627816
1.77742434678
1.8390344275
1.9001873816
1.96046613755
2.0194578558
2.07676712737
2.13204771329
2.18496895034
2.23525909505
2.28269090781
2.32700260781
2.36797355268
2.40547767229
2.43944463515
2.46969318155
2.49598937742
2.51802878252
2.53545543319
2.5489474218
2.55966038989
2.56712322683
2.5697405851
2.56559638147
2.55283453472
2.52985276543
2.49546848955
2.44901093028
2.39035106086
2.31992782254
2.2386888544
2.14795755404
2.04936721178
1.94471683358
1.83581613597
1.72445282684
1.61220130172
1.50045290304
1.39040336233
1.28299539695
1.17872461433
1.0782496834
0.982252809259
0.891172264169
0.80455682893
0.72429005482
0.651804881952
0.586694040771
0.529962767879
0.481948507803
0.435979753421
0.399373340457
0.379169172147
0.38841202315
0.416067909682
0.383102441677
0.282348879439
0.123675833826
-0.0458343249789
-0.175129422965
-0.227238317148
-0.222826195069
-0.205747065431
-0.203128812629
-0.24030136057
-0.311736879995
-0.400981803141
-0.484198220532
-0.554519271757
-0.613399658467
-0.662461169433
-0.70442864137
-0.741119911383
-0.773880065166
-0.803692021532
-0.831297600658
-0.857244883908
-0.881897389131
-0.905477954034
-0.928134060985
-0.950021967934
-0.971312089932
-0.992148394424
-1.01263190642
-1.03283639556
-1.05281616189
-1.07260819451
-1.0922335606
-1.11170018212
-1.131006158
-1.15014685268
-1.16912414391
-1.18795665964
-1.20668178805
-1.22535494555
-1.24402972621
-1.26274280341
-1.28147673649
-1.30017056094
-1.31877451181
-1.33730640354
-1.35582641171
-1.37437458156
-1.39295440485
-1.41155798254
-1.43018336004
-1.44884307375
-1.46755759813
-1.48635842128
-1.50528512993
-1.52438394736
-1.54368949749
-1.56322933814
-1.58301771598
-1.60304494393
-1.62326816994
-1.64360661846
-1.66394143641
-1.6841345377
-1.70400767847
-1.72335484485
-1.7420070069
-1.75988140736
-1.77697298428
-1.79336836498
-1.80907919282
-1.82397737608
-1.83841363447
-1.85262581904
-1.86621423079
-1.87798139955
-1.88609648977
-1.88834284594
-1.88252041061
-1.86979480455
-1.84724471428
-1.8148919135
-1.78122620399
-1.76123319876
-0.392615340236
-0.240419266078
-0.0738885601612
0.00129868243713
0.0447761529751
0.0822519788088
0.120102153068
0.159256765489
0.199231932097
0.23955532679
0.279846452034
0.319954620761
0.359758617752
0.399287399933
0.438522504593
0.477537974743
0.516328080972
0.554955899007
0.593428556004
0.631798296144
0.670036184025
0.708213812454
0.746340825625
0.784460688829
0.822631860408
0.860961991613
0.899535960981
0.938484454213
0.977953830276
1.01809665018
1.05906120042
1.10099473405
1.14404022232
1.1882835847
1.23380209916
1.28063813962
1.32878183056
1.37817522283
1.42874578393
1.4803520973
1.53282975514
1.58596026325
1.63950856392
1.69319896993
1.74674825887
1.79985093735
1.85222921094
1.90364948519
1.95391979109
2.00285430962
2.05024661211
2.09589460578
2.13960947798
2.18120294156
2.22052000635
2.25737538294
2.29135244898
2.32189254692
2.34805654386
2.36869826327
2.38312700399
2.39137544252
2.39335481727
2.38886261722
2.37720373956
2.35734469036
2.32809934016
2.28832342821
2.23713555928
2.17408496048
2.0992238615
2.01319686994
1.91722513284
1.81292865003
1.70212632964
1.58684541736
1.46914113935
1.35085244142
1.23346830901
1.11862176459
1.00749279491
0.901108464462
0.799668285016
0.705010163695
0.617690586197
0.536877204389
0.464741395915
0.401926924841
0.341490904658
0.290694923866
0.253595877128
0.232081836247
0.248673460464
0.264075744514
0.242138771856
0.141055130003
-0.0152389561327
-0.184244462136
-0.321088550492
-0.398721769315
-0.420698469962
-0.401099095127
-0.375102962734
-0.363953310832
-0.379904447262
-0.429683260394
-0.50229096472
-0.583391802285
-0.659229632747
-0.72510546432
-0.781032359389
-0.828060443937
-0.868201634641
-0.903081090221
-0.933980320902
-0.961891046484
-0.987566806175
-1.0115558671
-1.03421539756
-1.05575503178
-1.07633365009
-1.09611103434
-1.11526290675
-1.13392493613
-1.152189665
-1.17012686982
-1.18778609176
-1.20519986992
-1.22238327313
-1.23933934121
-1.25606202218
-1.27254765557
-1.28880364544
-1.30486248816
-1.32078462301
-1.3366495378
-1.35253464557
-1.36847499882
-1.38443430482
-1.40032454126
-1.41607223136
-1.43168823048
-1.44722529193
-1.46271932341
-1.47817212069
-1.49357166142
-1.50890919706
-1.52418278523
-1.53939475585
-1.55455253945
-1.5696700889
-1.58476690154
-1.59986379512
-1.61498632899
-1.63016435845
-1.64542914072
-1.66081653129
-1.6763645354
-1.69211978496
-1.70814199351
-1.72448669166
-1.74118856912
-1.75829027595
-1.7758378723
-1.7938541343
-1.81230257105
-1.83098481227
-1.84948548367
-1.86755539048
-1.88482315379
-1.90041440832
-1.91288614982
-1.92052672388
-1.92157439828
-1.91539062581
-1.90271054408
-1.88341449609
-1.85963751471
-1.83972255384
-1.83658728575
-0.556378708517
-0.142319585871
0.0881083322793
0.125347675783
0.134193049069
0.149992154459
0.174648162121
0.205426791717
0.239739914589
0.276068900449
0.313352440436
0.351111760417
0.388974147403
0.426830005064
0.464534169106
0.502084507759
0.539405334881
0.576526519539
0.613382841549
0.650008957968
0.686385805429
0.722533970362
0.758449925371
0.794217082427
0.829865805754
0.865487756822
0.901198799987
0.937142953061
0.97346999203
1.01034652321
1.04794964228
1.08643039905
1.12592187002
1.1665410084
1.20835508214
1.25136568684
1.29555374803
1.34083176301
1.38706375289
1.43406252266
1.48161490022
1.52946337662
1.57734781454
1.62499258239
1.67213675283
1.71852778426
1.76395812999
1.80829745761
1.85149139027
1.89346431425
1.93409794868
1.97325820658
2.01078163645
2.04648322511
2.08015451853
2.11150693043
2.13987202769
2.16458309249
2.18510150287
2.20085552222
2.2113101453
2.2165879638
2.21590891368
2.20840255064
2.19308321638
2.16887906221
2.13466979818
2.08942885871
2.03240266662
1.96322861134
1.8820863786
1.78968914892
1.68738492789
1.57700637867
1.46050220607
1.33986006435
1.21740941877
1.09502375735
0.974634236513
0.857259449245
0.745306318342
0.639953900532
0.540853155003
0.449356725161
0.367134175891
0.290197004854
0.221541585494
0.164633998068
0.113933901193
0.0927418554741
0.090267625098
0.0847352807573
0.0430000258035
-0.0414706292859
-0.166081037871
-0.310874146537
-0.43933907681
-0.535567765983
-0.586258329459
-0.594923224226
-0.578661447609
-0.555657729051
-0.543502497273
-0.549469443859
-0.578226764134
-0.629377688151
-0.693756758992
-0.761886972942
-0.826368116331
-0.884363604238
-0.935239845772
-0.979266686444
-1.01750196621
-1.05103456496
-1.08084756316
-1.10777698593
-1.13249123799
-1.15547698672
-1.17706294637
-1.19745261838
-1.21681188028
-1.23531911716
-1.25314301448
-1.27040967599
-1.28721049702
-1.30361592677
-1.3196768099
-1.33542542035
-1.35087651964
-1.36603177748
-1.38088650976
-1.39543990041
-1.4097086541
-1.42373938342
-1.4376131984
-1.45142999852
-1.46528072163
-1.47919362231
-1.49311678683
-1.50694049631
-1.52058657239
-1.53405815981
-1.54740043271
-1.56064560262
-1.57379811908
-1.58685236943
-1.59980672448
-1.61266533687
-1.62543622446
-1.63813070086
-1.65076598418
-1.66336449673
-1.67595357733
-1.68856703064
-1.70124212636
-1.71401798224
-1.72693544511
-1.74003540662
-1.75335978264
-1.76695661784
-1.78086156461
-1.79509133074
-1.80966468493
-1.8246019836
-1.83990214329
-1.85551644045
-1.87127685059
-1.88685893351
-1.90202240515
-1.91641001974
-1.92925303553
-1.93931324115
-1.94519534686
-1.94553840663
-1.93977895945
-1.92855379008
-1.91235021116
-1.89395529
-1.88087244698
-1.88354586877
-0.651510644069
0.103486193281
0.315304713919
0.250836756986
0.212789310522
0.206317935167
0.217630060858
0.238365102167
0.264005975595
0.292582664165
0.322812661344
0.354176863237
0.38618334277
0.418688969531
0.451456574029
0.484449329694
0.517516090122
0.550653601988
0.5837674802
0.616842440529
0.649794390065
0.682659784167
0.715405085798
0.748049651018
0.780620136225
0.813194948505
0.845837284255
0.878662739216
0.911798051707
0.945383093091
0.979551453383
1.0144372005
1.05015775932
1.08677365841
1.1243242673
1.16280151104
1.2021347791
1.24220515708
1.28286627555
1.32392035194
1.36515573821
1.40634636715
1.44728545262
1.4877873659
1.52770816857
1.56693489382
1.60541552497
1.64317751341
1.68033206734
1.716964215
1.75303821105
1.78840680638
1.82279657975
1.85581115988
1.8869601087
1.91565227472
1.94083332539
1.9616162427
1.97731409725
1.9872518896
1.99137788872
1.99085175961
1.98541026712
1.97443077959
1.95684162349
1.93123949865
1.89602854896
1.84966204173
1.79093944667
1.71936848159
1.6350712949
1.53879626642
1.43217867862
1.31750963484
1.19710996838
1.07334218325
0.948241814617
0.824916930234
0.705141899567
0.589483053532
0.479514508425
0.378498779926
0.283707357874
0.195723438719
0.119649215897
0.0496361323051
-0.00381150447789
-0.0362549232066
-0.0621061215722
-0.0939800901747
-0.142107325697
-0.217766701277
-0.321093681196
-0.434690953635
-0.548389687742
-0.643435997696
-0.707305411411
-0.741997231839
-0.750472210485
-0.742783700232
-0.730963160614
-0.723883300735
-0.727594421162
-0.744704293915
-0.777266846652
-0.823742470576
-0.8783009386
-0.935134372296
-0.989923875879
-1.04060617425
-1.08631479038
-1.12687484017
-1.16271558977
-1.19447074795
-1.22283952213
-1.24847375809
-1.27192969579
-1.29363141039
-1.31387046539
-1.33286085463
-1.35077898085
-1.36781199242
-1.38411740828
-1.39981146967
-1.41498351084
-1.42970333226
-1.44402298474
-1.45797446698
-1.47157310224
-1.48482038621
-1.49771412188
-1.51025769034
-1.52247695982
-1.53443207092
-1.54621856224
-1.55795352568
-1.56972821149
-1.58156574092
-1.59339690368
-1.60510685742
-1.61662016522
-1.62793492762
-1.63908713303
-1.65010022939
-1.66097811309
-1.67171990827
-1.68233049498
-1.69282079638
-1.70320422831
-1.71349689087
-1.72371958179
-1.73389864475
-1.74406680143
-1.75426349378
-1.76453168588
-1.7749156504
-1.78545964772
-1.79620644853
-1.80719658551
-1.81847315536
-1.83006335187
-1.84197663597
-1.8542170521
-1.86678711323
-1.87966572779
-1.89279173789
-1.90600470875
-1.91901792955
-1.93158348886
-1.94334380047
-1.9536136694
-1.96135131687
-1.9654173697
-1.96479260368
-1.95903290176
-1.94884347335
-1.93511058106
-1.92088941223
-1.9126163974
-1.91834527385
-0.649301026989
0.463070081942
0.550143931244
0.354828607035
0.288830285962
0.269159214254
0.268561345313
0.276995828184
0.290389169967
0.307365758426
0.326692915434
0.348003129537
0.370699840823
0.394652587848
0.419517709711
0.445240316808
0.471596088998
0.498575441094
0.525992123767
0.553823793096
0.581988876062
0.610483517224
0.639238483111
0.668263940287
0.697510501793
0.727001692461
0.756764391066
0.786860294757
0.81734849196
0.84830945502
0.879822816469
0.911948069604
0.944725189827
0.978176133275
1.01227290796
1.04693790062
1.08206860136
1.11751373478
1.15309190704
1.18860622473
1.22386307951
1.25868309047
1.29293577884
1.32655000438
1.35953592323
1.39196223138
1.42394901571
1.45568055986
1.48742312265
1.51938860956
1.55154150641
1.5835776598
1.61477939261
1.64413846799
1.67061332623
1.69314476196
1.71030952521
1.72114621728
1.72527565551
1.72264968056
1.71541347803
1.70557747755
1.69363264798
1.67923631027
1.66110150664
1.63716560993
1.60484509499
1.56139932544
1.50470249812
1.4338691012
1.34913399172
1.25150037476
1.14266597474
1.0260319898
0.905118828288
0.781753165651
0.657975583267
0.536495250489
0.420995580203
0.310419266498
0.204639202885
0.110728867913
0.0233221161233
-0.0578847805621
-0.119077880204
-0.166514277507
-0.206538643639
-0.251929712752
-0.312510814613
-0.387734479071
-0.474012476127
-0.570826343752
-0.666036756917
-0.748264561077
-0.814694473276
-0.860516431229
-0.886570928768
-0.898130662931
-0.899599961277
-0.897405769601
-0.897177284386
-0.902178595446
-0.914661528886
-0.936157479233
-0.96780185981
-1.00836312693
-1.0543620901
-1.10218366478
-1.14903062273
-1.19325849921
-1.23396855147
-1.270787093
-1.30379223791
-1.33331534259
-1.35982292906
-1.3838022248
-1.40568603485
-1.4258312633
-1.44450234044
-1.46191088794
-1.4782520933
-1.49370308983
-1.50840366083
-1.52245946255
-1.53595565895
-1.54896026892
-1.56152432303
-1.5736795253
-1.58544097982
-1.59681132687
-1.60779023982
-1.61838644211
-1.62863396729
-1.63860431759
-1.64840516743
-1.65815995137
-1.66795716503
-1.67780909142
-1.68763964039
-1.6973394637
-1.70683898884
-1.71613250996
-1.72524308064
-1.73418298359
-1.74295288033
-1.75155302564
-1.75999349873
-1.76829023171
-1.77646234556
-1.7845299976
-1.79251775113
-1.80045486084
-1.80837798711
-1.81632942175
-1.82435570372
-1.83250305035
-1.84081753244
-1.84934092531