/*--------------------------------*- C++ -*----------------------------------*\
| =========                 |                                                 |
| \\      /  F ield         | OpenFOAM: The Open Source CFD Toolbox           |
|  \\    /   O peration     | Version:  v1806                                 |
|   \\  /    A nd           | Web:      www.OpenFOAM.com                      |
|    \\/     M anipulation  |                                                 |
\*---------------------------------------------------------------------------*/
FoamFile
{
    version     2.0;
    format      ascii;
    class       volScalarField;
    location    "27";
    object      alpha;
}
// * * * * * * * * * * * * * * * * * * * * * * * * * * * * * * * * * * * * * //

dimensions      [0 0 -1 0 0 0 0];


internalField   nonuniform List<scalar> 
12225
(
0.391692740089
0.328760251294
0.349014005773
0.348738935504
0.360466880597
0.364655305882
0.370488693759
0.374416155654
0.376470258707
0.375487277961
0.370035780625
0.361491152354
0.354620099431
0.34305445009
0.320134179562
0.290042371727
0.250946302244
0.218296181545
0.221997178134
0.281131925822
0.312506054402
0.307974038226
0.316777720006
0.319037113187
0.322605866669
0.324774826289
0.325901058361
0.325322341018
0.321727301242
0.315369593597
0.308757140923
0.299041781054
0.281771146053
0.259256896205
0.234382369751
0.231786643551
0.372110492013
0.298772894713
0.317267263016
0.315350348776
0.324884695077
0.328086165747
0.33245265296
0.335336503031
0.337274327938
0.337772025612
0.336164105247
0.332338507683
0.326800889896
0.317978085168
0.303496047607
0.285154117442
0.268044896721
0.272595814349
0.304953972609
0.287331970102
0.312914723369
0.307272343721
0.315778420756
0.317418357271
0.3204601104
0.322238918971
0.323386476102
0.323503143447
0.322283447059
0.319578787576
0.315267060433
0.308422491049
0.298098713345
0.286239278514
0.278444289167
0.287646726666
0.339966930489
0.287494560882
0.311804908143
0.304958256623
0.312681354423
0.3133969124
0.315573804678
0.31645924508
0.316693879863
0.31596692788
0.314160616519
0.311199799213
0.306874200395
0.300740986794
0.292813012923
0.285284491943
0.283082215443
0.293196437533
0.32577188234
0.283860048682
0.30854588541
0.300441116103
0.307588679828
0.307603920099
0.309246785692
0.309648039775
0.30946449618
0.308443584957
0.306546248165
0.303742547983
0.299881619562
0.294847733111
0.289177733379
0.285035583743
0.286096860428
0.295681945167
0.329707814477
0.282531686533
0.306097060316
0.297141741303
0.303624989011
0.302998333686
0.304130726108
0.304095075277
0.303567197991
0.302344247217
0.300436481411
0.297855448509
0.294570776371
0.290694052904
0.286999999035
0.285365232831
0.288245259406
0.297002085706
0.327334805176
0.281075166779
0.303953138044
0.294269038174
0.300206896232
0.299064631539
0.299815381712
0.299476111056
0.298766020564
0.297500036003
0.295710664344
0.293449759013
0.290803693241
0.288032062602
0.285973472215
0.286103364613
0.28994696533
0.297858333052
0.326422574626
0.280344774487
0.302207414948
0.292032047665
0.297446712489
0.295865809785
0.296299459165
0.295750755382
0.294971134298
0.293768718856
0.292185491796
0.290319687658
0.288344193139
0.286596207963
0.285845544092
0.287196970922
0.291503618484
0.298694549864
0.325540720809
0.280024533057
0.30101095448
0.290475260436
0.29545325165
0.293512718076
0.293715060941
0.293047024391
0.29226713452
0.291175935725
0.289847862406
0.2884268378
0.28713448873
0.286310661279
0.286594184932
0.2887622432
0.293243884464
0.299763863377
0.325579242071
0.279956164245
0.300639045656
0.289778910957
0.294505944214
0.292361972659
0.292487702619
0.291799867058
0.291077150343
0.290147128523
0.289118666968
0.28813975286
0.287434980809
0.287304901597
0.288253181458
0.290800024036
0.295114436988
0.300893842679
0.329469059
0.280076279439
0.302073563888
0.290657777469
0.295443832797
0.293209167789
0.293321452392
0.292639493985
0.292015360575
0.291247814574
0.290389159008
0.289607634976
0.289139138669
0.289271302511
0.29039023807
0.29285169056
0.296725237219
0.301714914839
0.332669749887
0.280738452669
0.303521775462
0.291713168739
0.296328487546
0.293930910212
0.293949001893
0.293196921865
0.292490962233
0.291650988151
0.290786528501
0.290070751151
0.289773078396
0.290102660529
0.291375536101
0.293803407536
0.297357873511
0.301777859081
0.336574105875
0.28156554065
0.305177963546
0.292852874935
0.297263487342
0.294525596313
0.294249912363
0.293288418095
0.292480374423
0.291642680204
0.29089128716
0.290413880202
0.290444925088
0.291130040889
0.292636533646
0.295091012876
0.298354999869
0.302281507788
0.341674857731
0.282472202882
0.30726429667
0.29423856982
0.298440151605
0.295299786329
0.294690525127
0.293480772698
0.292553136539
0.291758169227
0.291178106425
0.291009500754
0.291426134978
0.292451360989
0.294167227595
0.296599962862
0.299596677251
0.303017983113
0.347056781082
0.28344222608
0.309653947719
0.295933953229
0.30003132044
0.296545748816
0.29569077884
0.294300565363
0.293325803042
0.292583620269
0.292198441949
0.292282559992
0.292992681663
0.294227860109
0.296030746759
0.298351766783
0.301057888574
0.304052288441
0.351946646595
0.284331121469
0.312088195525
0.297803059383
0.30194379746
0.298254575947
0.297301341284
0.295860053888
0.294916905317
0.294293452806
0.294057132509
0.294330534611
0.295194264601
0.296519418873
0.298278588695
0.300442138292
0.302844417256
0.305488367149
0.356588088562
0.285017489539
0.314420375141
0.299674117389
0.303999383854
0.300249105748
0.299340450044
0.297943587645
0.297092468814
0.296587261026
0.296476898621
0.296865381001
0.297799162211
0.299117584559
0.300781245307
0.302764711201
0.304907550189
0.307243798491
0.359120316281
0.285105170798
0.315670871653
0.300747103345
0.305366097287
0.301760816092
0.301077544105
0.299884299967
0.29924634614
0.298943023591
0.299008089141
0.299523632695
0.300522224358
0.30182851362
0.303409522211
0.305251432235
0.307205024842
0.309312989533
0.353966401232
0.284516355483
0.314124864201
0.300039941763
0.305124526825
0.302175234729
0.302116651025
0.301561639332
0.301498185796
0.301705522151
0.30218758894
0.303009827507
0.304208727883
0.305622261141
0.307222105001
0.309004185769
0.310834251602
0.312745903493
0.349273490096
0.283366123713
0.312287114342
0.298820438524
0.304267986164
0.301840894555
0.302276599057
0.302184281745
0.302561394986
0.303132017248
0.303907918204
0.304930929645
0.306270226017
0.30774045732
0.309351501641
0.311080360499
0.312835302248
0.314622783521
0.347623776224
0.282581144387
0.310445330374
0.297496628077
0.303211229488
0.301244052438
0.302080681131
0.302390895313
0.303110576375
0.303970389412
0.304980662331
0.306161693329
0.307595630927
0.309119367252
0.310730674962
0.312430490486
0.314121123657
0.315848027772
0.339526507065
0.280816517232
0.308728599955
0.296279434748
0.302284656353
0.30074949186
0.301968596714
0.302640098838
0.303674696163
0.304811216783
0.306018444478
0.307358593713
0.308895494156
0.310487181302
0.312109014576
0.313809543692
0.315469379965
0.317132420844
0.346425056098
0.280406187637
0.306561719649
0.294640572777
0.300911533786
0.299825259205
0.301416226051
0.302456725884
0.303796751007
0.305182439073
0.306602978972
0.308098185949
0.309752135643
0.31141806268
0.313113378171
0.314849141231
0.316539760421
0.318197362073
0.319734052216
0.278162732088
0.304988059201
0.293892509008
0.300364744216
0.299699217659
0.301616237615
0.302933134818
0.304510806542
0.306093307512
0.307667779785
0.309253907173
0.310968223993
0.31266942866
0.31436646127
0.316114776025
0.317835456974
0.319512520321
0.362130092026
0.277992873679
0.302027501441
0.291245186047
0.297987999167
0.297695521295
0.299875032833
0.301475735819
0.303302964904
0.305128477244
0.306909490464
0.308672506771
0.310525438484
0.312363309532
0.314188212932
0.31603547409
0.31783041408
0.319440325658
0.269106871067
0.275101869335
0.299545203971
0.290944125707
0.297547848885
0.297847549472
0.300337194006
0.302254152078
0.304363775957
0.306469479349
0.308544656146
0.310460051852
0.31239009962
0.314296901164
0.316131742154
0.317986581436
0.319858520652
0.32189937015
0.412552295974
0.27913140978
0.291995488573
0.28497226948
0.291571314421
0.291997949025
0.294400632194
0.296153386055
0.298040509969
0.299915565699
0.301648542702
0.30326497658
0.304951501882
0.306626675172
0.308282587748
0.310065208523
0.311947504196
0.313467314519
0.152053392587
0.260703200682
0.284699504422
0.278657265174
0.284793828401
0.285863521557
0.28879959321
0.29144673054
0.294457922722
0.297713529643
0.301103432917
0.304280660658
0.307500280125
0.310853612937
0.314258324976
0.31772886219
0.321312959595
0.324787390365
0.329275334053
0.296682927252
0.301424240879
0.299784725383
0.307310097722
0.308283128208
0.310851617006
0.312838263267
0.314856299575
0.316628995537
0.318059540744
0.319395140667
0.320791483481
0.321868521218
0.322630346426
0.323269298869
0.323594087952
0.324337890091
0.476040509465
0.476400412167
0.476586517172
0.476568371185
0.47635451861
0.475979254322
0.475545309328
0.475086140201
0.474628340598
0.474190378427
0.473784219219
0.473416808076
0.473091442788
0.47280898725
0.472568581727
0.472368208124
0.472205261266
0.472076423768
0.471978634857
0.471908972402
0.47186421863
0.471842252546
0.471839896697
0.471856547394
0.47189042684
0.471942078629
0.472010002321
0.472094602322
0.47219538783
0.472313293707
0.472448196536
0.472600727132
0.472770613112
0.472958735408
0.473164977692
0.473389276968
0.473630554029
0.47388959088
0.474165241302
0.474457469621
0.474764904485
0.475086803202
0.475421462835
0.47576723563
0.476121976651
0.476483143075
0.476848119571
0.477213772555
0.477576831261
0.477934331055
0.478283406752
0.478622665071
0.478948968001
0.4792580859
0.479544654167
0.479803542316
0.480029357435
0.480216705725
0.480360070293
0.480454192402
0.480495004178
0.480481290098
0.480412102864
0.480284458469
0.480097405744
0.47985405233
0.479556463388
0.479206750731
0.478808219659
0.478363645
0.477877282767
0.477352985926
0.4767955044
0.47620905555
0.47559828726
0.47496716439
0.474319634521
0.473660232234
0.472992737181
0.472319769739
0.47164336186
0.470966793888
0.470292106377
0.469621990314
0.468955670221
0.468295802636
0.467642478944
0.466989431595
0.466340395501
0.465691817642
0.465042942265
0.464393594684
0.463741618904
0.463113366354
0.462523362077
0.461933784073
0.461313002808
0.460675762753
0.460023947199
0.459363528597
0.458589150389
0.457721988517
0.457581167774
0.457535067116
0.45731928889
0.456880105131
0.456250891418
0.455906548281
0.455503735331
0.455140779691
0.454843861649
0.454587926672
0.454367801246
0.454161864822
0.453977241209
0.453805465924
0.453644479815
0.453489930092
0.453341240292
0.453199698043
0.453068271221
0.452948323649
0.452838594287
0.452737950851
0.452643622431
0.452554384227
0.452469495355
0.452388471919
0.45231095618
0.452236558426
0.452164919396
0.452095831829
0.452029119046
0.451964763439
0.451902703458
0.45184302416
0.451785740356
0.451730516881
0.451677819536
0.451627783396
0.451582126219
0.451539432586
0.451500509643
0.451466872982
0.451440223506
0.451422374809
0.451414441825
0.451417232557
0.45143145334
0.451457652831
0.45149692243
0.451550787111
0.451620966939
0.451709093523
0.451816935592
0.451946307663
0.452099256956
0.452278021172
0.452485556513
0.452725450938
0.45300303793
0.453323997627
0.453696349289
0.45413133856
0.454644327528
0.455252188046
0.4559757733
0.456831630727
0.457832996265
0.459002618468
0.460353470441
0.461882212742
0.463571392668
0.465379143658
0.467245498761
0.469226436072
0.471271483593
0.473302979523
0.475212081395
0.476696949445
0.476142475263
0.476375653917
0.476274426325
0.475987882308
0.475639917468
0.475283891977
0.474941245681
0.474622254864
0.474331422601
0.474070905919
0.473841008704
0.4736423132
0.47347390866
0.473335393609
0.473225380108
0.473142763054
0.473085721067
0.473052471241
0.473040561023
0.473048521431
0.473073838741
0.473115105022
0.473170007576
0.473238365339
0.473318806992
0.473412189492
0.473517674413
0.473636106488
0.473767705315
0.473913786816
0.474074529626
0.474250920544
0.474443548507
0.474653601206
0.474880747259
0.475125700822
0.475388157134
0.475668405256
0.475965936738
0.476280896345
0.476612308108
0.476959416767
0.477320738127
0.477694538846
0.478078561485
0.478470043566
0.478865606818
0.479261631916
0.479653472457
0.480035942559
0.48040144069
0.480744913636
0.481063455266
0.481354084024
0.481612896356
0.481836013944
0.482019621941
0.482158000807
0.482245207748
0.482279139427
0.482258330703
0.48218052595
0.482046114438
0.481859094898
0.481618437893
0.481321533469
0.480968207947
0.480558816446
0.480094308669
0.479575717507
0.479004970825
0.478384193876
0.477716712445
0.477006089362
0.476256430786
0.475472394595
0.474659093948
0.473821857686
0.472966203368
0.472096160475
0.471214831414
0.470326052551
0.469433990188
0.468540496436
0.467643900456
0.466749460014
0.465863852832
0.464977486334
0.464069553976
0.463158409732
0.462274632674
0.461384984697
0.460449839663
0.459499667804
0.458619557961
0.457814781817
0.456977238575
0.456288916275
0.455606990304
0.454893146713
0.454207187105
0.453390948744
0.452786535903
0.452135017288
0.451534308685
0.450955632302
0.450611400044
0.450346923906
0.450111146304
0.449866959199
0.449619365355
0.449363051794
0.449100871201
0.448836337655
0.448577861141
0.448321021018
0.448066105913
0.447811148478
0.447555909515
0.447303334816
0.447057084666
0.446819020584
0.446589228764
0.446366063039
0.446147652761
0.445933059016
0.445721567268
0.445512724961
0.445306031375
0.445101295824
0.444898426014
0.444697390831
0.444498046552
0.444300262412
0.444103637962
0.443907798261
0.443712116266
0.443515813216
0.443318165729
0.443119433819
0.442919776359
0.442717911959
0.44251343119
0.442306629227
0.442098386845
0.441889139591
0.44167849471
0.441465467544
0.441248838278
0.441027593934
0.440800623033
0.440566717924
0.440324664717
0.440073772345
0.439814174811
0.43954669763
0.439273323116
0.438996653503
0.438720266487
0.438447441667
0.438183168529
0.437932986634
0.437702289939
0.437495119106
0.437315159673
0.437165383827
0.437042265739
0.43695355352
0.436898471558
0.436875372548
0.436885903358
0.436937027032
0.43703828155
0.437191857194
0.437466749562
0.437772001805
0.438131875183
0.438537267865
0.43894598568
0.439375142674
0.475773675835
0.475848888576
0.475814210361
0.475699187337
0.475577629283
0.475477672612
0.475390133433
0.475308541883
0.47522916774
0.475151875916
0.47507721682
0.475006790383
0.47494223954
0.474885465486
0.474837874027
0.474800694025
0.47477443358
0.474759433588
0.474755303451
0.474761605319
0.47477744397
0.474802813899
0.47483618915
0.474877951706
0.474927742779
0.47498632463
0.475053537413
0.475130661284
0.475218160388
0.475317405632
0.475428993302
0.475554389768
0.475693979283
0.475848804793
0.476019210291
0.476205725458
0.476407898515
0.476626306541
0.476860387709
0.477109871558
0.477373838358
0.477651276464
0.477940609881
0.47823994745
0.478546923215
0.47885880568
0.479172293226
0.479483783467
0.479789224167
0.480084266452
0.48036273248
0.480618204542
0.480843765723
0.481034891464
0.481188065973
0.481300465205
0.481369743725
0.481395967178
0.481380015452
0.481320372964
0.48121436459
0.481059828485
0.480851377176
0.480585266095
0.480263255039
0.47988459973
0.479448173953
0.478953894866
0.47840336421
0.477799087204
0.477144869517
0.47644521553
0.475705268179
0.474930441701
0.474126224186
0.473298080654
0.472451249503
0.47159092938
0.470721996018
0.469849130771
0.468974433755
0.468100808063
0.467232639256
0.466372679388
0.465517093373
0.464664227681
0.463828216035
0.463011847677
0.462191190269
0.461356357707
0.460540890528
0.459772276192
0.458975251645
0.458173644797
0.457403074458
0.456662277906
0.45597798636
0.455448178358
0.454844920936
0.454054255047
0.453194982925
0.452580243927
0.452251403148
0.451909310043
0.45171913237
0.451480612304
0.451087492182
0.45052310189
0.449984206919
0.449514957779
0.449080292601
0.448677325074
0.448304874912
0.447960066338
0.447638561489
0.447332474669
0.447038542786
0.446753375476
0.446475754423
0.446207472652
0.445950544273
0.445705424562
0.445470739988
0.445244294496
0.445024982225
0.444812066102
0.444605049226
0.444403528442
0.444207155809
0.4440154332
0.443827663476
0.443643138558
0.443461389637
0.44328211797
0.443105070078
0.442929928198
0.442756136768
0.442583320104
0.442411324601
0.442241255774
0.442073162832
0.441906029858
0.441738662431
0.441571400722
0.441405752129
0.441242883432
0.441083303463
0.440927011117
0.440774127225
0.440624812429
0.440479254714
0.440337436376
0.440199478967
0.440065355565
0.439934813135
0.439807333982
0.439682191577
0.439558231167
0.439434260515
0.43930857881
0.439179479704
0.439045253274
0.438904162101
0.438754314651
0.438594321068
0.438422552456
0.438236390617
0.438035444796
0.437822957088
0.437601976605
0.437377617236
0.43715983802
0.436960854911
0.436804767943
0.436717860648
0.436717138886
0.436821357527
0.437037237363
0.437319848403
0.437516538255
0.475305271579
0.475424168363
0.475685642515
0.475826321128
0.475903066163
0.475962708871
0.475999402374
0.476013492303
0.476007193305
0.475983583816
0.475945827404
0.475897840922
0.475842904023
0.475784511616
0.47572540508
0.475668096544
0.475614319513
0.475565455534
0.475522028417
0.475485063574
0.475454223074
0.475429828281
0.475411733766
0.475400592181
0.475396043769
0.475399495886
0.475411289579
0.475432747897
0.475464679099
0.475508740583
0.475565834115
0.47563730326
0.475724014502
0.475827325282
0.475947175863
0.476084494166
0.476239212188
0.476411455068
0.476600623535
0.476806422136
0.477027635523
0.477262978196
0.477510499557
0.477767875849
0.478032298208
0.478300506154
0.478568672778
0.478832904069
0.47908868723
0.479331176127
0.479555707493
0.479758718447
0.479934507325
0.480078223813
0.480185399111
0.480252290223
0.480275478634
0.480253322198
0.480187237248
0.480079952359
0.479932139648
0.479742719728
0.479509000152
0.479225627043
0.478886093319
0.478486393932
0.478024451534
0.477499174233
0.476910831154
0.476261301865
0.475553997222
0.474793990686
0.47398779531
0.473142343639
0.472265010701
0.471364091928
0.470446963856
0.469519244576
0.468588075151
0.467660208169
0.466737894021
0.465820452662
0.464915916902
0.464033537487
0.463165033074
0.462302512779
0.461460018492
0.460670721106
0.459888523668
0.459103031623
0.458348251814
0.457640877355
0.45696871712
0.456310829402
0.455698347863
0.455081535485
0.454401002775
0.453664666264
0.452825744264
0.452027872786
0.451465800473
0.45121288004
0.451030167484
0.450809008225
0.450620223929
0.450300373812
0.449774319367
0.449107319544
0.448459683039
0.447876562014
0.447351441542
0.446886095422
0.446473128663
0.446102499612
0.445764225238
0.445449205746
0.445152426626
0.444869742781
0.44459990101
0.444343745159
0.444102217529
0.443874292736
0.443657006893
0.443448119987
0.443246481952
0.443051400293
0.442862223059
0.442678296667
0.442498926592
0.442323451794
0.442150979888
0.441980933777
0.441813100913
0.441647162917
0.441482725969
0.441319096188
0.441155703644
0.440992398423
0.440829937123
0.440669588773
0.440511612681
0.440354333929
0.440195867153
0.440036260853
0.439876678227
0.439718075444
0.439560743416
0.439404552951
0.439249289905
0.43909471033
0.438940646347
0.438786921282
0.438633681437
0.438481063676
0.438329195227
0.438178221812
0.438028428817
0.437880334382
0.437734589919
0.437591892253
0.437452630311
0.43731722423
0.437185998155
0.437058652077
0.436934438399
0.436811877237
0.436687537576
0.43655922849
0.436425175713
0.436282564837
0.436129928986
0.435968858359
0.435802925856
0.435639759947
0.435497681215
0.435382362045
0.435303779865
0.435263630609
0.435210508819
0.43501489385
0.474763619115
0.475427725693
0.476082748074
0.476323138078
0.476408560398
0.476464483738
0.476497956032
0.476512105888
0.476506588793
0.476482813287
0.476441885055
0.476386270253
0.476318614993
0.476242253293
0.476159902224
0.476074472454
0.475987885872
0.475902337804
0.475818928325
0.475738741717
0.475662278876
0.475590733086
0.475523771157
0.475462573247
0.475407608249
0.475359934213
0.475320166973
0.47528999555
0.475270357073
0.475262902122
0.475268654042
0.475289364355
0.475325677702
0.475378753396
0.475449135783
0.47553753454
0.475643596521
0.475767827384
0.475909575478
0.476068381589
0.476243053397
0.47643231461
0.476634186124
0.476846428436
0.47706623295
0.477290565633
0.477515756167
0.477737963592
0.477953094089
0.478156488552
0.478341973688
0.478505204169
0.478640862763
0.478743825283
0.478810068157
0.478836121236
0.478818187201
0.478753763806
0.478642422669
0.478482743071
0.478273605642
0.47801447382
0.477705192472
0.477346689513
0.476938062759
0.47647677018
0.475960452429
0.475387420132
0.474757731251
0.474072550679
0.473334662384
0.472548381856
0.47172053683
0.470856884683
0.469964065147
0.46905060032
0.468125143738
0.467191092748
0.46625216329
0.465321099094
0.464404139788
0.463491168402
0.462588440739
0.461714101091
0.460856447195
0.46000117313
0.459168398934
0.45837760173
0.457637052925
0.456911988236
0.456185364666
0.455509038189
0.454844325374
0.454207775822
0.453545755061
0.452773138776
0.451940975542
0.451127954378
0.450419351837
0.449950908146
0.449737761349
0.449653087325
0.449505692839
0.449287160708
0.449020258338
0.448619793026
0.448086532039
0.447491967874
0.446911629823
0.446369721827
0.445879740646
0.445447288361
0.445065797954
0.444725739596
0.44441762494
0.444133413026
0.443867656026
0.443616314692
0.44337793534
0.443152674251
0.44294043687
0.442739034512
0.442545265512
0.442357271929
0.442174439941
0.441996604207
0.441823603154
0.441655179539
0.441490953755
0.441330528303
0.441173620974
0.441019933715
0.440869018071
0.440720465041
0.440573712796
0.440428111991
0.440283331277
0.440139756005
0.439998952305
0.439862231814
0.439729739082
0.439598937404
0.439467518614
0.43933509161
0.439202414082
0.439070364274
0.438939252983
0.438809064226
0.438679613197
0.43855066714
0.43842209052
0.438293769845
0.438165563955
0.438037376227
0.437909133202
0.437780891284
0.43765266702
0.437524447257
0.43739634089
0.437268480093
0.437140700011
0.437012836146
0.43688461431
0.436755356776
0.436624390632
0.436490580786
0.436351584607
0.436206355579
0.436054679671
0.435895444131
0.435729507617
0.435559762897
0.435389314522
0.435223784551
0.435073720294
0.43494023828
0.434818285913
0.434692535229
0.434501005224
0.434129736324
0.474274458087
0.476111612845
0.4769709187
0.476966353383
0.476861822844
0.476813551564
0.47679172151
0.476776620423
0.476754457445
0.476718922814
0.476667018416
0.476599975884
0.47651917957
0.476427727122
0.476327847083
0.476222494143
0.476113535265
0.47600317068
0.475892484647
0.475783387611
0.475676180921
0.475571951592
0.475471359801
0.475375482591
0.475284524789
0.475200214777
0.475123344034
0.475055492823
0.474997790597
0.474952045943
0.474919417365
0.474901397907
0.474898971833
0.474913507668
0.4749450782
0.47499455967
0.475061862328
0.475147016246
0.475249245174
0.475368048359
0.475501923072
0.4756494375
0.475808362519
0.475976339938
0.476150445003
0.476327657165
0.476504341023
0.476677068363
0.476841859442
0.476994188775
0.477128160642
0.477239539434
0.477322583175
0.477372096566
0.477383437236
0.477352502185
0.47727554314
0.477153266559
0.476987255389
0.47677849866
0.476527085016
0.476232913022
0.47589405702
0.475508673205
0.475071794341
0.474579900291
0.474029434392
0.473418220574
0.472746632803
0.472017624764
0.471233694464
0.470400777118
0.469527882986
0.468623624779
0.467692096679
0.466743136635
0.465790460915
0.46483954864
0.463886604939
0.462940953144
0.462027036514
0.461109486047
0.460204742871
0.459325958194
0.458484237831
0.457683489658
0.456901142089
0.45614319456
0.455409253542
0.454681057354
0.45400018667
0.453322636367
0.452573076937
0.451810914166
0.451029994925
0.450262992865
0.449576607106
0.449014807486
0.448601937287
0.448371638573
0.448257427737
0.448135369161
0.44793397713
0.447674872134
0.447347930867
0.446921923841
0.4464270378
0.44590908072
0.445400812707
0.44491861074
0.444477473632
0.444081995724
0.443727981538
0.443408716135
0.443117167895
0.442847218232
0.442594230594
0.442355263461
0.442129394963
0.441917061525
0.441717938768
0.441529611684
0.441349468094
0.441176095808
0.441009134627
0.440848531799
0.440694171586
0.440545738154
0.440402732377
0.440264523313
0.440130383438
0.439999382251
0.439870766308
0.439743893777
0.439618041282
0.439492471037
0.439366967695
0.439242561563
0.439121134476
0.439004430717
0.438892165766
0.438781698034
0.438670743277
0.438558653526
0.438446020251
0.438333513264
0.438221464842
0.438109911828
0.437998753878
0.437888028231
0.437777685286
0.437667681502
0.437557952035
0.43744834557
0.437338772284
0.437229120163
0.437119326303
0.43700928993
0.436898991904
0.43678836088
0.436677094446
0.436564883438
0.436451231763
0.436335266705
0.436215960148
0.436091959436
0.435960983543
0.43582184436
0.435673983063
0.435516163828
0.435349372777
0.435176331823
0.434999431236
0.434822604819
0.434654578865
0.434495139571
0.434336086117
0.434155726095
0.433894324063
0.43346326418
0.474023732737
0.477522347787
0.478089540242
0.477505876474
0.477160832931
0.477010340129
0.476934854798
0.476881096256
0.476823464168
0.476754168413
0.47666928961
0.476570042275
0.476457433407
0.476334484861
0.476202905341
0.476065576931
0.475923890905
0.475780272001
0.475635649728
0.475491426077
0.475348337448
0.475207902633
0.475070111686
0.474936437617
0.474807591752
0.474684761171
0.474568783507
0.474461432792
0.474363729668
0.474277387288
0.474203485419
0.474143740083
0.474098828246
0.4740698387
0.474057286033
0.47406172686
0.474082759787
0.474120628651
0.474174428191
0.474243427639
0.474326089349
0.474420934416
0.474525739842
0.474638304058
0.474755917331
0.47487610586
0.474995756913
0.475112070838
0.475222135252
0.47532250029
0.475406579005
0.475470827263
0.47550889465
0.475513567569
0.475478463048
0.475397721172
0.475268118966
0.475092945616
0.474873985654
0.474613188077
0.474311597928
0.473971948953
0.473594542146
0.473176858497
0.472711678787
0.472195007239
0.471621314016
0.470986292857
0.470290301873
0.469537434794
0.468730826982
0.467873344467
0.466977786678
0.466058260708
0.465117762124
0.464162209847
0.463206611419
0.462256832447
0.461303331082
0.460363256218
0.459445253502
0.458563253611
0.457720571643
0.456890920842
0.456083610961
0.455309108944
0.45456808182
0.45385951623
0.453146154735
0.452403841854
0.451675546893
0.450928036373
0.450172160768
0.449453190751
0.448775052413
0.448183437937
0.447705654347
0.447346570571
0.447086473513
0.446911953081
0.446755946297
0.446561312153
0.446316780614
0.446029540905
0.445680720915
0.445267484678
0.444820133558
0.444365413078
0.443920889196
0.443498784154
0.443109300062
0.442754971084
0.442433651303
0.44214139696
0.441873783681
0.441626499926
0.441396154844
0.441180600739
0.440979275539
0.44079223862
0.44061836014
0.440454983558
0.440299399983
0.44015006012
0.440006295355
0.4398678117
0.439734320873
0.439605444799
0.439480671516
0.439359402059
0.439241052775
0.439125156212
0.439011342018
0.438899112062
0.438787766545
0.438676627755
0.438565747484
0.438456544196
0.438351114082
0.438251134886
0.438155829131
0.43806261
0.43796921242
0.437875000894
0.43778039282
0.437685839857
0.437591536005
0.437497391743
0.437403420574
0.437309574279
0.43721587035
0.437122262329
0.437028698102
0.436935129143
0.436841439711
0.436747480349
0.436653147459
0.43655832808
0.436462966886
0.436366894122
0.436269728509
0.436171043623
0.436070286808
0.435966428055
0.435858311364
0.43574455047
0.435623022282
0.435492509874
0.435352286825
0.435201034692
0.435039433429
0.434869764844
0.434693378646
0.434512266612
0.434332701303
0.434152932489
0.433963075655
0.433738011917
0.433423612137
0.432954339561
0.474140576557
0.479448610471
0.479094456383
0.477811074866
0.477329399498
0.477113106928
0.476982044964
0.476868438936
0.476750684659
0.476623670121
0.476483980364
0.476333897481
0.476173407065
0.476005380744
0.475830568634
0.475651578681
0.475469242598
0.475285630986
0.475101217012
0.474917888525
0.474735797787
0.474556262123
0.474379903381
0.474207773572
0.474040065832
0.473878444399
0.473723516307
0.473576706489
0.473438935169
0.473311796989
0.473196182789
0.473093347462
0.473004040328
0.472929306168
0.472869098842
0.472824039085
0.472793857251
0.472778356485
0.47277663365
0.472788021913
0.472810927163
0.472843983607
0.47288520093
0.472932759791
0.472984620576
0.47303910194
0.473094489783
0.473149383933
0.473202238334
0.473251309716
0.473291392691
0.473316445907
0.473318522649
0.473286117545
0.473207669175
0.473073029199
0.472881814012
0.47264082978
0.472354312292
0.472027474395
0.471667178065
0.471280974382
0.470873737642
0.470435200825
0.469957054636
0.469431562238
0.468851229443
0.468207505225
0.467497482487
0.466729657911
0.465911919442
0.465043756343
0.464135658698
0.463214178923
0.462264902979
0.46130188734
0.46034778036
0.459410398458
0.45850137976
0.457625543467
0.456761693686
0.455921502977
0.455116176949
0.454344232892
0.453607757155
0.45290067403
0.45219966112
0.451484095273
0.450750913922
0.450015753183
0.449310220599
0.448613631897
0.447963707771
0.44737373164
0.446845733644
0.4464017361
0.446046469979
0.445772623979
0.445553437263
0.445366956972
0.445171181681
0.444947821074
0.444693458136
0.444399649525
0.444055483053
0.443672225437
0.443273602573
0.442875727786
0.442489562698
0.442123295719
0.441782718375
0.441469241731
0.441181989292
0.440918850632
0.4406769934
0.440453277238
0.440245097967
0.440050815513
0.439869998898
0.439702452986
0.439546806079
0.43940063438
0.439261721039
0.439128790894
0.439001318014
0.438879128398
0.438762083423
0.438649949988
0.438542342181
0.438438753808
0.43833863369
0.438241452734
0.438146590663
0.438053301963
0.437960618752
0.437867820291
0.4377751959
0.437684381072
0.437597630863
0.437516255775
0.437439277821
0.437364259112
0.437289187738
0.43721350622
0.43713746564
0.437061386821
0.436985292512
0.436909129681
0.436832834303
0.436756401407
0.436679876989
0.436603239101
0.436526447679
0.43644940682
0.436371979727
0.436293984205
0.436215259318