/*--------------------------------*- C++ -*----------------------------------*\
| =========                 |                                                 |
| \\      /  F ield         | OpenFOAM: The Open Source CFD Toolbox           |
|  \\    /   O peration     | Version:  v1806                                 |
|   \\  /    A nd           | Web:      www.OpenFOAM.com                      |
|    \\/     M anipulation  |                                                 |
\*---------------------------------------------------------------------------*/
FoamFile
{
    version     2.0;
    format      ascii;
    class       surfaceScalarField;
    location    "27";
    object      phia;
}
// * * * * * * * * * * * * * * * * * * * * * * * * * * * * * * * * * * * * * //

dimensions      [0 3 -1 0 0 0 0];
oriented        oriented;


internalField   nonuniform List<scalar> 
24170
(
2.04590148742e-07
1.22717132056e-07
3.05488902681e-07
-9.28607228969e-08
2.91458039339e-07
2.09951875727e-08
3.05501671483e-07
-1.12063423508e-08
3.1473153486e-07
-5.47103485422e-09
3.25327132113e-07
-8.58689267e-09
3.37152664031e-07
-9.12188040588e-09
3.50055573624e-07
-1.13875327912e-08
3.65140445166e-07
-1.33247651872e-08
3.81924145266e-07
-1.56596785482e-08
4.00846423158e-07
-1.78286360039e-08
4.22882030747e-07
-2.13007105424e-08
4.53016896628e-07
-2.95565052067e-08
4.98844309118e-07
-4.54225229825e-08
5.59072377562e-07
-5.98018334962e-08
6.08410947717e-07
-4.86825549175e-08
6.68651216006e-07
-5.92794076237e-08
-5.67739640091e-07
1.23835751416e-06
8.57698654006e-07
-3.78491775428e-07
4.00760796096e-07
3.7465457084e-07
5.00903310581e-07
-7.18861302138e-08
4.98671307666e-07
-5.5326465282e-09
5.1739710729e-07
-2.09072051063e-08
5.30731501542e-07
-2.01119188002e-08
5.47744179347e-07
-2.43730402207e-08
5.65720930156e-07
-2.86449642356e-08
5.86221788022e-07
-3.33098044343e-08
6.08659645458e-07
-3.80971798924e-08
6.33375849475e-07
-4.27314767757e-08
6.61556659909e-07
-4.99429483701e-08
6.96272106261e-07
-6.49288432595e-08
7.38568808842e-07
-8.85306554956e-08
7.80170439081e-07
-1.02204483655e-07
8.15331818873e-07
-8.44886761304e-08
9.06945786892e-07
-1.51233122171e-07
-6.84923378835e-07
1.02393172152e-06
-1.60057545279e-07
1.5120233579e-07
4.88148455132e-07
-2.69503850204e-07
3.86572110374e-07
3.44161708556e-08
4.00966244292e-07
-1.7750234264e-08
4.00212955083e-07
-1.74502435582e-08
4.04972242679e-07
-2.32853255193e-08
4.09431732719e-07
-2.6870668839e-08
4.15135673731e-07
-3.30315061089e-08
4.22469500244e-07
-3.92037003939e-08
4.31508971063e-07
-4.60225035236e-08
4.43198945302e-07
-5.33560288845e-08
4.59466671927e-07
-6.53238304165e-08
4.82836975729e-07
-8.7491902973e-08
5.12345780513e-07
-1.17279853805e-07
5.4410767086e-07
-1.33160553921e-07
5.9612248703e-07
-1.35556806472e-07
7.12224818508e-07
-2.66311757876e-07
-7.01083098983e-07
7.29938513544e-07
9.38404411484e-07
-3.85024331254e-07
3.77436308514e-07
2.98951181869e-07
4.749559853e-07
-5.76480862825e-08
4.73644469794e-07
-1.37328513515e-08
4.84773958893e-07
-2.64831528387e-08
4.91001245056e-07
-2.85013592559e-08
4.9948321999e-07
-3.46074317893e-08
5.07603862941e-07
-4.1025410601e-08
5.16425436731e-07
-4.80910485761e-08
5.25502523763e-07
-5.54256366734e-08
5.35709171858e-07
-6.39961666004e-08
5.48258302646e-07
-7.83997436628e-08
5.63246573101e-07
-1.0304353097e-07
5.7713686323e-07
-1.31703695625e-07
5.90740098346e-07
-1.47166661125e-07
6.27781645738e-07
-1.728166762e-07
6.89931468787e-07
-3.28317217353e-07
-6.42371328738e-07
6.31014563655e-07
-2.4773187634e-08
6.0005704529e-08
5.2274293373e-07
-2.46804729599e-07
4.37924670206e-07
3.02837518608e-08
4.5893415964e-07
-3.27239203262e-08
4.61109341858e-07
-2.64458098145e-08
4.70637933013e-07
-3.64044674661e-08
4.79250935187e-07
-4.14885283115e-08
4.89496832457e-07
-4.98256051572e-08
5.0085986158e-07
-5.80275260256e-08
5.13739124547e-07
-6.70337619954e-08
5.29101108489e-07
-7.819043324e-08
5.47750766406e-07
-9.59721792645e-08
5.68168327682e-07
-1.22461434114e-07
5.86834514077e-07
-1.49375378874e-07
6.0855344565e-07
-1.67863410133e-07
6.48937360968e-07
-2.12048366e-07
6.79434805307e-07
-3.57738512822e-07
-5.66538744007e-07
6.05351688638e-07
8.38931080891e-07
-3.23521770969e-07
4.15602406339e-07
1.8075563118e-07
5.09709114781e-07
-6.02385377841e-08
5.03686886846e-07
-2.46643718976e-08
5.14642973258e-07
-3.60113511338e-08
5.19544503064e-07
-4.06497320494e-08
5.27001252711e-07
-4.85418108703e-08
5.34315183458e-07
-5.70800112993e-08
5.42538099956e-07
-6.62822889877e-08
5.51831979942e-07
-7.65030186765e-08
5.63350729873e-07
-8.98878038886e-08
5.77328510965e-07
-1.10162467919e-07
5.91892422033e-07
-1.37152992026e-07
6.05780025956e-07
-1.63313092413e-07
6.26146991204e-07
-1.88074578117e-07
6.58181334884e-07
-2.43732474279e-07
6.6641839306e-07
-3.65129626649e-07
-5.01149916228e-07
6.01151694567e-07
1.90141035596e-07
-3.23470791884e-08
5.59305715094e-07
-1.88202825107e-07
5.17779013959e-07
-1.6785434349e-08
5.28139165198e-07
-3.31825008348e-08
5.34440070827e-07
-4.03113126849e-08
5.42933870063e-07
-4.74315980425e-08
5.51507679157e-07
-5.53695542991e-08
5.60634011988e-07
-6.46412506878e-08
5.70368335617e-07
-7.44745541287e-08
5.81109001127e-07
-8.58621053902e-08
5.93429023715e-07
-1.00877590588e-07
6.06683901599e-07
-1.22235905402e-07
6.18880526443e-07
-1.48245613067e-07
6.30490625163e-07
-1.73857162785e-07
6.47485202439e-07
-2.03944908845e-07
6.67075390417e-07
-2.62033844964e-07
6.59987674538e-07
-3.57054178341e-07
-4.45438990186e-07
6.06218684035e-07
7.66359651864e-07
-2.80581786451e-07
5.24743611948e-07
5.46900333793e-08
5.52920548215e-07
-4.31337367101e-08
5.63017911581e-07
-4.1825756781e-08
5.69797471745e-07
-4.60417980711e-08
5.7702126314e-07
-5.39445323566e-08
5.84658711816e-07
-6.25273397056e-08
5.92809701311e-07
-7.23978097652e-08
6.01708505409e-07
-8.30994242926e-08
6.1181856249e-07
-9.56479143406e-08
6.23234892522e-07
-1.12067078619e-07
6.34890126004e-07
-1.33594643558e-07
6.45200638152e-07
-1.58220315213e-07
6.55362221773e-07
-1.83544422414e-07
6.68294586322e-07
-2.16248209592e-07
6.77011537636e-07
-2.69870014089e-07
6.62097771593e-07
-3.40442366229e-07
-4.00293455305e-07
6.17223141057e-07
4.55395363594e-07
-1.83121610173e-07
5.90039153896e-07
-8.03217224951e-08
5.92093665677e-07
-4.40495162802e-08
5.9698341548e-07
-4.51128435943e-08
6.04795126367e-07
-5.20764679446e-08
6.11975410174e-07
-5.93838951654e-08
6.19551565227e-07
-6.83889225156e-08
6.2733355608e-07
-7.85402264121e-08
6.35705554283e-07
-8.98953726232e-08
6.44963797201e-07
-1.03434161616e-07
6.54910167425e-07
-1.20604790076e-07
6.64416783514e-07
-1.41882385989e-07
6.72636518483e-07
-1.65324494952e-07
6.80670224161e-07
-1.9051207092e-07
6.88787057537e-07
-2.23195338759e-07
6.89560527193e-07
-2.69033066217e-07
6.70851450446e-07
-3.21243623108e-07
-3.60812709753e-07
6.3325023086e-07
6.60095420769e-07
-2.50568682358e-07
6.1783685259e-07
-3.88104712608e-08
6.27135770215e-07
-5.29434591318e-08
6.34905863425e-07
-5.22418858287e-08
6.41838221719e-07
-5.84025839003e-08
6.48951098526e-07
-6.60585832656e-08
6.56136736831e-07
-7.51992751131e-08
6.63510408985e-07
-8.56435868102e-08
6.71312523996e-07
-9.7387008597e-08
6.79624030327e-07
-1.11455129387e-07
6.87921274355e-07
-1.28733577538e-07
6.95330785222e-07
-1.49078112441e-07
7.01474258963e-07
-1.71073050388e-07
7.06808831916e-07
-1.95510118726e-07
7.10128301346e-07
-2.25755821657e-07
7.05107185827e-07
-2.6324178961e-07
6.85936245027e-07
-3.00385774735e-07
-3.28585181524e-07
6.52991722997e-07
6.49716996914e-07
-2.64526450374e-07
6.63192108637e-07
-5.28439122921e-08
6.68572914206e-07
-5.77682925736e-08
6.75076409445e-07
-5.76224483464e-08
6.81725357451e-07
-6.37993681489e-08
6.88376712657e-07
-7.14153593187e-08
6.95022968177e-07
-8.0662166308e-08
7.01795126679e-07
-9.12707152525e-08
7.0877866984e-07
-1.03365802105e-07
7.15850901807e-07
-1.17621299422e-07
7.22356820949e-07
-1.34468888142e-07
7.27774728994e-07
-1.53760513022e-07
7.3174205634e-07
-1.74657840756e-07
7.3420877109e-07
-1.97364968728e-07
7.33219254096e-07
-2.24251065651e-07
7.24835328189e-07
-2.53460750158e-07
7.05160563829e-07
-2.80954487547e-07
-2.99418427115e-07
6.7649553329e-07
5.91663552563e-07
-2.85300972246e-07
5.9324883867e-07
-5.60389659867e-08
5.97685185662e-07
-6.25429874823e-08
6.02757554079e-07
-6.23564243526e-08
6.07910858118e-07
-6.84374263248e-08
6.1309604489e-07
-7.58881585872e-08
6.18198300302e-07
-8.50969010384e-08
6.23335710777e-07
-9.5593404e-08
6.28464138961e-07
-1.0765761693e-07
6.33346001088e-07
-1.21537692316e-07
6.3736030875e-07
-1.38007638472e-07
6.40378878652e-07
-1.55839432552e-07
6.42228764257e-07
-1.74856142262e-07
6.42022113748e-07
-1.96293516035e-07
6.38869954872e-07
-2.19051851963e-07
6.29849807781e-07
-2.43296582182e-07
6.14330728213e-07
-2.6297578179e-07
-2.78282700245e-07
5.92072647087e-07
7.18118563404e-07
-3.04722915993e-07
7.20324669039e-07
-5.90230546384e-08
7.24303777591e-07
-6.66828827697e-08
7.29441802362e-07
-6.73848740055e-08
7.34725973938e-07
-7.33172151003e-08
7.40003780083e-07
-8.08682617516e-08
7.45179971068e-07
-8.97954565831e-08
7.50234899933e-07
-1.00289827064e-07
7.55109448984e-07
-1.1192639789e-07
7.59102948324e-07
-1.25660886911e-07
7.62143988937e-07
-1.40094182809e-07
7.63880673233e-07
-1.56378734071e-07
7.63742821907e-07
-1.73493556427e-07
7.61614111081e-07
-1.91596489305e-07
7.55200486808e-07
-2.11072225702e-07
7.44527505432e-07
-2.28784054493e-07
7.26007160086e-07
-2.45049187137e-07
-2.53683039957e-07
7.04127414313e-07
8.71139783308e-07
-3.2457550992e-07
8.73745583183e-07
-6.27319620154e-08
8.77064076206e-07
-7.00287223034e-08
8.81960778332e-07
-7.14827461063e-08
8.86911028449e-07
-7.76787257502e-08
8.9198717749e-07
-8.48190401012e-08
8.96717386465e-07
-9.38348314944e-08
9.01354198298e-07
-1.03668971718e-07
9.05115241906e-07
-1.15301662763e-07
9.08226768642e-07
-1.26974938645e-07
9.0916943237e-07
-1.41071365963e-07
9.08994685926e-07
-1.54350175487e-07
9.06493355959e-07
-1.69433583385e-07
9.01064965624e-07
-1.84115574797e-07
8.92270439179e-07
-1.99338880524e-07
8.77553329319e-07
-2.12760552075e-07
8.59509532921e-07
-2.23216877876e-07
-2.3047397284e-07
8.34122615935e-07
1.06087506458e-06
-3.46653076472e-07
1.05824661534e-06
-6.03182798211e-08
1.06059783299e-06
-7.21257111081e-08
1.06459209738e-06
-7.47078284892e-08
1.06884677691e-06
-8.02284291624e-08
1.07273362558e-06
-8.74414946755e-08
1.07667701082e-06
-9.54955391231e-08
1.07961521241e-06
-1.05256977593e-07
1.08256150849e-06
-1.15087526094e-07
1.08243265114e-06
-1.2708431836e-07
1.08214485584e-06
-1.3780360063e-07
1.07799564779e-06
-1.50602058699e-07
1.07312246706e-06
-1.61688390672e-07
1.06333851744e-06
-1.74416188155e-07
1.05169222072e-06
-1.84406318628e-07
1.03419777045e-06
-1.94758250985e-07
1.01368674677e-06
-2.00514607593e-07
-2.05098259646e-07
9.89773031295e-07
1.25561518216e-06
-3.34607264662e-07
1.28075198167e-06
-8.58480692488e-08
1.28280627497e-06
-7.32364800862e-08
1.284888646e-06
-7.54002546638e-08
1.28736172665e-06
-8.10631771908e-08
1.28975752164e-06
-8.75171507828e-08
1.29126631733e-06
-9.50992422318e-08
1.29283218136e-06
-1.03535930532e-07
1.2917938066e-06
-1.13122241254e-07
1.29068243928e-06
-1.22552958663e-07
1.28492994306e-06
-1.32960415612e-07
1.27949271393e-06
-1.42293584977e-07
1.26807868873e-06
-1.52259004936e-07
1.25737373805e-06
-1.60314547208e-07
1.23875182773e-06
-1.685137982e-07
1.22237791339e-06
-1.73499993756e-07
1.19591916457e-06
-1.78144879552e-07
-1.78489176388e-07
1.17592315289e-06
1.65198234185e-06
-4.40686786847e-07
1.55435867517e-06
1.32306035943e-08
1.54660004386e-06
-6.44797573159e-08
1.54852592081e-06
-7.57426100673e-08
1.5485535058e-06
-7.96459029318e-08
1.54773473247e-06
-8.48706901768e-08
1.54594573752e-06
-9.15216537673e-08
1.54331846373e-06
-9.89597121409e-08
1.53928280883e-06
-1.07119055034e-07
1.53281948602e-06
-1.15277104007e-07
1.5244395089e-06
-1.23469097943e-07
1.51290787592e-06
-1.30978394349e-07
1.49965933211e-06
-1.38042494556e-07
1.48229269345e-06
-1.43925419092e-07
1.46408126872e-06
-1.4885866616e-07
1.44130541598e-06
-1.52154564479e-07
1.42021233401e-06
-1.54230298509e-07
-1.54127925037e-07
1.39275519207e-06
1.50101127171e-06
-5.71640502835e-08
1.81476898176e-06
-2.9967724557e-07
1.85923972996e-06
-1.08348367104e-07
1.85829318395e-06
-7.38540094002e-08
1.85155754275e-06
-7.18523208001e-08
1.84432518267e-06
-7.68299164704e-08
1.83720300319e-06
-8.31505942393e-08
1.828505929e-06
-8.97986244298e-08
1.81919244146e-06
-9.64465466689e-08
1.80648078837e-06
-1.0283101641e-07
1.79310950818e-06
-1.08787129826e-07
1.77518342691e-06
-1.14069322204e-07
1.75731935665e-06
-1.18644442016e-07
1.73389768187e-06
-1.2217972416e-07
1.71208841609e-06
-1.24687083092e-07
1.68340998439e-06
-1.25830522955e-07
1.65965490381e-06
-1.25823083758e-07
-1.25000503899e-07
1.62683814384e-06
3.27285578665e-06
-1.03410299389e-06
2.51087522369e-06
4.60989105922e-07
2.35027842288e-06
5.21978817999e-08
2.30634953454e-06
-2.99214399024e-08
2.28807494234e-06
-5.34225736233e-08
2.27463234292e-06
-6.27348777923e-08
2.26231893959e-06
-7.04627933616e-08
2.24869177482e-06
-7.58546884859e-08
2.23476496766e-06
-8.18921218806e-08
2.21752230421e-06
-8.59647515938e-08
2.2004704477e-06
-9.06967916385e-08
2.17849294775e-06
-9.35839543266e-08
2.15831144118e-06
-9.68240346664e-08
2.13184583664e-06
-9.8176434753e-08
2.1095241845e-06
-9.96764194136e-08
2.07949993146e-06
-9.96189464844e-08
2.0582765533e-06
-9.95997045526e-08
-9.72450502899e-08
2.02472041685e-06
2.23278918028e-07
4.19225731441e-07
1.40171472165e-06
-7.20877504285e-07
1.54103686738e-06
-8.95287467217e-08
1.5537947253e-06
-4.60161739715e-08
1.5475933302e-06
-4.57117256011e-08
1.53636098014e-06
-5.55090770985e-08
1.52931521241e-06
-5.98033511997e-08
1.51476926326e-06
-6.60050676749e-08
1.50642720355e-06
-6.83009773785e-08
1.48855412721e-06
-7.32279265593e-08
1.47821987198e-06
-7.44860746202e-08
1.45728127133e-06
-7.82843018022e-08
1.44569118935e-06
-7.83910720616e-08
1.4223874787e-06
-8.10785992243e-08
1.41010203566e-06
-7.99999701625e-08
1.38478525729e-06
-8.11537667595e-08
1.37269332151e-06
-7.82085350766e-08
-7.95150849679e-08
1.34812743373e-06
3.17198460984e-06
-1.28964681356e-06
1.53159160949e-06
9.17147458216e-07
1.45144707299e-06
-9.47793603923e-09
1.44815087131e-06
-4.40446601991e-08
1.452215066e-06
-5.26828143705e-08
1.44707650764e-06
-5.01007507179e-08
1.43730080834e-06
-5.38496616848e-08
1.42932097994e-06
-5.55496599246e-08
1.41616830343e-06
-5.88323326166e-08
1.40611611603e-06
-6.03167658184e-08
1.39075417474e-06
-6.26027867146e-08
1.37951600623e-06
-6.34820529078e-08
1.36214505833e-06
-6.48564040246e-08
1.35017322424e-06
-6.49543162919e-08
1.33115483365e-06
-6.55696668337e-08
1.3205537014e-06
-6.4997428737e-08
1.30241796898e-06
-6.55755801548e-08
-6.15599804604e-08
1.29228440925e-06
-1.10016527825e-06
1.08489066886e-06
1.15032686564e-06
-1.3312412708e-06
1.17276624589e-06
-3.33917502275e-08
1.16800693583e-06
-3.90452382847e-08
1.14948663296e-06
-3.44937555949e-08
1.14325273551e-06
-4.50680931863e-08
1.13512615602e-06
-4.57434480197e-08
1.12603159192e-06
-4.79448339511e-08
1.11624656485e-06
-4.94011994335e-08
1.10575579379e-06
-5.05021923483e-08
1.09387619855e-06
-5.19730299046e-08
1.08255668349e-06
-5.1868875873e-08
1.06902180756e-06
-5.32572597264e-08
1.05725005639e-06
-5.23712101661e-08
1.04356469434e-06
-5.35333468846e-08
1.03099389469e-06
-5.13595597442e-08
1.0161444174e-06
-5.04197346107e-08
-5.10014765036e-08
1.00454006546e-06
3.86500577668e-06
-1.6656786592e-06
1.032021256e-06
1.50493502707e-06
1.1093975498e-06
-1.06505780527e-07
1.11112309825e-06
-3.94226190726e-08
1.12757585825e-06
-4.99484652813e-08
1.12013748033e-06
-3.76614714902e-08
1.11537148067e-06
-4.07830546044e-08
1.10838020268e-06
-4.10289594311e-08
1.10133028961e-06
-4.21734044063e-08
1.0924852607e-06
-4.30533184918e-08
1.08470535171e-06
-4.32394998077e-08
1.07367447485e-06
-4.42145415052e-08
1.0657435226e-06
-4.32586660541e-08
1.05289418659e-06
-4.43843345782e-08
1.04617023971e-06
-4.26974943234e-08
1.03438867623e-06
-4.37814962415e-08
1.03252524907e-06
-4.3197150434e-08
-3.91469846026e-08
1.01623020657e-06
-1.99316221336e-06
1.29829510164e-06
1.12080912419e-06
-1.60392471568e-06
8.84289579436e-07
1.32272008121e-07
8.95495926445e-07
-4.74456658281e-08
8.64035611875e-07
-1.65930018212e-08
8.62638054545e-07
-3.46573565122e-08
8.53037081532e-07
-3.02049942548e-08
8.44720767038e-07
-3.19758995512e-08
8.35168434785e-07
-3.19485546701e-08
8.24895855174e-07
-3.26010911806e-08
8.141801556e-07
-3.27700371607e-08
8.03371133116e-07
-3.32593684043e-08
7.91571683707e-07
-3.37729404232e-08
7.81447253812e-07
-3.35331456082e-08
7.71051759385e-07
-3.34987453856e-08
7.60466965635e-07
-3.22250396751e-08
7.4626309516e-07
-2.85168578709e-08
-3.40136167889e-08
7.41223101174e-07
3.43971683411e-06
-1.2932137729e-06
4.9172452101e-07
1.34999119874e-06
8.97655399905e-07
-2.68330776459e-07
8.50362755685e-07
3.1266968344e-09
8.81389442067e-07
-4.53711685552e-08
8.68512314368e-07
-2.04501263857e-08
8.67213799869e-07
-2.7375192746e-08
8.62185004276e-07
-2.55967132034e-08
8.58007795496e-07
-2.68333180681e-08
8.53374182767e-07
-2.67037697871e-08
8.48281289111e-07
-2.74641211859e-08
8.43082612068e-07
-2.81762327338e-08
8.37567825166e-07
-2.84743592619e-08
8.32152983538e-07
-2.82581093867e-08
8.26641843521e-07
-2.77104851199e-08
8.23066648805e-07
-2.73744561596e-08
8.21378135871e-07
-2.92733765085e-08
-1.98808732142e-08
8.09315174979e-07
-1.51295565453e-06
9.58721529515e-07
1.04936738134e-06
-1.20630051003e-06
6.26192000455e-07
1.58845983517e-07
6.89191887428e-07
-5.60874039646e-08
6.50841822366e-07
-4.12709684896e-09
6.5506935304e-07
-2.26694461204e-08
6.44848313569e-07
-1.56603768032e-08
6.38449986108e-07
-1.78226123677e-08
6.30301813923e-07
-1.71716054701e-08
6.21630290859e-07
-1.75476052672e-08
6.124818931e-07
-1.71381045758e-08
6.03383581119e-07
-1.88351743298e-08
5.93762767235e-07
-1.87790141022e-08
5.84419696781e-07
-1.84580602385e-08
5.75660896427e-07
-1.81858747755e-08
5.65957171791e-07
-1.68205727881e-08
5.49216314374e-07
-1.30218898337e-08
-2.12969308852e-08
5.48587465265e-07
2.43821956519e-06
-8.35585746595e-07
3.83042842497e-07
8.54621388475e-07
7.24599773949e-07
-1.78207369724e-07
6.70558587205e-07
3.01732551125e-09
6.90987926786e-07
-2.31708402614e-08
6.79283704953e-07
-9.36007981207e-09
6.7825019241e-07
-1.29843502498e-08
6.73819995801e-07
-1.18807032923e-08
6.70389587685e-07
-1.24211453553e-08
6.66207975648e-07
-1.1746040112e-08
6.61096011154e-07
-1.33066264057e-08
6.57647055792e-07
-1.34834738777e-08
6.53470972114e-07
-1.41030895277e-08
6.49606229511e-07
-1.40264396064e-08
6.46558167854e-07
-1.40104140811e-08
6.45357607002e-07
-1.47163805054e-08
6.51120345852e-07
-1.85648750983e-08
-1.00374876011e-08
6.36632450384e-07
-8.24700358931e-07
5.5106622226e-07
7.71348195705e-07
-7.35413038123e-07
4.75590529871e-07
1.22665594455e-07
5.16690632804e-07
-3.2600839833e-08
4.93914429932e-07
2.36057800351e-09
4.94655599875e-07
-8.2823896871e-09
4.88187716142e-07
-4.74188598576e-09
4.83838239444e-07
-5.85725844318e-09
4.78775534935e-07
-5.55231082124e-09
4.72853179715e-07
-6.20607601265e-09
4.66947673482e-07
-6.84916855525e-09
4.62073164862e-07
-7.24885501112e-09
4.56929117655e-07
-7.71942695731e-09
4.5179832425e-07
-8.08431718828e-09
4.47316114811e-07
-8.25264757985e-09
4.41518402517e-07
-7.40270864327e-09
4.23936923215e-07
-2.64592189056e-09
-1.5562755143e-08
4.28931208753e-07
1.30803996144e-06
-2.65983358186e-07
4.38073213921e-07
1.41341628378e-07
6.01252430468e-07
-3.44359417463e-08
5.68558369764e-07
6.4557592043e-09
5.77306281054e-07
-3.04938806177e-09
5.7149016211e-07
-2.70199674924e-10
5.70257763887e-07
-1.45207439532e-09
5.6755389474e-07
-1.15838564855e-09
5.6498639123e-07
-1.46851895561e-09
5.61249103713e-07
-2.25039375987e-09
5.57401610755e-07
-2.54201954947e-09
5.53981901376e-07
-2.05176629651e-09
5.49895967873e-07
-2.17157617523e-09
5.45147512346e-07
-2.19865372333e-09
5.39957249648e-07
-1.45166655958e-09
5.35247123298e-07
-1.8508823005e-09
5.40061339533e-07
-7.55885914867e-09
1.003798464e-08
5.12788206887e-07
1.54805044552e-07
2.9663300984e-07
2.62789021878e-07
2.69578679046e-07
2.66758120426e-07
2.66720098893e-07
2.65507221003e-07
2.6457890077e-07
2.63148271811e-07
2.60926666099e-07
2.58676049868e-07
2.56904763393e-07
2.54935809858e-07
2.53039629121e-07
2.5188213428e-07
2.50013560606e-07
2.42068528996e-07
2.5258908732e-07
2.79234122133e-07
-2.15380555126e-07
2.78521392424e-07
8.50684087132e-09
2.48713778678e-07
8.2062087559e-08
1.71458529264e-07
6.72068767606e-08
1.5709054127e-07
4.96996150018e-08
1.09342818699e-07
3.76998975368e-08
1.11168166799e-07
3.19267445022e-08
7.40355192842e-08
2.76867494213e-08
7.77200287153e-08
2.61538151428e-08
4.41277526348e-08
2.39420926314e-08
4.73437751706e-08
2.33582522021e-08
1.57399320114e-08
2.14650488813e-08
1.8680369838e-08
2.10174024395e-08
-1.09190540351e-08
1.91159272668e-08
-6.91147207408e-09
1.86884399281e-08
-3.42561554097e-08
1.67321190612e-08
-2.72018690262e-08
1.63578205983e-08
-5.24319109436e-08
1.41887198576e-08
-4.52256376431e-08
1.3814173816e-08
-6.93528272856e-08
1.17980364669e-08
-6.09501260087e-08
1.15482412506e-08
-8.44001231795e-08
9.34136975952e-09
-7.74583771127e-08
9.27135419201e-09
-1.00717804069e-07
7.3197963335e-09
-9.48028003939e-08
7.3699662575e-09
-1.16473242385e-07
5.71830327548e-09
-1.08889410858e-07
6.44786433738e-09
-1.29164110048e-07
5.1337608037e-09
-1.22506612948e-07
5.96669047726e-09
-1.41753225092e-07
4.87805418022e-09
-1.33618105493e-07
6.27388295057e-09
-1.51834036109e-07
5.25001557734e-09
-1.45039699791e-07
6.45139971764e-09
-1.62320553506e-07
5.48409722151e-09
-1.53245460956e-07
6.94736278572e-09
-1.692864665e-07
5.58801812652e-09
-1.60757530013e-07
6.63559820337e-09
-1.76428279539e-07
4.917847673e-09
-1.68754436642e-07
5.6397838329e-09
-1.8413619068e-07
3.5767663449e-09
-1.7688995463e-07
4.07347741157e-09
-1.91339324208e-07
1.81252012806e-09
-1.83130007508e-07
2.22564722871e-09
-1.9580645222e-07
-1.80502004553e-10
-1.84429293312e-07
2.36407842052e-10
-1.94680003149e-07
-2.53666288307e-09
-1.80997060115e-07
-2.16490918998e-09
-1.8945580781e-07
-5.01473108012e-09
-1.72742030014e-07
-4.71314619122e-09
-1.80517789357e-07
-8.15142421833e-09
-1.63052276879e-07
-7.45628234494e-09
-1.71937989146e-07
-1.09544162486e-08
-1.55948548879e-07
-1.02755274832e-08
-1.64316791405e-07
-1.32371960721e-08
-1.448569593e-07
-1.12041696257e-08
-1.5378916701e-07
-1.39029636845e-08
-1.36980302204e-07
-1.15505377102e-08
-1.47499634413e-07
-1.36647842062e-08
-1.30202381265e-07
-9.86139267084e-09
-1.43584133793e-07
-1.19664762513e-08
-1.31890734449e-07
-8.47533754151e-09
-1.47527445556e-07
-1.02395223342e-08
-1.35029895373e-07
-6.14516300685e-09
-1.51497624874e-07
-8.61691989414e-09
-1.40970668455e-07
-5.4186135805e-09
-1.58959989094e-07
-9.07524756257e-09
-1.49697009497e-07
-6.89632509003e-09
-1.67154119038e-07
-1.15442824008e-08
-1.54606553463e-07
-9.88179579044e-09
-1.67564884177e-07
-1.52196390357e-08
-1.48569481145e-07
-1.36491559111e-08
-1.57129615306e-07
-1.94276414009e-08
-1.31213907398e-07
-1.74015011293e-08
-1.37456551231e-07
-2.43522590141e-08
-1.11202650921e-07
-2.22005192238e-08
-1.21533991593e-07
-2.9340612297e-08
-1.00283399968e-07
-2.75130874425e-08
-1.1068799552e-07
-3.36173825655e-08
-8.13271019775e-08
-2.83341621078e-08
-9.06581981383e-08
-3.42624670526e-08
-6.22798643347e-08
-2.91523997543e-08
-7.01397420614e-08
-3.39946643604e-08
-3.51538081762e-08
-2.57448496751e-08
-4.92905614775e-08
-3.16698433182e-08
-2.89601012249e-08
-2.4666868561e-08
-5.44977583356e-08
-3.00196504549e-08
-3.79968483573e-08
-2.06275186127e-08
-2.25648571917e-08
-2.62254566634e-08
8.54778394259e-08
-2.47828283006e-08
2.63283793923e-07
-1.76831765559e-08
4.11985369011e-07
-9.95516911822e-09
5.10254023884e-07
-2.90071811023e-09
5.83054997776e-07
4.17932440018e-09
6.56555890438e-07
9.30107486408e-09
7.3529278299e-07
1.53384508565e-08
8.28512620707e-07
2.12344451339e-08
9.2665588606e-07
2.94672068798e-08
1.03219902888e-06
3.78186340887e-08
1.13092860127e-06
4.9600871454e-08
1.21842067848e-06
5.88378477135e-08
1.27138039883e-06
7.3044591506e-08
1.23145435782e-06
6.16289743945e-08
1.14445490149e-06
5.48954171463e-08
9.57935502482e-07
-3.8076613602e-09
8.40176290206e-07
-3.11314276046e-08
7.05433018312e-07
-1.10602712666e-07
7.32969952501e-07
-1.28885703033e-07
7.52803008075e-07
-2.04086726262e-07
9.49769299636e-07
-2.07522408006e-07
1.1106031038e-06
-2.89094434603e-07
1.46906033089e-06
-2.87962872499e-07
1.77451659852e-06
-3.8630503454e-07
2.32913890863e-06
-3.79246659067e-07
2.84001106779e-06
-5.03981890061e-07
3.68988498647e-06
-4.95809858888e-07
4.53737227112e-06
-6.5756066995e-07
5.86046982647e-06
-6.56681224848e-07
7.48802650897e-06
-8.20554671466e-07
9.8758904253e-06
-8.30352048694e-07
1.2584050183e-05
-1.16104102471e-06
1.59344246689e-05
-1.61997173134e-06
1.99299295791e-05
-2.97362116604e-06
2.77956402288e-05
-6.59039917342e-06
3.94610342417e-05
-1.04819235828e-05
4.72065713977e-05
-5.95401131842e-06
4.74770974628e-05
6.41887939755e-07
4.22636480247e-05
6.3482072536e-06
3.76402918e-05
4.94130291527e-06
3.48785587062e-05
3.74594647247e-06
3.26770294241e-05
2.52966329895e-06
3.18589944201e-05
1.99953113842e-06
3.12152475989e-05
1.20800104671e-06
3.18462862692e-05
9.71939290681e-07
3.26485586946e-05
3.33582498212e-07
3.49522067435e-05
2.31393253362e-07
3.77129269247e-05
-3.28912919411e-07
4.24135932001e-05
-3.42656107116e-07
4.83471494731e-05
-7.43705692796e-07
5.67356438215e-05
-5.06343660827e-07
6.62256296776e-05
-4.67588763261e-07
7.64755172577e-05
-7.99907779241e-08
8.61769101642e-05
8.72016536869e-08
9.55251024924e-05
1.64086385088e-07
0.000104593611805
-1.83817548867e-07
0.000113876977922
-4.76485874063e-07
0.000123109500049
-7.9509492518e-07
0.000132568850408
-1.0472578134e-06
0.000142051879065
-1.39084976404e-06
0.000151697575486
-1.75830134293e-06
0.000161304837543
-2.14237669159e-06
0.000170711599246
-2.63884480271e-06
0.000179716285973
-3.01474439642e-06
0.000187639968855
-3.62891066679e-06
0.000194318200933
-3.90231230219e-06
0.000198253554743
-4.58178874558e-06
0.000199390665366
-4.58320736162e-06
0.000195013677275
-5.20649044182e-06
0.000185340887197
-4.66660997852e-06
0.000165978387417
-5.0295453151e-06
0.000137786472409
-3.57169055461e-06
9.41864935968e-05
-3.37999281758e-06
3.73036518146e-05
-5.31335098087e-07
-4.22176698136e-05
5.47367003247e-07
-0.000140214216373
5.25685342711e-06
-0.000269681081444
7.55229735515e-06
-0.000423817549435
1.46405946472e-05
-0.000620537397126
1.87806382772e-05
-0.000850024575695
2.92001060369e-05
-0.00113575537805
3.59472006262e-05
-0.00146287557418
4.92883995785e-05
-0.00186090987778
5.84127788921e-05
-0.00231518298676
7.96398120185e-05
-0.00286592835264
0.000100547548166
-0.00349526403238
0.000134689309471
-0.00424922099609
0.000167764579774
-0.00510419218885
0.000212335536394
-0.00609725518953
0.000243235745387
-0.00718428298272
0.000285315703301
-0.00840184292052
0.000325934398844
6.72304009585e-05
-0.00936556364571
2.1713682146e-08
-2.19428872358e-07
-1.19867783778e-08
4.45483484566e-08
1.43021431775e-08
6.99950191459e-08
3.16863070827e-08
4.77833764785e-08
6.73249176146e-08
2.84585224259e-08
8.26331733877e-08
1.96915493722e-08
1.11639552499e-07
1.76273182538e-08
1.17760083535e-07
1.8542043907e-08
1.38058825697e-07
2.04986614152e-08
1.36292105953e-07
2.22709072125e-08
1.49405153852e-07
2.38684521378e-08
1.42337320602e-07
2.48023552319e-08
1.50611042092e-07
2.55123049782e-08
1.40320895203e-07
2.55979339904e-08
1.46003450435e-07
2.55915203883e-08
1.34148103837e-07
2.5023449156e-08
1.39222380668e-07
2.44915527111e-08
1.2711447039e-07
2.3381706367e-08
1.31391175265e-07
2.23770216448e-08
1.182321338e-07
2.0903997767e-08
1.21719809902e-07
1.9763652337e-08
1.08919974208e-07
1.81794621458e-08
1.10858999635e-07
1.6874273307e-08
9.67231570378e-08
1.53447979489e-08
9.78567558278e-08
1.44419672833e-08
8.5188192648e-08
1.34245565069e-08
8.64169109328e-08
1.28358083448e-08
7.34878457978e-08
1.20665764852e-08
7.40895996601e-08
1.19371749963e-08
6.23962572126e-08
1.16254807965e-08
6.30252349528e-08
1.16983469171e-08
5.12624968944e-08
1.1351326655e-08
5.17029969569e-08
1.15387730468e-08
4.12731303953e-08
1.11977732489e-08
4.27488137806e-08
1.11607358617e-08
3.36851331943e-08
1.03416331766e-08
3.57827961387e-08
9.75268390187e-09
2.77229295167e-08
8.2168959829e-09
3.01360821157e-08
6.9968303487e-09
2.33904753852e-08
4.91080980869e-09
2.67666168179e-08
3.24157238611e-09
2.20361201984e-08
7.98292312552e-10
2.7589020552e-08
-1.12259004586e-09
2.58332258319e-08
-3.81044482641e-09
3.51433157927e-08
-5.91533606371e-09
3.74938093479e-08
-8.94679019133e-09
5.06089947629e-08
-1.14413031814e-08
5.58665217716e-08
-1.49000867972e-08
7.26402668103e-08
-1.74125933127e-08
8.1755842314e-08
-2.10895937246e-08
1.00154739215e-07
-2.40354565187e-08
1.09458396205e-07
-2.76926936669e-08
1.29200257842e-07
-2.9687733664e-08
1.41450306893e-07
-3.21262140132e-08
1.63008144072e-07
-3.31527792191e-08
1.7477413781e-07
-3.50845983083e-08
1.95626797589e-07
-3.49227733003e-08
2.07769367413e-07
-3.54679958763e-08
2.27577655529e-07
-3.42603969699e-08
2.36652229404e-07
-3.44253705115e-08
2.52995628812e-07
-3.26919458336e-08
2.60444776152e-07
-3.2374542341e-08
2.76290401748e-07
-3.04928258446e-08
2.82923044659e-07
-3.11074719169e-08
2.97441943621e-07
-3.05714184962e-08
3.03107221278e-07
-3.27186237151e-08
3.17189343106e-07
-3.37190310268e-08
3.2395688121e-07
-3.72258236807e-08
3.41433715083e-07
-3.90459332925e-08
3.53075486936e-07
-4.32822881191e-08
3.76626156615e-07
-4.52993096403e-08
3.93166792411e-07
-4.99670281756e-08
4.21344352051e-07
-5.2152422294e-08
4.41001624142e-07
-5.71314031521e-08
4.68841942224e-07
-5.97421323099e-08
4.82849952474e-07
-6.54343841851e-08
5.06554116833e-07
-6.64467116277e-08
5.21394999021e-07
-6.93530761497e-08
5.47810021089e-07
-6.79860002785e-08
5.61121210292e-07
-6.98036257145e-08
5.86804594649e-07
-6.64435277144e-08
6.01493258797e-07
-6.63016076606e-08
6.27473384568e-07
-6.1753134813e-08