/*--------------------------------*- C++ -*----------------------------------*\
| =========                 |                                                 |
| \\      /  F ield         | OpenFOAM: The Open Source CFD Toolbox           |
|  \\    /   O peration     | Version:  v1806                                 |
|   \\  /    A nd           | Web:      www.OpenFOAM.com                      |
|    \\/     M anipulation  |                                                 |
\*---------------------------------------------------------------------------*/
FoamFile
{
    version     2.0;
    format      ascii;
    class       volScalarField;
    location    "27";
    object      rho;
}
// * * * * * * * * * * * * * * * * * * * * * * * * * * * * * * * * * * * * * //

dimensions      [0 0 0 0 0 0 0];


internalField   nonuniform List<scalar> 
12225
(
0.58537841867
0.649874466561
0.629031906599
0.629314427079
0.617282149119
0.612991635622
0.607021840057
0.603006320156
0.600907372504
0.601911709715
0.607485103604
0.616232591464
0.623277243614
0.635156239452
0.65877615141
0.689946270594
0.730716641867
0.765004079919
0.761106481131
0.699211027595
0.666660411451
0.671350128155
0.662243876743
0.659909337085
0.656223970283
0.653985382021
0.652823366222
0.653420439466
0.657131007428
0.663699354144
0.670539481146
0.680605284777
0.698545855018
0.722024138036
0.748083871422
0.750810578318
0.605363310707
0.680884140223
0.661737964966
0.663719248863
0.653872011217
0.650569554346
0.646068631106
0.643098077985
0.641102923353
0.640590622228
0.642245899986
0.646186242281
0.651895126528
0.661003460633
0.675987991465
0.695026911644
0.71284759512
0.708101639143
0.67447757327
0.69276274897
0.666237724629
0.672076608215
0.663276738441
0.661581828293
0.658439536196
0.656602790898
0.655418193123
0.655297774759
0.656556820629
0.659349798749
0.663805350708
0.670885886693
0.681583381254
0.693898624942
0.702008687555
0.692435597642
0.63833190277
0.692593753047
0.667385685948
0.674473135638
0.666479094317
0.665739038995
0.663488251434
0.662573026239
0.662330525049
0.663081884807
0.664949302513
0.668011697521
0.672488858917
0.67884341677
0.687068728195
0.694891343317
0.697181814952
0.686670631723
0.652956633678
0.69637271957
0.670758155083
0.679154303667
0.671749086105
0.671733307427
0.670032676526
0.669617396178
0.669807351724
0.670864051127
0.672828455371
0.675732585716
0.679734402564
0.684956487657
0.69084458704
0.695150170442
0.694046689326
0.684090734455
0.648897533889
0.697754544323
0.673293627092
0.682576081658
0.675854390243
0.676503723655
0.675330408569
0.675367343826
0.675914269361
0.677181565177
0.679159108764
0.681835710845
0.685243947019
0.689269305872
0.693107814383
0.694807387618
0.69181355057
0.682720966697
0.651344431722
0.699270095054
0.675514397301
0.685557145195
0.679397140554
0.68058158777
0.679803083664
0.680154882512
0.680891269426
0.682204388488
0.684060931917
0.686407633086
0.689155420198
0.692035114858
0.694174972695
0.694039927187
0.690045385708
0.681832718745
0.652285365702
0.700030250931
0.677323377794
0.687879669071
0.682259704402
0.683899936874
0.683449962915
0.684019328823
0.68482841189
0.68607650704
0.687720325613
0.689658185041
0.691710737034
0.693527562707
0.694307979333
0.692903070403
0.688428450645
0.680965392489
0.653195125188
0.700363576305
0.678563546891
0.689496577361
0.684328060802
0.686342270927
0.686132210213
0.686825758679
0.687635545982
0.688768782381
0.69014834299
0.691624852882
0.692968017161
0.693824413684
0.693529665768
0.69127631448
0.686621371282
0.679856502916
0.653155381701
0.700434741117
0.67894910084
0.690219977301
0.685311239944
0.687537065625
0.687406509859
0.688120785148
0.688871385257
0.689837443721
0.690905959627
0.691923196857
0.692655679612
0.692790884339
0.691805317772
0.689159231439
0.68467968458
0.678684952455
0.649143672642
0.70030971434
0.677462104338
0.689306986446
0.684337835428
0.686657414848
0.686540839542
0.687248896639
0.687896998001
0.688694127061
0.689586018188
0.690397921689
0.690884688554
0.690747366059
0.689584897266
0.687028569202
0.683008193471
0.677833834842
0.645844949438
0.69962051689
0.675961333562
0.688210822843
0.683419843124
0.685908137029
0.685889356477
0.686670128876
0.687403125176
0.688275399385
0.689173249407
0.689916788336
0.690226036848
0.689883639142
0.688561474594
0.686040496454
0.682351864067
0.677768592883
0.641823774869
0.698759798978
0.67424555532
0.68702733947
0.682449780011
0.685290841841
0.68557699802
0.686575135906
0.68741411924
0.688284027514
0.689064436337
0.689560338043
0.689528089079
0.688816450547
0.687251970476
0.684703995112
0.681317557644
0.677246587695
0.63657498261
0.697816430365
0.672084940082
0.685588771753
0.681229240119
0.684487325115
0.68511965531
0.686375435534
0.687338565696
0.688164088873
0.688766527818
0.688941650255
0.688508923159
0.687444246037
0.685662826669
0.683138169094
0.680029861534
0.676483361934
0.631042469056
0.696807319797
0.669611281957
0.683829225684
0.679579183071
0.683194418652
0.684081567535
0.685524419748
0.686536322692
0.687306912812
0.687706877794
0.687619527978
0.686882180683
0.68559988862
0.683728786439
0.681320910958
0.678514892791
0.675411672522
0.626020769248
0.695882773253
0.667092638047
0.681890053702
0.677596600911
0.681421717024
0.682410510223
0.683905909705
0.68488469475
0.685531802614
0.685777109984
0.68549331164
0.684596836947
0.683221737389
0.681396810891
0.679153243896
0.676663222265
0.673924044665
0.62125857741
0.695168986183
0.664680716158
0.679949561616
0.675466484078
0.679353377322
0.680295559543
0.681744286011
0.682627198721
0.683151347778
0.68326585474
0.682862794155
0.681894096232
0.680526673448
0.678801680677
0.67674582094
0.674525660561
0.672106163826
0.618662271465
0.6950778091
0.663387911614
0.678837075706
0.674050687351
0.677786257931
0.67849451707
0.679731623308
0.680393145084
0.680707702034
0.680640225038
0.680105604654
0.679070213991
0.67771608983
0.676077645681
0.674169455981
0.672146310161
0.669964156232
0.623947944775
0.695690130132
0.66498627091
0.679570244067
0.674300906101
0.677356729838
0.677417447372
0.677992708853
0.67805848146
0.677843570469
0.677343925731
0.676491813173
0.675249597441
0.673785365575
0.672128625283
0.670283772469
0.668389908065
0.666412331177
0.628765407971
0.69688648185
0.666886875208
0.68083483264
0.6751882057
0.677703257162
0.677251675087
0.677347353359
0.676956521511
0.676365195579
0.675561247978
0.674501442581
0.673114294671
0.671591948724
0.669924297002
0.668135270761
0.666319867371
0.664471438435
0.630459944059
0.69770308954
0.668792331356
0.682207923732
0.676283114489
0.678321910894
0.677454727762
0.677133220069
0.676387413199
0.675496523877
0.674449926557
0.673226691684
0.671741889432
0.670164555776
0.668497077578
0.666738570973
0.664990138699
0.663204787121
0.638785054142
0.699539272252
0.670569023831
0.683470740309
0.677243324534
0.678834599521
0.677570897432
0.676874958183
0.675802887615
0.674625450203
0.67337504456
0.671987306333
0.670396274373
0.668749026045
0.667071102322
0.665312327826
0.663596199184
0.661877311042
0.631691572024
0.699966331026
0.672812434072
0.685171502369
0.678666612548
0.679792841773
0.678143437833
0.677064995392
0.675676426126
0.674240919509
0.672769708742
0.671221605531
0.669509666808
0.667785885976
0.66603226782
0.664237408318
0.662489810283
0.66077689859
0.65918942445
0.702301855353
0.674442264489
0.685948000642
0.679233484084
0.679923534679
0.677936115783
0.676571286549
0.674936650501
0.673297513606
0.671667192225
0.670025305824
0.668251291624
0.666491429233
0.664736461146
0.662929064008
0.661150832598
0.659418248287
0.615577983562
0.702478726073
0.67750984543
0.688696857101
0.681698219485
0.682001603907
0.679741232211
0.678081752123
0.676188058244
0.674296814162
0.672452317132
0.670627086225
0.668709439674
0.666808060541
0.664920767611
0.663011032602
0.661156043291
0.659492821431
0.711739731545
0.705489977271
0.680083236336
0.689009553653
0.682154789593
0.681843904423
0.679262047726
0.677274939127
0.675088968706
0.672907953051
0.670759427539
0.668777098245
0.666780349727
0.664808384633
0.662911527529
0.66099468191
0.659060863322
0.656953350114
0.564172638498
0.701293299206
0.687917634418
0.69521600976
0.68835814426
0.687915079315
0.685420550992
0.683601530662
0.681643752371
0.679699204632
0.677902630691
0.676227421542
0.674480132595
0.672745170735
0.671030711222
0.669185679124
0.66723817481
0.665666232187
0.835246411549
0.720512807732
0.69549966231
0.701786939613
0.695401571661
0.694289287996
0.691237503414
0.688487532983
0.685361084685
0.681982923527
0.678467679795
0.675175074981
0.671840609697
0.668369875362
0.664848271908
0.661260975353
0.657558830253
0.653972417348
0.649343396703
0.683052090883
0.678135129906
0.679834871082
0.672037518134
0.671030151743
0.6683719405
0.666316804861
0.664230007508
0.662397583596
0.660919297697
0.659539495591
0.658097322133
0.656985200514
0.656198699421
0.655539140508
0.655203908148
0.654436269232
0.500150314962
0.49978959636
0.499603079176
0.499621265061
0.49983559258
0.500211711439
0.500646678232
0.501106967795
0.501565924667
0.502005031508
0.502412285086
0.502780713404
0.503107001046
0.503390273736
0.503631386796
0.503832358577
0.503995797552
0.504125027754
0.504223116854
0.504292994274
0.504337886637
0.504359920885
0.504362284051
0.504345581668
0.50431159722
0.504259785772
0.504191652899
0.504106793598
0.50400570097
0.503887438273
0.503752130452
0.503599146142
0.50342876007
0.503240090449
0.50303325591
0.502808321773
0.502566372553
0.502306626474
0.502030235447
0.501737237869
0.501429011362
0.501106303148
0.500770822954
0.500424224864
0.50006866092
0.499706681404
0.499340908593
0.498974483372
0.498610683212
0.498252477951
0.497902736997
0.497562854459
0.497235971909
0.496926323693
0.496639280114
0.49637997606
0.496153808628
0.495966175439
0.495822597387
0.495728337258
0.495687466162
0.49570120014
0.495770488307
0.495898321315
0.496085656063
0.496329386395
0.496627451642
0.496977745668
0.497376967769
0.497822349127
0.498309637175
0.498834982712
0.499393636989
0.499981383698
0.500593573624
0.501226240506
0.501875433767
0.502536612438
0.503205990474
0.50388094272
0.504559432967
0.505238171492
0.505915110874
0.506587549913
0.507256265177
0.507918588637
0.508574426115
0.509230068005
0.50988176377
0.510533080167
0.511184776125
0.511837027248
0.512491999768
0.513123217241
0.513716074959
0.514308571139
0.514932497203
0.515573042459
0.516228319557
0.516892328687
0.517671023806
0.518543156705
0.518684798357
0.518731168587
0.518948213999
0.519390004592
0.520023017761
0.520369472442
0.52077478444
0.521140018602
0.521438819461
0.521696390993
0.521917934081
0.522125205234
0.522311032383
0.522483933343
0.522645979581
0.522801551744
0.522951229558
0.523093716284
0.52322602354
0.52334677755
0.523457247078
0.52355857143
0.523653539813
0.523743385024
0.523828852742
0.52391042996
0.523988476692
0.524063385168
0.52413551699
0.524205080735
0.5242722542
0.524337055025
0.524399545098
0.524459638689
0.524517320803
0.524572928859
0.524625993742
0.524676379355
0.52472235584
0.52476534842
0.524804544212
0.524838416901
0.524865253531
0.524883227653
0.524891216402
0.52488840605
0.524874085318
0.524847701788
0.524808156586
0.524753914354
0.524683243458
0.524594501571
0.52448590858
0.524355638627
0.524201631979
0.524021637659
0.523812681958
0.523571156049
0.523291695067
0.522968587073
0.52259376799
0.522155930039
0.521639628403
0.521027908163
0.520299821096
0.519438768996
0.51843150453
0.517255236428
0.515897036136
0.514360400904
0.51266302187
0.510847103218
0.508972973741
0.506984515757
0.504932493432
0.502894862336
0.500980715272
0.499492405454
0.500048115491
0.499814409943
0.499915864993
0.500203063502
0.50055184425
0.500908728531
0.501252224254
0.501572026055
0.501863614689
0.502124822648
0.502355340686
0.502554580907
0.502723453042
0.502862356765
0.502972681582
0.50305553395
0.503112739169
0.50314608443
0.503158028885
0.503150045591
0.503124655576
0.50308327105
0.503028211684
0.502959659484
0.502878990171
0.502785344939
0.502679565246
0.502560804756
0.502428844154
0.502282364947
0.502121189237
0.50194432897
0.501751195258
0.501540599157
0.501312874987
0.501067309053
0.500804209358
0.500523288792
0.500225059846
0.499909380376
0.499577231642
0.499229373637
0.498867296731
0.498492740651
0.498107969826
0.497715754057
0.497319479232
0.4969227717
0.496530285445
0.496147213377
0.495781166116
0.495437200402
0.495118221921
0.494827211505
0.494568072881
0.494344684275
0.494160860384
0.494022323063
0.493935018141
0.493901048732
0.493921880568
0.493999772473
0.494134337269
0.494321575828
0.494562524498
0.494859804003
0.49521359783
0.495623561781
0.496088757863
0.496608166193
0.497179871652
0.497801762131
0.498470523084
0.499182602041
0.499933901173
0.500719768193
0.501535092318
0.502374543877
0.503232600902
0.504105230682
0.504989328033
0.505881049315
0.506776217209
0.507672974403
0.508572999044
0.509471013544
0.510360310713
0.511250521072
0.512162547174
0.513077958766
0.513966027331
0.514860146868
0.515800156094
0.516755442465
0.517640444547
0.518449824555
0.519292291403
0.519984761131
0.520670885897
0.521389220696
0.522079588504
0.52290119033
0.523509657426
0.524165625082
0.524770508223
0.525353271791
0.525699965972
0.525966349138
0.526203838204
0.526449809113
0.526699223383
0.526957433935
0.527221568046
0.527488086076
0.527748514671
0.528007307279
0.528264172817
0.528521093546
0.528778310532
0.529032854977
0.529281037401
0.529520980645
0.529752596704
0.529977543817
0.530197706831
0.53041403165
0.530627238147
0.530837782192
0.531046168299
0.531252588467
0.531457135523
0.531659840624
0.53186084848
0.53206029076
0.532258571116
0.532456067535
0.532653412312
0.532851390852
0.533050732823
0.533251176122
0.533452560624
0.533656178985
0.533862444474
0.534071059633
0.534281136189
0.534492234908
0.534704752167
0.534919681606
0.535138254305
0.535361492847
0.535590519395
0.535826553371
0.536070820739
0.536324020083
0.536586017444
0.536855980924
0.537131910849
0.53741118139
0.537690181458
0.537965600142
0.538232399567
0.538484985494
0.538717909715
0.538927089693
0.539108801113
0.539260039874
0.53938436375
0.539473946614
0.539529569931
0.539552896136
0.539542261735
0.539490635465
0.539388387008
0.539233307616
0.538955735011
0.538647523651
0.538284184811
0.537874918337
0.537462327137
0.537029137828
0.500417769505
0.500342380367
0.500377139778
0.500492433767
0.500614280932
0.500714477457
0.500802228264
0.500884018384
0.500963586922
0.501041069201
0.50111591335
0.501186515327
0.501251227899
0.501308144857
0.501355856581
0.50139313084
0.501419458019
0.501434496189
0.501438636845
0.501432318927
0.501416439972
0.501391005584
0.501357545724
0.501315677595
0.501265761091
0.501207032269
0.501139651673
0.501062336308
0.500974621328
0.500875133001
0.500763274269
0.500637576042
0.50049765415
0.500342464346
0.500171663199
0.499984721347
0.499782093304
0.499563202543
0.499328614131
0.499078601201
0.498814087568
0.498536089088
0.498246186953
0.497946277852
0.497638733767
0.497326292352
0.49701226172
0.496700250463
0.496394316876
0.496098815417
0.495819931274
0.495564088657
0.495338210673
0.495146824104
0.494993445596
0.494880899522
0.494811531698
0.49478527468
0.494801246807
0.494860966007
0.494967112405
0.495121853566
0.495330588699
0.49559707418
0.495919556378
0.49629879106
0.4967359186
0.497231036449
0.497782556307
0.498387985809
0.499043529973
0.499744693163
0.500486338537
0.501263055382
0.502069356509
0.502899775049
0.50374906836
0.504612030525
0.505483776328
0.506359612424
0.507237433031
0.508114324918
0.508985884525
0.509849345678
0.51070855599
0.511565174284
0.512404999902
0.513225222132
0.514049882672
0.514888920268
0.515708624238
0.516481348947
0.517282755746
0.518088893247
0.518863935326
0.519609138528
0.520297594422
0.520830688538
0.521437753427
0.522233515704
0.523098462931
0.523717349266
0.524048438456
0.524392892693
0.524584392727
0.524824581144
0.525220474909
0.525788899308
0.526331703455
0.526804402157
0.527242300538
0.527648298036
0.528023576552
0.528371027424
0.528695016654
0.529003487244
0.529299725249
0.529587145848
0.529866975637
0.530137405972
0.530396405012
0.53064351209
0.530880110294
0.531108412312
0.531329532063
0.531544211836
0.531752951888
0.531956158048
0.532154180546
0.532347521135
0.53253688236
0.532722977911
0.532906280266
0.533087090442
0.533265663853
0.533442320786
0.533617621444
0.533791944656
0.533965445278
0.534137007985
0.534306582941
0.534475194879
0.534644048753
0.534812801378
0.534979931838
0.535144262702
0.535305280286
0.535462985401
0.535617255821
0.535767929136
0.535914815336
0.536057931969
0.536197156059
0.536332514467
0.536464262269
0.536592921688
0.536719225782
0.536844339893
0.536969467313
0.537096324785
0.537226634809
0.537362123668
0.53750454559
0.537655810594
0.537817322506
0.537990726702
0.538178667622
0.538381541333
0.538596076162
0.538819194852
0.539045734787
0.539265639932
0.539466573508
0.539624195829
0.539711960034
0.539712688918
0.539607442837
0.539389441435
0.539104066657
0.538905462436
0.500887296673
0.50076811088
0.500506010664
0.500365000629
0.500288076389
0.500228295188
0.500191516821
0.500177394373
0.500183707903
0.500207371932
0.500245215785
0.500293313795
0.500348378916
0.500406908244
0.500466154039
0.500523598237
0.500577503141
0.500626483791
0.500670014981
0.500707068695
0.500737983542
0.500762437271
0.500780575576
0.500791744155
0.500796303593
0.500792843107
0.500781020838
0.500759510595
0.50072750229
0.500683334731
0.500626104305
0.500554464675
0.500467547901
0.500363994123
0.500243864199
0.500106229219
0.499951158715
0.499778528818
0.499588941841
0.499382695715
0.499161010319
0.498925175764
0.498677148499
0.498419258588
0.498154321743
0.497885605606
0.497616944622
0.497352239675
0.497096010718
0.496853110745
0.496628208768
0.496424871021
0.496248805534
0.496104867293
0.495997529193
0.495930537585
0.495907314536
0.495929504066
0.495995688284
0.496103136104
0.496251176897
0.496440895207
0.49667499241
0.496958837378
0.497298956693
0.497699373685
0.498162183492
0.498688496715
0.49927806275
0.499929019087
0.500637969528
0.501399851201
0.502208156524
0.503055954562
0.503935867077
0.504839588218
0.505759728821
0.506690659432
0.50762521805
0.508556627593
0.509482626758
0.510403895585
0.51131236311
0.512198729321
0.513071303829
0.513938009551
0.514784730065
0.515578110567
0.516364472518
0.517154264979
0.51791328883
0.518624740236
0.519300863646
0.519962714564
0.520578960634
0.521199637132
0.521884518128
0.522625659925
0.523470183931
0.524273509074
0.52483949694
0.525094199147
0.525278206547
0.52550094172
0.525691078694
0.526013236282
0.526543128692
0.527215071497
0.527867589576
0.528455175099
0.528984372134
0.529453375244
0.529869622358
0.530243223481
0.530584233617
0.53090182066
0.531201036189
0.531486056539
0.531758143062
0.532016442825
0.532260003539
0.532489857244
0.532708991304
0.532919663583
0.533123033029
0.533319797275
0.533510613191
0.533696139411
0.533877075976
0.53405408926
0.534228079121
0.534399627466
0.534568948489
0.534736363194
0.534902268741
0.535067365101
0.53523222726
0.535397006467
0.535560939251
0.535722744948
0.535882161689
0.536040879522
0.536200801085
0.536361877541
0.536522935029
0.536683008498
0.536841804232
0.536999452519
0.537156169406
0.537312201052
0.537467716862
0.537622895135
0.53777758815
0.537931657696
0.538084975275
0.538237393701
0.538388624765
0.538538145231
0.538685297238
0.538829377005
0.53896999157
0.539106716421
0.539239223941
0.53936781676
0.539493249535
0.539617016502
0.539742582437
0.53987216008
0.540007541604
0.540151569874
0.540305727118
0.5404684081
0.540636004819
0.540800812393
0.540944324822
0.541060810537
0.541140189112
0.541180745724
0.54123440697
0.541432013133
0.501430300004
0.500764544944
0.500107979315
0.49986704354
0.499781429944
0.499725382138
0.499691835632
0.499677654469
0.499683183766
0.499707011923
0.499748031046
0.499803769866
0.499871576792
0.499948110728
0.500030648793
0.50011627392
0.50020305993
0.500288806442
0.500372410754
0.500452785922
0.500529429712
0.500601145828
0.500668268057
0.500729613221
0.500784711085
0.500832500831
0.500872364924
0.50090261003
0.500922296562
0.500929769774
0.500924003763
0.500903242769
0.500866840756
0.500813635921
0.500743083114
0.500654471656
0.500548156448
0.500423631718
0.500281551925
0.500122378767
0.499947308814
0.49975762279
0.499555305715
0.499342603359
0.499122331494
0.498897531362
0.498671881272
0.498449229887
0.498233678567
0.498029894378
0.497844060729
0.497680528992
0.497544623905
0.49744147665
0.497375115995
0.497349016823
0.497366982574
0.497431520402
0.497543061186
0.497703031241
0.497912556468
0.498172180391
0.498482065888
0.49884129204
0.499250773078
0.499713068431
0.500230556858
0.500804948148
0.501436202861
0.502123173484
0.502863090052
0.503651646621
0.50448201598
0.505348441588
0.506244278513
0.507160988641
0.508089896278
0.509027596927
0.509970363787
0.510905400286
0.511826434346
0.51274362314
0.513650678276
0.514529358543
0.515391412926
0.516251216047
0.517088535269
0.517883771836
0.518628586969
0.519357930992
0.520088944571
0.52076944848
0.521438352783
0.522078995965
0.522745356928
0.523523145215
0.524361007691
0.525179725859
0.525893397619
0.526365245616
0.526579955412
0.526665252779
0.526813735633
0.527033889126
0.527302784223
0.52770626523
0.528243589943
0.528842749669
0.529427639094
0.529973855746
0.530467781506
0.530903753731
0.531288379245
0.531631255905
0.531941943402
0.532228544816
0.53249655027
0.532750030643
0.532990449995
0.533217648907
0.533431721042
0.533634872533
0.533830331769
0.534019972142
0.534204412255
0.534383818365
0.534558352966
0.534728275108
0.534893967349
0.535055830355
0.535214148524
0.535369222282
0.535521503863
0.535671405747
0.535819494682
0.535966425804
0.536112533406
0.53625742852
0.536399530454
0.536537515199
0.53667123654
0.536803254475
0.536935898591
0.537069563701
0.537203485078
0.537336776229
0.537469123377
0.537600542585
0.537731220344
0.537861391566
0.537991193044
0.538120739327
0.538250172909
0.538379591335
0.538509068769
0.538638548267
0.538768013121
0.538897476612
0.539026828784
0.539155936164
0.539284965202
0.539414082004
0.539543563462
0.539674094013
0.539806353299
0.539941487794
0.540081863633
0.540228538182
0.540381728137
0.540542557977
0.540710161104
0.540881616202
0.541053787657
0.541220996371
0.541372587107
0.541507430587
0.541630629839
0.541757669257
0.541951168009
0.542326273433
0.501920729248
0.500079048427
0.499217847267
0.499222422281
0.499327175918
0.499375550928
0.49939742804
0.499412561733
0.499434772643
0.499470384321
0.499522401694
0.499589590913
0.49967056515
0.499762220494
0.499862323955
0.499967914627
0.500077121609
0.500187739813
0.500298682546
0.50040803489
0.500515494685
0.500619972197
0.500720805481
0.500816914668
0.500908094171
0.500992611095
0.501069671677
0.501137691394
0.501195537613
0.501241396874
0.501274107444
0.50129217227
0.501294604457
0.501280032013
0.501248382109
0.501198776622
0.501131306033
0.501045940884
0.500943460203
0.500824366961
0.500690168631
0.500542301587
0.500383001335
0.500214632565
0.500040127572
0.499862514299
0.499685436509
0.499512329832
0.499347182165
0.499194527831
0.499060273799
0.498948663039
0.498865447888
0.498815832924
0.498804469056
0.498835467446
0.498912584857
0.499035115387
0.499201475914
0.499410679438
0.499662642241
0.499957472143
0.50029710651
0.500683402272
0.501121349311
0.501614489772
0.502166405418
0.502779296946
0.503452810635
0.504184007037
0.504970404175
0.505806071534
0.506681990359
0.507589535979
0.508524614593
0.509477362736
0.51043401518
0.511389070514
0.512346340263
0.51329645738
0.51421485269
0.515137061072
0.516046555564
0.516930105872
0.517776530088
0.518581879613
0.51936884192
0.520131372574
0.520869856915
0.521602663335
0.522287936986
0.522969957403
0.523724565037
0.524491971874
0.525278380332
0.52605088819
0.526742297208
0.527308275914
0.527724256152
0.527956303926
0.528071385958
0.528194378375
0.52839731749
0.528658424425
0.528987910242
0.529417263778
0.52991608138
0.530438203926
0.530950609821
0.531436783562
0.531881593522
0.532280396074
0.532637411951
0.532959405168
0.533253461604
0.533525748289
0.533780938883
0.53402199824
0.534249854424
0.534464065426
0.534664956847
0.534854963754
0.535036720587
0.5352116514
0.535380118966
0.535542175896
0.535697938389
0.535847724603
0.535992037725
0.536131514039
0.536266887384
0.536399096537
0.536528901681
0.536656950426
0.536783972753
0.536910713259
0.537037389286
0.537162960856
0.537285528359
0.537403330861
0.537516655251
0.53762816784
0.537740174437
0.537853329205
0.53796703511
0.538080615973
0.538193736328
0.538306358948
0.53841858511
0.538530377192
0.538641785245
0.538752853208
0.538863646532
0.538974317988
0.539084958265
0.539195680471
0.539306548131
0.539417663014
0.539529044468
0.539640764555
0.539753128695
0.539866449156
0.539981227011
0.54009834375
0.540218837889
0.540344075828
0.540476361776
0.540616896303
0.54076624452
0.540925655483
0.54109413399
0.541268931324
0.54144763346
0.541626266725
0.541796015213
0.541957094068
0.54211778802
0.542300014227
0.542564132167
0.54299969957
0.502172122393
0.498665276346
0.498096970094
0.498681780924
0.499027533218
0.499178342279
0.499253987873
0.499307861214
0.499365616987
0.4994350623
0.499520125546
0.499619590295
0.499732448128
0.49985567127
0.499987547866
0.500125189866
0.500267203213
0.500411157825
0.50055612214
0.500700690877
0.500844125809
0.500984904315
0.501123036151
0.501257044397
0.501386215606
0.501509359301
0.501625635261
0.501733264378
0.501831222801
0.501917792316
0.501991889727
0.502051793911
0.502096825608
0.502125892726
0.502138479033
0.502134026301
0.502112937044
0.502074966974
0.502021024125
0.501951841691
0.501868961962
0.501773868354
0.50166879029
0.501555935593
0.501438021402
0.501317528101
0.501197576385
0.501080972809
0.500970636691
0.500870025916
0.500785742823
0.500721339302
0.500683180295
0.500678496147
0.500713685117
0.500794622124
0.50092454015
0.501100145479
0.501319653659
0.501581116178
0.50188349151
0.502224045601
0.502602484051
0.503021341236
0.503487867254
0.504006082718
0.504581550162
0.505218608739
0.505916921518
0.506672404663
0.507481935853
0.508342662941
0.50924175993
0.510165079922
0.511109626912
0.51206946628
0.513029527333
0.513983915534
0.514942218511
0.515887198407
0.516810154919
0.517697066944
0.51854458182
0.519379124237
0.520191321147
0.520970629477
0.521716363269
0.522429528223
0.52314761788
0.523894954878
0.524628282248
0.525381064241
0.52614237982
0.52686662641
0.527549832995
0.528145941493
0.5286274037
0.528989281168
0.529251417331
0.529427313284
0.529584554643
0.529780735629
0.530027220929
0.530316770367
0.530668416672
0.531085031549
0.531536077395
0.531994593063
0.532442865626
0.532868565612
0.533261397351
0.53361879727
0.533942922875
0.53423774656
0.534507727024
0.534757210441
0.534989615141
0.535207105898
0.535410248021
0.535598979935
0.535774440228
0.53593930841
0.536096317232
0.536247029549
0.536392119605
0.536531883646
0.536666612205
0.536796686493
0.536922622904
0.537045025711
0.537164483796
0.537281468806
0.537396354418
0.537509643332
0.537622041869
0.537734234116
0.537846167772
0.537956410839
0.538062846994
0.538163782203
0.538260001083
0.538354115048
0.53844841086
0.538543530155
0.538639051548
0.538734519027
0.538829736709
0.538924794971
0.539019680169
0.539114440984
0.539209059745
0.539303583359
0.539398064445
0.539492552003
0.539587162915
0.539682048117
0.539777312247
0.539873069404
0.539969375488
0.540066401973
0.540164533974
0.540264202228
0.540365965002
0.540470862741
0.54058006323
0.540694966946
0.540817718753
0.540949548421
0.541091190414
0.541243977365
0.541407223356
0.541578624217
0.541756817186
0.541939790668
0.542121207799
0.542302836788
0.542494664978
0.542722074683
0.543039768056
0.543513992261
0.502054965868
0.496735481362
0.497090231654
0.498375974605
0.498858617554
0.499075359047
0.499206697389
0.499320545643
0.499438553598
0.499565844736
0.49970584226
0.499856259968
0.500017113197
0.500185524648
0.500360743175
0.500540155318
0.500722927787
0.500906985268
0.501091853554
0.501275640131
0.501458192234
0.501638189003
0.501815006699
0.501987590199
0.50215574543
0.502317803208
0.502473154271
0.502620369137
0.502758524322
0.502886019964
0.503001961913
0.503105090914
0.503194654731
0.503269604863
0.503329986959
0.50337517797
0.503405447937
0.503420994034
0.503422721911
0.503411300335
0.503388328159
0.503355175304
0.503313838062
0.503266141237
0.503214130501
0.503159492164
0.503103945319
0.503048894164
0.502995889137
0.50294667839
0.502906481919
0.50288135792
0.502879275316
0.502911771984
0.50299044285
0.50312546744
0.503317234822
0.503558924946
0.503846296177
0.504174127161
0.504535541954
0.504922972143
0.50533153314
0.505771531537
0.506251313321
0.50677865382
0.507361089099
0.508007221005
0.508719991574
0.50949089651
0.510312039966
0.511183958457
0.512096139054
0.5130219238
0.513975805107
0.514943669656
0.515902756435
0.516845201243
0.517759291004
0.518640163566
0.519509125235
0.520354425569
0.52116477671
0.521941654774
0.522682944767
0.523394748298
0.524100536161
0.524821073735
0.525559451548
0.52629992681
0.527010657711
0.527712472997
0.528367357967
0.528961907914
0.529494056181
0.529941585356
0.530299704722
0.530575766684
0.530796737488
0.530984742952
0.531182126661
0.531407331352
0.531663806064
0.531960069483
0.532307132707
0.532693643015
0.533095679074
0.533496991255
0.533886521818
0.53425600748
0.534599601008
0.53491587364
0.535205704841
0.535471219781
0.535715272914
0.535941030336
0.536151117793
0.536347188612
0.536529676196
0.536698776082
0.536855871463
0.537003407725
0.537143621698
0.53727779995
0.537406472906
0.53752981581
0.537647968222
0.537761165109
0.537869795735
0.537974370837
0.53807544662
0.53817355704
0.538269328159
0.538363512527
0.53845708726
0.538550780017
0.538644298688
0.538735991935
0.538823582738
0.538905747659
0.538983473948
0.539059223047
0.539135026414
0.539211446979
0.539288231227
0.539365055209
0.539441895952
0.539518807012
0.539595853046
0.539673039081
0.539750318672
0.539827713989
0.539905265497
0.539983070058
0.540061265838
0.540140036865