/*--------------------------------*- C++ -*----------------------------------*\
| =========                 |                                                 |
| \\      /  F ield         | OpenFOAM: The Open Source CFD Toolbox           |
|  \\    /   O peration     | Version:  v1806                                 |
|   \\  /    A nd           | Web:      www.OpenFOAM.com                      |
|    \\/     M anipulation  |                                                 |
\*---------------------------------------------------------------------------*/
FoamFile
{
    version     2.0;
    format      ascii;
    class       volVectorField;
    location    "27";
    object      Ua;
}
// * * * * * * * * * * * * * * * * * * * * * * * * * * * * * * * * * * * * * //

dimensions      [0 1 -1 0 0 0 0];


internalField   nonuniform List<vector> 
12225
(
(0.319054195429 65.0253473989 0)
(1.02359158041 14.0751486629 0)
(0.874334288974 14.1794558589 0)
(0.951050686455 13.8408805969 0)
(0.970159040723 13.6644992867 0)
(1.01632545592 13.443843832 0)
(1.05887882252 13.2007516012 0)
(1.10509724373 12.9192888958 0)
(1.14951106798 12.6086383977 0)
(1.19667415529 12.2846536025 0)
(1.25384950231 11.9514011494 0)
(1.3270985972 11.5887901834 0)
(1.40456847506 11.1486045095 0)
(1.46469735651 10.6076090949 0)
(1.55261824122 10.0187555818 0)
(1.89403453023 9.35664335636 0)
(2.7231902401 7.97667314876 0)
(3.32561046 4.32256249461 0)
(3.54118726951 -57.7658783364 0)
(1.06161636022 -9.25900734967 0)
(1.52001271447 -9.24887957561 0)
(1.42994465524 -8.93590228642 0)
(1.51218077665 -8.7052655962 0)
(1.54902565028 -8.4518769124 0)
(1.60154152032 -8.20175121229 0)
(1.65024072141 -7.95333337142 0)
(1.70213199511 -7.7029253645 0)
(1.76087194699 -7.44051679057 0)
(1.83346260927 -7.1479428109 0)
(1.91991550394 -6.80864856969 0)
(2.00487918269 -6.41475658013 0)
(2.07305514433 -5.96763589071 0)
(2.17084168747 -5.45326728381 0)
(2.44687221212 -4.81727796767 0)
(2.93380897973 -4.04540301192 0)
(3.00037754744 -3.34120067329 0)
(-1.34421539298 44.8212263531 0)
(1.31327318709 4.72750888015 0)
(0.993574018649 4.40314361009 0)
(1.11933231258 4.25553359448 0)
(1.09975562018 4.07928033676 0)
(1.12568729578 3.90534152755 0)
(1.13565997137 3.71681611302 0)
(1.14750214468 3.51029188315 0)
(1.1580877379 3.28083530808 0)
(1.17603171816 3.02635558151 0)
(1.20784499165 2.74526525231 0)
(1.25351732456 2.43276097995 0)
(1.29939182153 2.08125090749 0)
(1.33740076186 1.6918152457 0)
(1.41573010127 1.28395693531 0)
(1.64498350965 0.851269862628 0)
(2.00129676998 0.241805893442 0)
(2.06115658598 -0.745688233926 0)
(3.30866502706 -32.4873061888 0)
(0.883970251632 -2.42712026536 0)
(1.28053231433 -2.18509189457 0)
(1.18497215608 -2.08197793166 0)
(1.24879615533 -1.9394623779 0)
(1.26252114992 -1.79559009022 0)
(1.28760245118 -1.64317525055 0)
(1.30428983847 -1.48276429546 0)
(1.32025741084 -1.31294069727 0)
(1.33943199057 -1.13444935723 0)
(1.36721959141 -0.951578491305 0)
(1.40082667602 -0.774924856944 0)
(1.4276958151 -0.615595581752 0)
(1.44461102933 -0.47023424159 0)
(1.49150967674 -0.321301328289 0)
(1.62787049998 -0.203319674564 0)
(1.78665518535 -0.295214953474 0)
(1.71720792419 -0.745650059448 0)
(-0.702849468999 21.8859688935 0)
(1.26351944013 1.23399817475 0)
(0.98285141412 1.00952530547 0)
(1.10841304035 0.930792875976 0)
(1.09732586769 0.810416930995 0)
(1.1312448136 0.695177784872 0)
(1.14936292441 0.573561472586 0)
(1.17091143098 0.45301266742 0)
(1.19177753929 0.337256640925 0)
(1.21887935203 0.229723555724 0)
(1.25474571924 0.128941513201 0)
(1.2961449849 0.0283345779884 0)
(1.33421964246 -0.0758958210074 0)
(1.37236925204 -0.171142570396 0)
(1.44151605579 -0.235726498788 0)
(1.55969938352 -0.295378867043 0)
(1.64179564601 -0.457909046668 0)
(1.54343206109 -0.754117731736 0)
(2.58569984117 -14.488040259 0)
(0.836847425533 -0.666368155003 0)
(1.19297394639 -0.336576100733 0)
(1.10053144054 -0.360143650424 0)
(1.1547178932 -0.279975945319 0)
(1.16131649707 -0.243242133506 0)
(1.18012963103 -0.203201815008 0)
(1.19335512445 -0.173454745703 0)
(1.20857098426 -0.146553666728 0)
(1.22778182579 -0.123649342472 0)
(1.25270988309 -0.108394160792 0)
(1.2793948706 -0.109355422819 0)
(1.30318636001 -0.131325692186 0)
(1.33240235174 -0.167589088329 0)
(1.39003833543 -0.211950497296 0)
(1.47292868809 -0.293416337134 0)
(1.5080360025 -0.463369631177 0)
(1.41832468497 -0.682637319554 0)
(-0.01402182142 9.04983322135 0)
(1.15954706821 0.401121306656 0)
(1.03364092287 0.0257067976328 0)
(1.10641942693 0.103288411285 0)
(1.10899465732 0.0428406523651 0)
(1.132323786 0.0215981169426 0)
(1.14787568378 -0.0126471632079 0)
(1.16518834427 -0.0424495749785 0)
(1.18347088403 -0.069737377282 0)
(1.20579447139 -0.0925083125003 0)
(1.23125107231 -0.113906333448 0)
(1.25565833122 -0.13889804787 0)
(1.27645223519 -0.169077100311 0)
(1.30192975269 -0.201029427863 0)
(1.34532027326 -0.240337756725 0)
(1.39424304022 -0.317368717572 0)
(1.39793770001 -0.456370175421 0)
(1.32115650439 -0.611334730999 0)
(1.7052840118 -5.12989720768 0)
(1.00750789369 -0.22771568245 0)
(1.09547051364 -0.000833361496891 0)
(1.08560082854 -0.0551603095357 0)
(1.10939504589 -0.0341350864801 0)
(1.12166651554 -0.0413265043311 0)
(1.13571744999 -0.0467827091335 0)
(1.14939020877 -0.0581900941206 0)
(1.16537686083 -0.0718701518009 0)
(1.18493919714 -0.0888530715267 0)
(1.20676502035 -0.111035243652 0)
(1.2273124154 -0.140382870985 0)
(1.24564828624 -0.174921072077 0)
(1.26779723106 -0.211246716649 0)
(1.29841714227 -0.256169282725 0)
(1.32260336141 -0.330133179 0)
(1.30901859044 -0.439207499942 0)
(1.24418877138 -0.548269798449 0)
(0.859006320452 1.97848950774 0)
(1.02719739541 0.0327779408962 0)
(1.07086569953 -0.0404098114311 0)
(1.08049362599 -0.0256355734289 0)
(1.09686439916 -0.0393324360376 0)
(1.10993732262 -0.0477741405752 0)
(1.12246056156 -0.0593404088996 0)
(1.13513524061 -0.0713870108463 0)
(1.14946042674 -0.0845784904203 0)
(1.1661895341 -0.100404645307 0)
(1.18383081019 -0.121490704315 0)
(1.20000580939 -0.149263751387 0)
(1.21485895767 -0.182079275322 0)
(1.23195198681 -0.21869846756 0)
(1.25075063685 -0.265387683818 0)
(1.25821740218 -0.332815965673 0)
(1.23645313001 -0.417760717674 0)
(1.18189734324 -0.496455430787 0)
(1.15045389239 -0.7846011113 0)
(1.03520289378 -0.0283695783842 0)
(1.06320826524 -0.026588431418 0)
(1.07176174851 -0.0311522191652 0)
(1.08601204811 -0.0390722407819 0)
(1.09770196627 -0.0495873619391 0)
(1.10896197604 -0.0617456448664 0)
(1.12051115232 -0.0750635357617 0)
(1.1332209237 -0.0896190947841 0)
(1.14725841898 -0.106871089032 0)
(1.1611572608 -0.128652367095 0)
(1.17343683616 -0.155676578335 0)
(1.18453717357 -0.186886925131 0)
(1.19587001795 -0.222670421401 0)
(1.20462459755 -0.267727726044 0)
(1.20115668205 -0.326303624829 0)
(1.17636336419 -0.39234060211 0)
(1.13035467353 -0.450857054314 0)
(1.07855281642 -0.0164307430127 0)
(1.0252890068 -0.0338277563135 0)
(1.05852122035 -0.0346632604592 0)
(1.0633001413 -0.0386016344897 0)
(1.07608034474 -0.0462593617481 0)
(1.08606767094 -0.0563726409922 0)
(1.0960025913 -0.0681077748518 0)
(1.10613001839 -0.0813117602076 0)
(1.11695037495 -0.0961893238089 0)
(1.12821731539 -0.113932239725 0)
(1.13868155152 -0.135632296711 0)
(1.14744900241 -0.161513257957 0)
(1.15475548056 -0.191034016323 0)
(1.16052123564 -0.225021811976 0)
(1.16145465447 -0.266329730626 0)
(1.15137043366 -0.315477986859 0)
(1.12597923819 -0.366765032113 0)
(1.08674775033 -0.411064764375 0)
(1.07742696174 -0.18747531555 0)
(1.02491675988 -0.0312171865549 0)
(1.0502524955 -0.0393661792113 0)
(1.05500212178 -0.0421078498954 0)
(1.06556074907 -0.0502944161087 0)
(1.07428475594 -0.0601697137352 0)
(1.0828776175 -0.0717985795935 0)
(1.09158976937 -0.0849733829807 0)
(1.10054693829 -0.100053380554 0)
(1.1093613604 -0.117893099026 0)
(1.11698791058 -0.139186731334 0)
(1.12280889867 -0.163876424827 0)
(1.12683336571 -0.191770703804 0)
(1.1282123969 -0.22370901283 0)
(1.12413326867 -0.260785556943 0)
(1.11075238309 -0.302094257212 0)
(1.0863577312 -0.342847153897 0)
(1.0524880079 -0.377755685124 0)
(1.06864897121 -0.170776904802 0)
(1.02255888609 -0.032838646368 0)
(1.04387819133 -0.0394173200546 0)
(1.04758371626 -0.0434437636563 0)
(1.05632914171 -0.0514638463821 0)
(1.06367214228 -0.0614048003653 0)
(1.07089737775 -0.0729811959317 0)
(1.07808361675 -0.0862682880699 0)
(1.08513604298 -0.101475810181 0)
(1.09155606065 -0.119279197184 0)
(1.09653440959 -0.139893575791 0)
(1.09964070615 -0.163342592852 0)
(1.10050814522 -0.189485989742 0)
(1.09818495648 -0.218848808919 0)
(1.09046083894 -0.251510395498 0)
(1.0753488985 -0.28594756752 0)
(1.05214207774 -0.318877672158 0)
(1.02255180331 -0.346698048365 0)
(1.05575838793 -0.207539545546 0)
(1.02024133323 -0.0409646487653 0)
(1.03624192861 -0.0490422076432 0)
(1.03935215172 -0.0529911651096 0)
(1.04599171054 -0.0607719637983 0)
(1.05176597513 -0.0702132392719 0)
(1.05734224921 -0.081369804934 0)
(1.06270675207 -0.0942272969968 0)
(1.06756990268 -0.109029636459 0)
(1.07150858882 -0.125957048377 0)
(1.07381767413 -0.145243464898 0)
(1.07406910209 -0.166605399681 0)
(1.07191749484 -0.190212322953 0)
(1.06632549554 -0.215827990973 0)
(1.05605012066 -0.24331606803 0)
(1.03995284973 -0.270875510973 0)
(1.01847371704 -0.296730009183 0)
(0.992617485812 -0.318333476094 0)
(1.04235479083 -0.155751971092 0)
(1.01755840803 -0.0261646988327 0)
(1.02691719397 -0.034202860584 0)
(1.02964496392 -0.0400840666236 0)
(1.03396070957 -0.048467185331 0)
(1.03788743321 -0.0584800024104 0)
(1.04147071689 -0.069996984489 0)
(1.04464263665 -0.0831693868506 0)
(1.04714406513 -0.0979682353983 0)
(1.0484156653 -0.114554472281 0)
(1.04802478374 -0.132772967257 0)
(1.04555054001 -0.152553270069 0)
(1.04059327035 -0.17360181084 0)
(1.03248218429 -0.19587052717 0)
(1.02051636895 -0.218409141967 0)
(1.00444307892 -0.240479869325 0)
(0.984632943415 -0.26013523307 0)
(0.962569085588 -0.276948654427 0)
(1.01437569752 -0.396047482216 0)
(1.0097284717 -0.0876845651667 0)
(1.01824822763 -0.0912673479186 0)
(1.01964192898 -0.0941192879489 0)
(1.02189501008 -0.0989596621306 0)
(1.02373066807 -0.105474938938 0)
(1.02512275996 -0.113521908056 0)
(1.02598519591 -0.123286044579 0)
(1.02593027665 -0.134555834964 0)
(1.02469640066 -0.147427013001 0)
(1.02175656928 -0.161513781872 0)
(1.01686602894 -0.17681742221 0)
(1.0096513509 -0.192885758717 0)
(0.999869843456 -0.209500409307 0)
(0.987087009884 -0.225916418307 0)
(0.971600702882 -0.241463667095 0)
(0.953672084812 -0.255247639884 0)
(0.934684900859 -0.266588926076 0)
(1.06258483319 0.300534964991 0)
(1.01482657008 0.0624646791805 0)
(1.00734578699 0.0394918371123 0)
(1.00807782945 0.0283499232328 0)
(1.00790372419 0.01532600335 0)
(1.00750003842 0.00122652701895 0)
(1.00641697306 -0.0138774743631 0)
(1.00469859675 -0.0298509731685 0)
(1.00215068637 -0.0466260430143 0)
(0.998430155876 -0.0638672726537 0)
(0.993273075739 -0.0815762316538 0)
(0.98640613154 -0.0992632430976 0)
(0.977747194693 -0.11693160254 0)
(0.967101214092 -0.133884954206 0)
(0.954525453407 -0.150047781584 0)
(0.940147119459 -0.164480268309 0)
(0.924632581648 -0.177248308064 0)
(0.908744258802 -0.187378836811 0)
(0.785404903214 -1.59789834605 0)
(0.973570659453 -0.263933850452 0)
(0.983338889232 -0.217296693157 0)
(0.992710715701 -0.208073203853 0)
(0.988954174656 -0.199601648693 0)
(0.98546594223 -0.195358136628 0)
(0.981541478937 -0.193001850024 0)
(0.977060154791 -0.192469426048 0)
(0.971872511794 -0.193548715683 0)
(0.965644046275 -0.196002786101 0)
(0.958236674724 -0.199636556991 0)
(0.949431454933 -0.204123443965 0)
(0.939274867804 -0.209239597982 0)
(0.927691540146 -0.214600457667 0)
(0.91487394325 -0.219930350913 0)
(0.900946445169 -0.224836838024 0)
(0.886523306372 -0.229140263332 0)
(0.87168360189 -0.232546610871 0)
(1.56766032376 2.99698608514 0)
(1.06245051309 0.306033980094 0)
(1.05952873807 0.197638790125 0)
(1.00984228883 0.178594384384 0)
(1.00464436547 0.147168562146 0)
(0.997063000769 0.122544235242 0)
(0.991873645303 0.0986722735192 0)
(0.986104336412 0.0766638782213 0)
(0.97987175688 0.0559854283118 0)
(0.972840100307 0.0368751748817 0)
(0.964965971907 0.0190901687986 0)
(0.956091542174 0.00285138609409 0)
(0.94635834546 -0.0120327187576 0)
(0.935721720748 -0.0252927861556 0)
(0.924344871687 -0.0371317008865 0)
(0.912171236378 -0.0473430731152 0)
(0.899695390775 -0.0561674120267 0)
(0.887662695265 -0.0635262011244 0)
(-0.275674865799 -5.08024450112 0)
(0.928298619795 -0.336141695663 0)
(0.840219928088 -0.206679330092 0)
(0.935517364197 -0.235450951484 0)
(0.918038940976 -0.223538502469 0)
(0.918206899869 -0.221820768235 0)
(0.911435084412 -0.218027199232 0)
(0.90508898069 -0.216209287686 0)
(0.897840707164 -0.21533350053 0)
(0.889855753371 -0.215658452431 0)
(0.88119712052 -0.216590890244 0)
(0.871734698616 -0.218238621084 0)
(0.861740295657 -0.219903794912 0)
(0.851165453582 -0.221708306539 0)
(0.84027864798 -0.222904841817 0)
(0.829168632857 -0.223751509369 0)
(0.818332954382 -0.223509994137 0)
(0.807240311391 -0.222713127152 0)
(2.75209564805 8.18998006131 0)
(0.959105714383 0.436261078052 0)
(1.1086886531 0.216642264046 0)
(0.977974292692 0.259363081045 0)
(1.00408803001 0.226201710799 0)
(0.991616650616 0.215530776182 0)
(0.988182469123 0.199889419064 0)
(0.980588284126 0.186879950407 0)
(0.972827394855 0.174373442026 0)
(0.964203877309 0.162440581619 0)
(0.954918774849 0.151155839945 0)
(0.945106061171 0.140059606928 0)
(0.934783315694 0.129461696558 0)
(0.924149940547 0.118793553277 0)
(0.91309247125 0.108465205677 0)
(0.901786770508 0.0979901626813 0)
(0.890141255892 0.0879149742141 0)
(0.880602367519 0.0779823537968 0)
(-1.91375545025 -14.0368509732 0)
(1.0942204683 -0.764099371615 0)
(0.73840493089 -0.4208529502 0)
(0.956784232736 -0.514350082228 0)
(0.893686142687 -0.475195810854 0)
(0.905530044978 -0.475185354251 0)
(0.894167704233 -0.463576332821 0)
(0.888504230403 -0.455668168116 0)
(0.880334482333 -0.446832247386 0)
(0.872058183611 -0.437909466928 0)
(0.86305965112 -0.428714597398 0)
(0.853565439382 -0.418826941152 0)
(0.843559982903 -0.408681302588 0)
(0.833173670822 -0.397676761971 0)
(0.822509418494 -0.386545425199 0)
(0.811837472098 -0.374535900204 0)
(0.801636977156 -0.362652787228 0)
(0.790543715247 -0.350295646647 0)
(5.02716169825 21.6769323245 0)
(0.698515650883 1.10831288752 0)
(1.25206195578 0.582567788947 0)
(0.948212967864 0.723613650028 0)
(1.03687931799 0.655374943051 0)
(1.00627905084 0.648960027219 0)
(1.00949340703 0.621996600568 0)
(1.00058469571 0.600276777873 0)
(0.994357379961 0.575726627373 0)
(0.986550197121 0.550978280133 0)
(0.978628366971 0.52570308931 0)
(0.970091642885 0.500300708007 0)
(0.96134559562 0.474945726505 0)
(0.952208892714 0.449892593734 0)
(0.943046826529 0.425512276314 0)
(0.933622204279 0.402102988161 0)
(0.923969527843 0.379983616763 0)
(0.916697795248 0.359385217334 0)
(-4.47002390994 -31.5268190189 0)
(1.5462644882 -1.60305741409 0)
(0.580346109287 -0.930296073663 0)
(1.0164955411 -1.12046249374 0)
(0.872456184746 -1.0292860102 0)
(0.906958213987 -1.02557903218 0)
(0.885308664341 -0.993891917983 0)
(0.880024848239 -0.970204410036 0)
(0.868540079134 -0.942827757874 0)
(0.858060811042 -0.915490887692 0)
(0.846579069818 -0.887275373165 0)
(0.83501273495 -0.858731119878 0)
(0.823244828425 -0.829460302011 0)
(0.811560157185 -0.800344748393 0)
(0.80018080004 -0.771207384903 0)
(0.789348780868 -0.74272761698 0)
(0.779527831714 -0.714438352987 0)
(0.768283131498 -0.687723063165 0)
(6.97087558405 41.0296993982 0)
(0.129433567179 1.90508896808 0)
(1.43187461438 1.35518411731 0)
(0.910296439114 1.49751419757 0)
(1.08255980603 1.40193885084 0)
(1.02419662981 1.38503036115 0)
(1.03692750942 1.34095427044 0)
(1.02570742494 1.30496742778 0)
(1.02163703988 1.26541652494 0)
(1.01506654981 1.22636767636 0)
(1.00906301812 1.18664510698 0)
(1.00262728496 1.1466350746 0)
(0.996131466815 1.10621948995 0)
(0.989461436324 1.06602786229 0)
(0.982534709917 1.02597980402 0)
(0.975224494542 0.986101916371 0)
(0.966578679452 0.946659604117 0)
(0.960945193691 0.908251579148 0)
(-4.83939125057 -50.4147273962 0)
(1.90273827753 -2.3078014352 0)
(0.530176091839 -2.10090229424 0)
(1.04685015768 -2.07697979542 0)
(0.862585734031 -2.00160490694 0)
(0.911208231116 -1.95239243954 0)
(0.882637967745 -1.89752234819 0)
(0.878217733472 -1.84715387956 0)
(0.864795093794 -1.79696742375 0)
(0.853500121369 -1.74828962211 0)
(0.840768388923 -1.70047918545 0)
(0.827930546489 -1.65405369971 0)
(0.814724033825 -1.60854777533 0)
(0.801287083842 -1.56376632309 0)
(0.78782460148 -1.51947646972 0)
(0.775058778117 -1.47485080976 0)
(0.763851219275 -1.4290553145 0)
(0.750710084595 -1.38119989902 0)
(6.22630810705 59.627149826 0)
(0.243396875083 2.9885488215 0)
(1.39904829522 2.99283720167 0)
(0.975566731706 2.84530097117 0)
(1.11278181683 2.77658030643 0)
(1.06066517244 2.68075133364 0)
(1.06972083329 2.59804124651 0)
(1.05828488126 2.51465433265 0)
(1.05331758174 2.43549706818 0)
(1.04609279159 2.35931086184 0)
(1.03918600037 2.28645929464 0)
(1.0318705962 2.21670372577 0)
(1.02492614003 2.15034481982 0)
(1.01812095333 2.08763975556 0)
(1.01191563654 2.02865367127 0)
(1.0068274854 1.97337719354 0)
(1.0023397728 1.92105453078 0)
(1.00144022011 1.86942252456 0)
(-3.6637319319 -67.6839785444 0)
(1.67140021858 -4.35220458646 0)
(0.65156630245 -4.43718798089 0)
(0.999348314184 -4.16367318277 0)
(0.875502487118 -4.0461704055 0)
(0.902440958879 -3.88937728018 0)
(0.881888976936 -3.75473965614 0)
(0.876034992343 -3.62051092359 0)
(0.865138602217 -3.49310831409 0)
(0.855602970453 -3.36996798494 0)
(0.845137492596 -3.25222538632 0)
(0.834801523124 -3.1395563517 0)
(0.824781003421 -3.0324875219 0)
(0.815067135185 -2.93130290429 0)
(0.805764566729 -2.83651595002 0)
(0.797017475849 -2.74920250659 0)
(0.7878300041 -2.67150580014 0)
(0.772370496808 -2.60694381657 0)
(4.17029108132 72.6497857285 0)
(0.703139093562 6.71200752212 0)
(1.37648850042 7.03908781417 0)
(1.14213640603 6.55739531577 0)
(1.21120365859 6.34999085582 0)
(1.18202502768 6.07691840941 0)
(1.18447684514 5.83735774806 0)
(1.17634304377 5.60003769536 0)
(1.17121194821 5.37393452924 0)
(1.16444583474 5.15585398149 0)
(1.15706230397 4.94621311084 0)
(1.14878707981 4.7444703875 0)
(1.14000736507 4.55036331516 0)
(1.13045887533 4.3637507982 0)
(1.12001404148 4.18479338506 0)
(1.10799162468 4.0136292638 0)
(1.09193640945 3.85095623351 0)
(1.07666910393 3.70150993949 0)
(-0.270093668785 -71.8926937918 0)
(0.914355478301 -9.46342977638 0)
(0.558893387979 -9.47341699486 0)
(0.666415800308 -8.92791528675 0)
(0.628588626923 -8.60893898674 0)
(0.637463587035 -8.24175504215 0)
(0.631022404925 -7.90799202126 0)
(0.628978418189 -7.5807593468 0)
(0.625004875291 -7.26705164463 0)
(0.620983160881 -6.96385422783 0)
(0.615897053895 -6.67059796737 0)
(0.61030244394 -6.38625509044 0)
(0.604536068546 -6.11120605861 0)
(0.598798316703 -5.8449327591 0)
(0.593391146738 -5.58552264422 0)
(0.588836929239 -5.33073249899 0)
(0.587400528924 -5.07513376243 0)
(0.590119758115 -4.79957175041 0)
(0.177247438187 -0.189816889947 -1.1745475448e-15)
(0.0734636214363 -0.0439770926415 0)
(0.196461040592 0.13770285764 0)
(0.141313850072 0.144728673653 0)
(0.0921427335615 0.128660263525 0)
(0.0492171536334 0.111861028419 1.49663554567e-16)
(0.0166020980203 0.100561693845 0)
(-0.00892245486482 0.0946298190967 0)
(-0.0278284188001 0.0941209987821 -8.04314411683e-17)
(-0.0427703924482 0.0975195745575 0)
(-0.0542218076526 0.10464219342 6.07985973419e-17)
(-0.063789401253 0.114039398402 0)
(-0.0717396087288 0.125691286833 4.87713868959e-17)
(-0.0791985393913 0.138424491512 4.43985121764e-17)
(-0.0863539758556 0.152575471442 0)
(-0.0940615034357 0.167383734478 -3.77332591115e-17)
(-0.10216214278 0.183600806978 -3.51552881647e-17)
(-0.111401033827 0.2007467365 -3.29505447764e-17)
(-0.121487561977 0.219759626937 0)
(-0.132415634439 0.240167993693 0)
(-0.143593425524 0.26281430486 0)
(-0.155146457123 0.287127840321 0)
(-0.166662750949 0.31385339446 0)
(-0.177928583704 0.342172987131 0)
(-0.18861269845 0.372666609419 2.37598116142e-17)
(-0.198499024496 0.404537768848 2.29922753802e-17)
(-0.207434124102 0.438353714129 0)
(-0.215696902774 0.473156771452 -2.17012260779e-17)
(-0.223352054202 0.509494794197 -2.11580956196e-17)
(-0.230269066264 0.546490008066 -2.06723812547e-17)
(-0.236380014739 0.584746182577 0)
(-0.241979536163 0.62326755142 0)
(-0.247230723982 0.662710560463 1.94960820302e-17)
(-0.251909501527 0.702198131769 0)
(-0.255960287334 0.742429280277 0)
(-0.2597264505 0.782447298802 1.8637246627e-17)
(-0.263383098618 0.823042841313 0)
(-0.266873250781 0.863259280623 0)
(-0.270314514131 0.90385822731 0)
(-0.273601566386 0.94389725762 0)
(-0.276814865882 0.98415600974 0)
(-0.279825546071 1.02370083615 -3.50378358195e-17)
(-0.282690729091 1.06332953178 0)
(-0.285353084041 1.10210340941 0)
(-0.287773720548 1.14085876871 -3.4319051391e-17)
(-0.290140361693 1.17859774816 -3.41255527219e-17)
(-0.292518616186 1.21619255668 0)
(-0.294956171373 1.25253860936 0)
(-0.297370226239 1.28848455438 -3.36697781681e-17)
(-0.300041804776 1.32286810252 0)
(-0.302920530064 1.35665256625 3.34623348643e-17)
(-0.306167979877 1.3883934268 0)
(-0.309701966326 1.41913267967 -3.33253487777e-17)
(-0.31320931776 1.44758875778 0)
(-0.316543430568 1.47488419939 -3.32532518801e-17)
(-0.320251692716 1.49934588556 -3.32400707872e-17)
(-0.32436736757 1.52189062332 0)
(-0.328489141351 1.54003255734 0)
(-0.332389251033 1.55475883157 0)
(-0.336444679775 1.56397203256 -3.3284075961e-17)
(-0.34077540759 1.56893444135 0)
(-0.344750436514 1.5679096583 0)
(-0.348220046369 1.56240440894 0)
(-0.351499541724 1.5507846775 0)
(-0.354800485402 1.53487125871 0)
(-0.357983896554 1.51315382801 0)
(-0.361095829114 1.48755053864 0)
(-0.36388462338 1.45665602157 3.39435327172e-17)
(-0.366250495597 1.42255329223 0)
(-0.368177341023 1.38391335949 3.42193832851e-17)
(-0.369742023663 1.34293384475 3.43720463087e-17)
(-0.371252787156 1.29815563625 0)
(-0.372607668813 1.25185060786 -3.47037250869e-17)
(-0.374374768325 1.2022050735 0)
(-0.376771227911 1.15169353093 3.50661389245e-17)
(-0.380072297761 1.09816612468 0)
(-0.384110708582 1.0441154805 -3.54546622084e-17)
(-0.388038203322 0.98786101545 3.56577265224e-17)
(-0.391341552342 0.932251664202 0)
(-0.395115734195 0.874893792997 0)
(-0.399530455225 0.818876127091 0)
(-0.404055165837 0.762105496898 0)
(-0.408482412211 0.707823622437 3.67562547369e-17)
(-0.41442658183 0.653063910486 -3.69921498893e-17)
(-0.422416258718 0.601334497028 7.44661111026e-17)
(-0.431455446184 0.550174396239 7.49568790489e-17)
(-0.440297929387 0.50364852695 7.54556992138e-17)
(-0.443767825589 0.460391977517 0)
(-0.437854095217 0.426421034487 0)
(-0.419998139411 0.405438729269 0)
(-0.409310959217 0.39572348728 7.75060954898e-17)
(-0.416261909706 0.394028712206 0)
(-0.434020444789 0.399417441455 0)
(-0.454146879797 0.413618250438 7.9114178285e-17)
(-0.474125907967 0.439876108767 0)
(-0.494533469743 0.4811463897 -8.03010375103e-17)
(-0.51750610593 0.540196344803 0)
(-0.545398516814 0.618801334354 8.170256218e-17)
(-0.580456657658 0.718469772874 0)
(-0.625035608004 0.838996153998 0)
(-0.682398596766 0.979954424834 0)
(-0.759716876308 1.13520919208 8.59178808657e-17)
(-0.854037276314 1.30480729304 0)
(-0.961415741067 1.4807991144 8.9314714838e-17)
(-1.06664892146 1.67170343736 9.15112154141e-17)
(-1.16194013141 1.86987479049 0)
(-1.2422614008 2.08673559789 0)
(-1.31296 2.30731527761 0)
(-1.37747699307 2.5400088734 1.0537038629e-16)
(-1.437813419 2.76674606453 0)
(-1.49184498439 3.00393635313 0)
(-1.54222877964 3.23667211421 1.24419152606e-16)
(-1.59071309523 3.49034187702 1.3344946967e-16)
(-1.63650044994 3.74734149098 0)
(-1.67076091725 4.04442034911 -1.57684457048e-16)
(-1.68967454895 4.37227502335 -1.74092912323e-16)
(-1.69117972234 4.77766515259 1.94577897791e-16)
(-1.65732374506 5.26062776452 0)
(-1.59553728683 5.84796109135 0)
(-1.53279776612 6.46850235304 0)
(-1.56391862948 7.2214173825 -3.64464332626e-16)
(-1.64764873962 8.06633207909 0)
(-1.69888693737 8.6272412982 -6.14586236696e-16)
(-0.913164580032 7.80488534746 0)
(1.30060515662 5.11503775272 0)
(-4.13886561098 -14.2775021965 0)
(-6.64683321575 -18.8989990532 8.49677366473e-16)
(-6.71518451369 -22.6668004297 6.26085110962e-16)
(-6.87344218753 -25.4828066451 0)
(-7.10550951103 -27.8122088351 0)
(-7.32516938685 -29.7729782774 0)
(-7.57119716429 -31.5665757155 0)
(-7.84787260875 -33.1602530454 0)
(-8.18025456735 -34.6885332156 0)
(-8.54721220047 -36.0825405546 5.72366304503e-16)
(-8.92950279306 -37.4683536129 0)
(-9.26064127821 -38.7715543765 0)
(-9.4003970567 -40.0991618602 0)
(-9.18894819859 -41.3247456084 -5.05036931575e-16)
(-8.52411017707 -42.4463041922 -4.97065290707e-16)
(-7.52966580252 -43.2760606868 4.91440741874e-16)
(-6.36920893194 -43.738203119 4.87732892615e-16)
(-5.21920769152 -43.7256117173 0)
(-4.10132863215 -43.3524949595 0)
(-2.92592930021 -42.7301042239 0)
(-1.65339520258 -41.8975849295 4.81409736498e-16)
(-0.25590681609 -40.8350673866 0)
(1.31678920942 -39.5583081071 0)
(3.11300925231 -38.0635151322 -4.88055734882e-16)
(5.20701539096 -36.3678790151 0)
(7.66053948128 -34.4981105717 -4.96902701449e-16)
(10.5715260633 -32.4733945678 0)
(14.0114426906 -30.3667368617 -5.08875448464e-16)
(18.1059604894 -28.1963245193 0)
(22.9294641812 -26.097806323 0)
(28.6315497621 -24.0830040264 0)
(35.278988267 -22.3592121269 0)
(43.0360824974 -20.9066749818 0)
(51.935778354 -20.0174836697 0)
(62.1455710402 -19.6204574714 0)
(73.6534842999 -20.1245619439 0)
(86.6201516612 -21.3716577379 -6.1419088681e-16)
(100.96824274 -24.0410105101 0)
(116.996528848 -27.9350295196 0)
(134.659701765 -33.8357017693 -6.91138555581e-16)
(154.290071264 -41.6172825151 0)
(175.883223779 -52.2630505765 0)
(199.898365574 -65.2118961022 -8.20055733372e-16)
(226.645915195 -80.6138756759 0)
(256.319422989 -94.6278502946 0)
(291.145673664 -108.155275976 -1.03884519256e-15)
(328.34930669 -110.615075684 1.14133592737e-15)
(361.999474073 -96.2709749034 -1.26288174947e-15)
(392.50054224 -41.5084912731 0)
(412.128015477 83.6837450269 0)
(408.591993603 324.855853205 -3.56256993151e-15)
(364.237565463 722.48041155 0)
(244.594796553 1276.27875091 4.60826522707e-15)
(82.696610715 1843.36625975 5.27491675465e-15)
(-415.826764361 2613.99661041 0)
(-0.490661083993 -0.325090411043 1.40395150813e-15)
(-0.0810175272205 0.00425026104004 0)
(0.0198181993205 0.110084755937 -3.1180484583e-16)
(0.029637219891 0.120222121652 2.44666732067e-16)
(0.0238409165296 0.095818404166 2.01552822614e-16)
(0.0220138138953 0.065726646222 -8.5044812201e-17)
(0.0255696433899 0.0387406547235 -1.46314656167e-16)
(0.0316569320451 0.0158830507808 0)
(0.0389458053596 -0.00317812051228 5.66904536441e-17)
(0.0457868609025 -0.0200266204267 -1.01685186747e-16)
(0.0517733076348 -0.0352331896684 -1.38196862437e-16)
(0.0563257821386 -0.0501133758935 8.42188727367e-17)
(0.0595038133255 -0.0647202070413 -1.16387826793e-16)
(0.0610681882455 -0.0799800345626 -3.59928276425e-17)
(0.0611558720253 -0.0955971043382 0)
(0.0596026708188 -0.112277580301 3.15428092691e-17)
(0.0566664283509 -0.129511071109 2.9762615769e-17)
(0.0522456234021 -0.14793692098 2.82136049805e-17)
(0.0465764998805 -0.166824232481 -5.37165773051e-17)
(0.0397130925933 -0.186796013557 0)
(0.0321070386329 -0.207173746609 -4.92445116868e-17)
(0.0239289820562 -0.228677174435 0)
(0.0152918712493 -0.250531663739 4.57559639031e-17)
(0.00637377419606 -0.273528604169 0)
(-0.00244450451027 -0.296956050478 -6.45171283555e-17)
(-0.0109499906041 -0.321625778895 2.0929436018e-17)
(-0.019217904661 -0.346874010498 4.08376484842e-17)
(-0.0272812265975 -0.373564375817 5.98889462501e-17)
(-0.0349929928976 -0.400885324518 1.95568175895e-17)
(-0.0421756686001 -0.42964399675 1.91934605064e-17)
(-0.0489316789 -0.459040413423 0)
(-0.0552556605603 -0.48994673044 3.7154468811e-17)
(-0.0610494586286 -0.521358413582 -1.83187132934e-17)
(-0.0661631156708 -0.554083791772 0)
(-0.0706461978333 -0.587180040568 0)
(-0.0745071801287 -0.621529761828 -1.76894950789e-17)
(-0.0778215673362 -0.655989394062 0)
(-0.0805501496961 -0.691426943036 0)
(-0.0827378399898 -0.726686114515 0)
(-0.0842625478567 -0.762645551847 0)
(-0.0851649304609 -0.798157399886 0)
(-0.0853341262412 -0.83411682016 -3.38060404693e-17)
(-0.0847964208117 -0.869395342563 -6.72764875608e-17)
(-0.0834968343543 -0.904911907525 0)
(-0.0814266036561 -0.939527748186 -3.33587066656e-17)
(-0.0786315709391 -0.974231816314 3.32571181377e-17)
(-0.07522877873 -1.00775119585 0)
(-0.0713171318878 -1.04111389816 0)
(-0.0667968882929 -1.07301691335 9.91442364204e-17)
(-0.0617102947756 -1.10461108112 6.60282999409e-17)
(-0.0563315132788 -1.13436283686 -3.30010078939e-17)
(-0.0507026872463 -1.16356258652 -6.59955263633e-17)
(-0.0445922756517 -1.19055806671 -3.30095656516e-17)
(-0.0378865859562 -1.21670722417 0)
(-0.0308716150609 -1.24035738126 9.9252995663e-17)
(-0.0238235034091 -1.26196689609 3.31137699489e-17)
(-0.0167307104931 -1.27942179376 0)
(-0.00946506157378 -1.29364129951 -6.63740040137e-17)
(-0.00210314553978 -1.30272076399 6.64737904393e-17)
(0.00529255982318 -1.30865086306 3.33012287111e-17)
(0.0128954837066 -1.30926496522 0)
(0.0210592827555 -1.30653173959 0)
(0.0298762524043 -1.29857527388 0)
(0.0392665231627 -1.28762942521 -6.7318173348e-17)
(0.0490876429058 -1.27154572521 0)
(0.0593261411714 -1.25257575265 6.782287606e-17)
(0.0699311146107 -1.22865077252 0)
(0.0809910204965 -1.2020965642 3.42102546557e-17)
(0.0925521443246 -1.17091549631 0)
(0.104539792485 -1.13760266286 3.45602384974e-17)
(0.116775965003 -1.10009254867 3.47524926272e-17)
(0.128912068701 -1.06107808018 0)
(0.140745804722 -1.01831610178 3.51740667053e-17)
(0.151979568906 -0.974803710855 0)
(0.162138662404 -0.927878748464 -3.56299772286e-17)
(0.170803990464 -0.880746289826 0)
(0.178401167251 -0.830405411366 3.61223530787e-17)
(0.185489760912 -0.780103664407 -3.63817027125e-17)
(0.191925919243 -0.727100330269 -7.32957096192e-17)