/*--------------------------------*- C++ -*----------------------------------*\
| =========                 |                                                 |
| \\      /  F ield         | OpenFOAM: The Open Source CFD Toolbox           |
|  \\    /   O peration     | Version:  v1806                                 |
|   \\  /    A nd           | Web:      www.OpenFOAM.com                      |
|    \\/     M anipulation  |                                                 |
\*---------------------------------------------------------------------------*/
FoamFile
{
    version     2.0;
    format      ascii;
    class       volScalarField;
    location    "14";
    object      p;
}
// * * * * * * * * * * * * * * * * * * * * * * * * * * * * * * * * * * * * * //

dimensions      [0 2 -2 0 0 0 0];


internalField   nonuniform List<scalar> 
12225
(
-3.55696865729
-4.30785737971
-4.55858581771
-4.62869864342
-4.68854296384
-4.74922926928
-4.79474728884
-4.82056275236
-4.8294024885
-4.82383575436
-4.80400915578
-4.76824912197
-4.7140077927
-4.63816918766
-4.53666620963
-4.40356670123
-4.22806943168
-3.99407136544
-3.73031372615
-4.31911508369
-4.56305557342
-4.63753896407
-4.69619427811
-4.75492010599
-4.79940824438
-4.82487983822
-4.83365538611
-4.82813656716
-4.80846487279
-4.77302146827
-4.71933214195
-4.64438987526
-4.54434864368
-4.41389169582
-4.24505805607
-4.04958671659
-3.87273621328
-4.30624895514
-4.54877715847
-4.63700128127
-4.6980655455
-4.75614464216
-4.80082723279
-4.82727909177
-4.83721690744
-4.83284319358
-4.81441258663
-4.7805378031
-4.72902352643
-4.65725235821
-4.56209990992
-4.43987248561
-4.28668450914
-4.11445483531
-3.99684614214
-4.31823007712
-4.55157715184
-4.65003434702
-4.71134268485
-4.76668294615
-4.81016018045
-4.83682809796
-4.84751170471
-4.8440745186
-4.82688997379
-4.79486929756
-4.74618566236
-4.67873062401
-4.59025941026
-4.47871742838
-4.34320886211
-4.19339842549
-4.10707701214
-4.34487354403
-4.55680953285
-4.65943992044
-4.72057605518
-4.77352639007
-4.81622245991
-4.84367618626
-4.85577345535
-4.85400007862
-4.83887341292
-4.80966281145
-4.76497947104
-4.70329021633
-4.62324513642
-4.5242012036
-4.40726299467
-4.28046877079
-4.20556184143
-4.38151631387
-4.56753869728
-4.67144902126
-4.73378278707
-4.78553151639
-4.8277836157
-4.8560841272
-4.86970549571
-4.86984024685
-4.85717123521
-4.83134864933
-4.79144875947
-4.73652312105
-4.66604386377
-4.58048673741
-4.48222462152
-4.37847923012
-4.29431302404
-4.42504413966
-4.58437370457
-4.6860569431
-4.74905348881
-4.79944883635
-4.84072977801
-4.86944744285
-4.88453852554
-4.88688478965
-4.87724152286
-4.85557551856
-4.82139716781
-4.77430283876
-4.71446480343
-4.64317609158
-4.56350544671
-4.4819671967
-4.37508473122
-4.47300779026
-4.60711875044
-4.70371398353
-4.76670366102
-4.81609886331
-4.85670470609
-4.88616839845
-4.90326413178
-4.90854179757
-4.90274950076
-4.88612364832
-4.85858985262
-4.82024889682
-4.77184526241
-4.71521944057
-4.65373018592
-4.59315489331
-4.44935744935
-4.5236146888
-4.63525822892
-4.72483720043
-4.78700315355
-4.83563318558
-4.8757920348
-4.90611407574
-4.92539659545
-4.93392983922
-4.9324388192
-4.92140140081
-4.9011266881
-4.87215056818
-4.83564060874
-4.79373676187
-4.74977993192
-4.70869000508
-4.51836167111
-4.57561040691
-4.66808569182
-4.74965665995
-4.8101997556
-4.85820399502
-4.89820816696
-4.9296144566
-4.95138659555
-4.96364767337
-4.96708636535
-4.96236420674
-4.95009817164
-4.93115248909
-4.90695883963
-4.87975051192
-4.85265704712
-4.82975062144
-4.58308955991
-4.62812877496
-4.70478806433
-4.77818031264
-4.8364932372
-4.88396999571
-4.92415837051
-4.95694960491
-4.98153839887
-4.99796166911
-5.00686267097
-5.00902265977
-5.00528031225
-4.99672127324
-4.98490695143
-4.97201673821
-4.9608571125
-4.95466658524
-4.63928974196
-4.6763446373
-4.74133440175
-4.80759041524
-4.86352404938
-4.91059590118
-4.95127626718
-4.98565632485
-5.01314420603
-5.03375750229
-5.04809791803
-5.05700254758
-5.0614344215
-5.06258951838
-5.06204729462
-5.06184747397
-5.06446269137
-5.07247899918
-4.69273071477
-4.72387392253
-4.77947035965
-4.83929662702
-4.8928063837
-4.9395651474
-4.98100686513
-5.01725308239
-5.047890329
-5.07294819635
-5.09298891428
-5.10886524165
-5.12159951966
-5.13242516558
-5.14286990161
-5.15478169708
-5.17028383153
-5.1913326439
-4.75105945746
-4.77737278579
-4.82477747802
-4.87843663185
-4.92939873952
-4.9759917259
-5.01866785219
-5.05744148589
-5.09203419128
-5.1225021481
-5.14936344601
-5.17344234152
-5.19575535916
-5.21749587002
-5.24006161476
-5.26503911787
-5.29416303965
-5.32877354283
-4.81400217643
-4.83665049236
-4.87747518884
-4.92579862695
-4.97447854634
-5.0212652116
-5.06582167004
-5.10796211566
-5.147470699
-5.18442203216
-5.21927242095
-5.25277031011
-5.28584501249
-5.31956689443
-5.35512346549
-5.39378908903
-5.43689077653
-5.48518723062
-4.88086038194
-4.90101382178
-4.93716863014
-4.98159540402
-5.02882960986
-5.07654094279
-5.1238732937
-5.17041291332
-5.21593275609
-5.26048642238
-5.30444471548
-5.34842018747
-5.39318500993
-5.43960334802
-5.48859641488
-5.5410952887
-5.59803306087
-5.65964050507
-4.95002131021
-4.96882529777
-5.00243789458
-5.04498213559
-5.09225859485
-5.14210888773
-5.19341039002
-5.24555942249
-5.29825707667
-5.35148713798
-5.40549006488
-5.46069848557
-5.51766330124
-5.57699171093
-5.639303942
-5.70519032912
-5.77522761545
-5.84919315569
-5.01792000605
-5.03651403084
-5.06990887743
-5.11310755724
-5.1625668259
-5.21629294063
-5.27306201859
-5.33214426141
-5.39313902928
-5.45591369729
-5.52054502498
-5.58725758365
-5.65635725669
-5.72818097208
-5.80305597961
-5.88127086941
-5.9631083155
-6.04799587783
-5.07695176887
-5.09671936475
-5.13276258023
-5.17991106797
-5.2344792869
-5.2944423512
-5.3585626525
-5.42605395538
-5.49640861707
-5.56935172577
-5.64478678499
-5.72273852432
-5.80328524432
-5.88652026355
-5.97251585588
-6.06131248454
-6.15295954831
-6.24661611338
-5.10294923697
-5.1253527081
-5.16701723004
-5.22112890014
-5.28285420028
-5.349999589
-5.42151700946
-5.4967143888
-5.57502348674
-5.65607700816
-5.73967653682
-5.82575266262
-5.91425329809
-6.00513907796
-6.09832762748
-6.19373127504
-6.29127397499
-6.39000299914
-5.10229638043
-5.12825271763
-5.17727511091
-5.23957328439
-5.30856855842
-5.38214525373
-5.45978542454
-5.54099928676
-5.62520972757
-5.71200387519
-5.80119991394
-5.89270980888
-5.98646192986
-6.08233469045
-6.18019414358
-6.27987239908
-6.38127624426
-6.48340046452
-5.08210026241
-5.11363928235
-5.17315159936
-5.24550580209
-5.32205777264
-5.40164134132
-5.48474018141
-5.57107963435
-5.66000490306
-5.7511145055
-5.84429744098
-5.93952599403
-6.03671775918
-6.13571607382
-6.23633049735
-6.33835341661
-6.44164194033
-6.5451499086
-5.04540593483
-5.08579659056
-5.15993424257
-5.24384585619
-5.32752300264
-5.41239056362
-5.50034473419
-5.59115315647
-5.68404439658
-5.77872099377
-5.87523156726
-5.97362321998
-6.07378898193
-6.1755205953
-6.27856501355
-6.3827021708
-6.48779434997
-6.59286466335
-4.99398100698
-5.04869805074
-5.14264200643
-5.23866467861
-5.32819256769
-5.41738580275
-5.5094122689
-5.60363251099
-5.69914503694
-5.79592548266
-5.89430794744
-5.99446244676
-6.09628929068
-6.1995270989
-6.3038743936
-6.40903556667
-6.51480169787
-6.62008122535
-4.92844978146
-5.00647711447
-5.12578095035
-5.23275572447
-5.32635799784
-5.41948682394
-5.51571487735
-5.61345658449
-5.71168360432
-5.81068819644
-5.91104604148
-6.0129986729
-6.11643858746
-6.22108950861
-6.3266427017
-6.43279088667
-6.53930641192
-6.64510083323
-4.84839145088
-4.96397874677
-5.11293152763
-5.22710904743
-5.32188092461
-5.41723483872
-5.51586836499
-5.61527821435
-5.71469744888
-5.8148417689
-5.91641747974
-6.01959965834
-6.12418596743
-6.22985358622
-6.33628349145
-6.443139224
-6.55005019203
-6.65559832634
-4.75264465452
-4.92726285158
-5.10687723115
-5.22472594257
-5.32142357875
-5.42059100114
-5.52208285281
-5.62282902125
-5.72290626674
-5.82368479701
-5.92603016009
-6.03002730097
-6.13537487422
-6.24171232508
-6.3487493933
-6.45618343525
-6.56357802843
-6.66920324625
-4.63935168555
-4.90281325331
-5.10207077925
-5.21348382096
-5.30990988042
-5.41277875236
-5.51710402912
-5.61921810552
-5.72009067681
-5.8216920351
-5.92499912572
-6.03000415066
-6.13630316354
-6.24351361656
-6.35139916935
-6.45976019959
-6.56816273542
-6.67434362406
-4.5069494356
-4.90962671113
-5.12141319731
-5.22049679453
-5.31374352084
-5.41756138361
-5.52242706261
-5.6242441954
-5.72463618896
-5.82596352116
-5.92925089485
-6.03439880498
-6.14091742323
-6.24840263425
-6.35668384926
-6.46578185032
-6.57575739968
-6.68544788226
-4.33623847355
-4.89074712053
-5.11662549838
-5.21217995462
-5.30649699942
-5.41265952118
-5.51907759998
-5.62168341269
-5.72253158531
-5.82423136049
-5.92787620516
-6.03335873052
-6.14017530457
-6.24792926622
-6.35649073816
-6.46603142395
-6.57704812587
-6.69411192785
-3.05871204405
-3.06364570207
-3.07014633195
-3.07353030229
-3.07626597441
-3.08529478125
-3.10713784033
-3.14409201486
-3.1984385891
-3.27211041208
-3.3666933798
-3.48344093991
-3.62329711484
-3.78692842828
-3.97475572823
-4.18698948111
-4.42366458961
-4.68467290129
-4.96979748938
-5.27873757363
-5.61113835545
-5.96660694628
-6.34473516039
-6.74510480587
-7.16730205226
-7.61091325583
-8.07552846758
-8.56073054413
-9.06608834207
-9.59113955551
-10.1353743078
-10.6982145844
-11.2789897749
-11.8769130942
-12.4910517767
-13.1203036234
-13.7633642937
-14.4187069453
-15.0845509854
-15.7588471494
-16.4392509602
-17.1231195763
-17.807501527
-18.4891549149
-19.1645573631
-19.8299375045
-20.4812990745
-21.1144732098
-21.7251755387
-22.3090879801
-22.8619433541
-23.3796241446
-23.8582523427
-24.2942553061
-24.6844040882
-25.0258218666
-25.3159906221
-25.5527631463
-25.7344376463
-25.8598470243
-25.9284682461
-25.9404051781
-25.8961987874
-25.7964094403
-25.6414873956
-25.4324448348
-25.1713785578
-24.8608831906
-24.5035355117
-24.1016056243
-23.6568971078
-23.1704890794
-22.6425824107
-22.0722023991
-21.4570164551
-20.7929802761
-20.0741719019
-19.2925447463
-18.4380313276
-17.498736537
-16.4617490566
-15.3141550856
-14.044609628
-12.6448954069
-11.1119261171
-9.44923842338
-7.6680061943
-5.78685676444
-3.83129108189
-1.83222128468
0.176208446475
2.15907871793
4.08312120514
5.91859135115
7.64079465319
9.23093641258
10.6764690534
11.9710727775
13.1138918815
14.1085005196
14.9617294191
15.6829618667
16.2832213238
16.7745965034
17.1687450872
17.4785493533
17.716659925
17.8981380253
18.0310251884
18.1275439559
18.1906597129
18.2141538076
18.1996151285
18.1544718587
18.0864105422
18.0018376339
17.9057912704
17.8022488938
17.6942932792
17.5843408158
17.4742124662
17.365306783
17.2586510391
17.1550373748
17.055002901
16.9589313421
16.8670096218
16.7793380784
16.6958863443
16.6166057594
16.5413770228
16.4701586196
16.4028714734
16.3393914288
16.2795328753
16.2230944324
16.1698185004
16.1194655444
16.071783315
16.0265470208
15.9835267612
15.9425151404
15.9033207729
15.8657775758
15.8297359807
15.7950606341
15.7616219258
15.7293088374
15.6980119824
15.6676238444
15.6380517706
15.6092197144
15.5810575905
15.553503872
15.5264962342
15.4999799218
15.4739241581
15.4483067403
15.4230857633
15.3982302316
15.3737567839
15.3496921066
15.3260242529
15.3027685419
15.2799608487
15.2576520309
15.2358712789
15.2146477063
15.1940482093
15.1741469316
15.1550034702
15.1367069931
15.1194363228
15.1034698558
15.0891039827
15.0766710976
15.0665414194
15.0590247165
15.0555025094
15.0431950557
-3.03764685415
-3.04449480263
-3.05778950575
-3.07359550043
-3.08188850719
-3.08812401683
-3.10685658379
-3.14238324892
-3.19654122117
-3.27091215022
-3.36685351972
-3.48544966467
-3.62750859472
-3.79358176632
-3.98399125082
-4.19886255247
-4.4381588138
-4.70171337469
-4.98926301398
-5.30047421278
-5.63497100177
-5.99235158331
-6.37220857915
-6.77413590615
-7.19773855735
-7.64263035037
-8.10843396144
-8.59477048076
-9.10124952256
-9.62745252219
-10.1729141776
-10.7371009186
-11.3193852852
-11.9190211216
-12.5351130687
-13.1665900964
-13.8121737298
-14.4703540364
-15.1393599133
-15.817138894
-16.5013316554
-17.1892624594
-17.8779336304
-18.5640424942
-19.2439970963
-19.9139391415
-20.5697712334
-21.2072115881
-21.8218642523
-22.4093040644
-22.9651771842
-23.4853085266
-23.9657868962
-24.4030133394
-24.7937333453
-25.1350518922
-25.4244473193
-25.6597968848
-25.8394546561
-25.9623732856
-26.0282695127
-26.0376485179
-25.9912851004
-25.8891445225
-25.7302675716
-25.5158414753
-25.2493281354
-24.93391801
-24.5725551096
-24.1678147887
-23.7217644319
-23.2357625794
-22.7102650947
-22.1445603188
-21.536520025
-20.8822736705
-20.1759347419
-19.4093686887
-18.5722071437
-17.652064718
-16.6352251332
-15.5077771763
-14.2572264686
-12.8742445028
-11.3546421033
-9.70113071423
-7.92443809401
-6.04325819782
-4.08344661288
-2.07646105643
-0.0572027227083
1.93874778022
3.87752083105
5.72890176748
7.46778818542
9.07506135117
10.5377122118
11.8487364262
13.006274095
14.0128739559
14.8744785623
15.6004313476
16.2021417359
16.6931503945
17.0874426969
17.401481549
17.6469632442
17.8396307913
17.9861599334
18.0868151871
18.1480365652
18.1713919322
18.159677998
18.1187740525
18.0552215692
17.9748693926
17.8825798195
17.7822774249
17.6770923348
17.5694787044
17.4613301918
17.3540890282
17.2488489377
17.1464316808
17.047432839
16.9522476685
16.8611041974
16.7741062925
16.6912829956
16.6126128227
16.538033311
16.4674235429
16.4005969436
16.3374340115
16.2778277744
16.221594572
16.1684978301
16.118296221
16.0707497788
16.0256307623
15.9827155882
15.9417949302
15.9026816741
15.8652142726
15.8292451166
15.7946370037
15.7612612297
15.7289982301
15.6977391922
15.6673837373
15.6378443477
15.6090419998
15.58090502
15.5533771106
15.5263992188
15.4999162804
15.4738790166
15.4482648368
15.4230566258
15.3982299368
15.3737734843
15.3496958382
15.3260054872
15.3027286712
15.2799020015
15.2575822159
15.235810078
15.2146036897
15.1939915519
15.1740495277
15.1548685083
15.1365428226
15.1192373067
15.1032107424
15.0887762202
15.0762836275
15.0661050682
15.0585115048
15.0545652005
15.0431532029
-2.99216043631
-3.00567629608
-3.02368477617
-3.04676438877
-3.07361740652
-3.10491356099
-3.1455511211
-3.1995292241
-3.26984141024
-3.35873210742
-3.46787244002
-3.59849417985
-3.75147459338
-3.92739949318
-4.12661283417
-4.34926141885
-4.59533514968
-4.86470283344
-5.15714656804
-5.47238817286
-5.81011601259
-6.17000164116
-6.55171741738
-6.95494250296
-7.3793711703
-7.82470906126
-8.29067131975
-8.77697147517
-9.28331003482
-9.80935684124
-10.3547314526
-10.9189805599
-11.5015516287
-12.1017664311
-12.718789641
-13.3516002071
-13.9989579928
-14.6593778364
-15.3310986023
-16.0120591178
-16.6998694915
-17.3917969102
-18.0847612132
-18.7753558342
-19.4598672826
-20.1342932923
-20.7943689461
-21.4356285657
-22.0534940072
-22.6433690203
-23.200764875
-23.7214184822
-24.2013639144
-24.6369690463
-25.0249667361
-25.362473415
-25.646992892
-25.8764331874
-26.0491797256
-26.164306507
-26.2218334641
-26.2225516899
-26.1668748303
-26.0534090267
-25.8820432228
-25.6558504541
-25.3784679957
-25.0533323144
-24.6838015173
-24.2729316148
-23.8232786588
-23.3366835704
-22.81403952
-22.2550137204
-21.6577675056
-21.0186318511
-20.3317607916
-19.5888466018
-18.7790631768
-17.8892283713
-16.9043530087
-15.8088002722
-14.5880537002
-13.2307257877
-11.7306555734
-10.0889923408
-8.31567632874
-6.42957123879
-4.45740308182
-2.43206510416
-0.390006133256
1.63160910863
3.59745337439
5.47605598052
7.24123472094
8.87293319306
10.3570195808
11.6856353572
12.8560471127
13.8708533659
14.7364768628
15.46466368
16.0688726132
16.5655121476
16.96831614
17.2963014906
17.559828019
17.7619232295
17.912444037
18.0171885424
18.0814927067
18.1084512337
18.1016937437
18.0664635688
18.0086026336
17.9335580412
17.8460465545
17.7499587218
17.6484628444
17.5440575772
17.4387058298
17.3339012331
17.2308027216
17.1302686461
17.0329398859
16.9392292396
16.8494062793
16.7635983391
16.6818451601
16.6041201319
16.5303899434
16.4605601409
16.3944962629
16.3320165864
16.2729968925
16.2172736435
16.1646298707
16.1148296538
16.0676465374
16.0228538151
15.9802349617
15.9395843308
15.9007140198
15.863461444
15.8276841184
15.7932488115
15.760028076
15.7279040627
15.6967729476
15.6665365539
15.6371074533
15.6084120949
15.5803716511
15.5529165133
15.5259889083
15.4995461548
15.473551687
15.4479639579
15.422754422
15.3979149755
15.373445355
15.3493643393
15.3256881659
15.3024499513
15.2796892409
15.2574124019
15.2356246442
15.2143752637
15.1937232031
15.1736929783
15.1543486593
15.1358309606
15.1183421186
15.1021528591
15.0875783458
15.0749437732
15.0645798758
15.0567379241
15.0522793378
15.0424233052
-2.96962209161
-2.98800244136
-3.01595018746
-3.0518119741
-3.09583392171
-3.14856699301
-3.21176024141
-3.28760627356
-3.37834462713
-3.48595465085
-3.61205836859
-3.75791982002
-3.92447462563
-4.11237433831
-4.32203160958
-4.55366554199
-4.80734370472
-5.08301968599
-5.38056767157
-5.69980978008
-6.04054193691
-6.40254923571
-6.78562257429
-7.18956348594
-7.61419013958
-8.05933285632
-8.52483098263
-9.01052009974
-9.51622009485
-10.0417161869
-10.5867387996
-11.1509394431
-11.7338635874
-12.3349226819
-12.9533608049
-13.5882231291
-14.238320412
-14.9021998444
-15.5781113636
-16.2639796452
-16.9573700532
-17.6554688346
-18.3550776421
-19.052639064
-19.7442602882
-20.4257277347
-21.0925297239
-21.7399283528
-22.3630750137
-22.9571254695
-23.517392807
-24.0394790416
-24.5193329617
-24.9532852605
-25.3381013059
-25.6710054976
-25.9496256143
-26.1719708635
-26.3365566381
-26.4427020568
-26.490737117
-26.4813702494
-26.4139595621
-26.2856202776
-26.0977432837
-25.8556793445
-25.5633488414
-25.2248886837
-24.844393956
-24.4256768505
-23.9720071396
-23.4858599447
-22.968663425
-22.4205020881
-21.8398355508
-21.2232133544
-20.5648949876
-19.8564475075
-19.0865592345
-18.2410840651
-17.3033922644
-16.2554108347
-15.0795706087
-13.7611568837
-12.2908098891
-10.6670912185
-8.89844044396
-7.00361623119
-5.0106654255
-2.95472518645
-0.875146494011
1.18804371219
3.19663554369
5.11634263601
6.91872638916
8.58208855852
10.09085531
11.4372642793
12.6193439479
13.6427115207
14.516663947
15.2558193214
15.8744115666
16.3909041635
16.8187081425
17.1638651166
17.4374993513
17.6489098516
17.806836075
17.9177808617
17.987170774
18.019315145
18.0185850295
17.9900500955
17.9390721595
17.8707324772
17.7895186477
17.6992264247
17.6029841361
17.5033066103
17.4021844149
17.301163294
17.2014449676
17.1039410986
17.0093240673
16.9180506098
16.8304165806
16.7465827936
16.6666218045
16.5905148565
16.5182290422
16.4497120698
16.3848547248
16.323502512
16.2655042501
16.2106746848
16.1588053387
16.1096775287
16.0630793996
16.0187992
15.9766307798
15.9363755333
15.8978557614
15.8609173561
15.82542274
15.7912404892
15.7582487212
15.7263283852
15.6953751991
15.6653002291
15.6360075229
15.6074148093
15.5794516719
15.5520621345
15.5252012216
15.4988087546
15.4728404775
15.4472707458
15.4220862149
15.3972828934
15.3728650888
15.348840728
15.3252344862
15.3020427884
15.2792632638
15.256927317
15.2350909474
15.2137760357
15.1929893759
15.172795289
15.1533036319
15.1346781567
15.1171375236
15.1009275904
15.0863335043
15.0736345489
15.0630292459
15.0546484382
15.0490962494
15.0388895675
-3.02117272458
-3.0431753763
-3.07716032595
-3.12242447266
-3.17896262424
-3.24711100012
-3.32777977353
-3.42218006309
-3.53165464964
-3.65750367678
-3.80088571004
-3.96276762361
-4.14390779731
-4.34486492525
-4.56601900905
-4.80760054387
-5.06972161561
-5.35240607883
-5.6556188267
-5.97928851192
-6.32332961462
-6.6876557574
-7.07219255285
-7.47688035181
-7.90167881263
-8.34656020171
-8.81150487328
-9.29648754536
-9.80146454671
-10.3263536586
-10.8710135533
-11.4352182391
-12.0186293596
-12.6207655939
-13.2409678245
-13.8783638044
-14.5318287745
-15.1999520382
-15.8809996299
-16.572880824
-17.2731077414
-17.9787672086
-18.6865107625
-19.3925822826
-20.0928464998
-20.7828020731
-21.4576010435
-22.1121367713
-22.7412011043
-23.3396389235
-23.9025323204
-24.4253362703
-24.9039228398
-25.3346277184
-25.714332623
-26.0404514319
-26.3107753316
-26.5234620065
-26.6771959363
-26.7716035448
-26.8072168526
-26.7838572879
-26.6982189728
-26.5485295008
-26.3393037726
-26.0764999706
-25.7646888931
-25.4088420686
-25.0139624305
-24.5847561626
-24.1252829897
-23.6386758866
-23.1269177633
-22.5905680098
-22.0284917631
-21.437631144
-20.8126445078
-20.1453268106
-19.4241688314
-18.6342368004
-17.7571560768
-16.7719009903
-15.6568587943
-14.3925039202
-12.9647297672
-11.3681685969
-9.60871669421
-7.7047348142
-5.6860793238
-3.59159000478
-1.46517389396
0.648753138553
2.7075792951
4.67271093846
6.51282809252
8.20603544326
9.736670843
11.1001220881
12.2972348539
13.337077665
14.230996928
14.9951772748
15.6445653418
16.1864395086
16.6315414308
16.9917809207
17.2784463537
17.5012246723
17.6686384874
17.7877588243
17.8645234538
17.9040331425
17.911131288
17.8908513377
17.8482347541
17.7880703513
17.7146182568
17.6315646585
17.5419698284
17.4483542791
17.3527164279
17.2566574993
17.1614109151
17.067948339
16.9769672291
16.8889789594
16.8043010918
16.7231440954
16.6455990547
16.5716847378
16.5013611158
16.4346111048
16.3713658805
16.3115296349
16.2549161403
16.2013108215
16.1505060284
16.1023113509
16.0565304654
16.0129720393
15.971441508
15.9317546117
15.8937430247
15.8572599354
15.822172886
15.7883521052
15.7556768517
15.7240410035
15.6933343202
15.6634614914
15.6343426091
15.605905558
15.5780952913
15.5508444797
15.5240859285
15.4977770667
15.4718877914
15.4463983804
15.4212940499
15.3965667789
15.3722196315
15.3482611092
15.324679492
15.3014640355
15.2786525859
15.2563060916
15.234440759
15.2130548517
15.1921906093
15.1719362661
15.1524139151
15.1337882458
15.1162586558
15.1000660816
15.0854020263
15.072418778
15.0612505683
15.0518965899
15.044606178
15.0323616354
-3.15348655747
-3.17524378177
-3.21082001039
-3.26063051801
-3.32448120893
-3.40246000535
-3.49498049217
-3.60265149523
-3.72618125372
-3.8662886861
-4.02364541866
-4.19883747116
-4.39234393336
-4.604533353
-4.83567040957
-5.0859311914
-5.35542234704
-5.64420127363
-5.95229647926
-6.27972429486
-6.62650490539
-6.99267067832
-7.37827574107
-7.78339590976
-8.20812997578
-8.65259178545
-9.11690442627
-9.60118480533
-10.1055306134
-10.6299988134
-11.1745849066
-11.7391954438
-12.3236194626
-12.927495424
-13.5502738246
-14.1911768946
-14.8491547223
-15.5228447514
-16.2105290373
-16.9100943476
-17.6189843169
-18.3341601255
-19.0520812077
-19.7687306979
-20.4796523191
-21.1799718235
-21.8644225734
-22.5274542399
-23.1634437156
-23.7668997691
-24.3326638097
-24.8560466151
-25.3328710825
-25.7595605299
-26.1332228427
-26.4515274292
-26.7124385015
-26.9142493841
-27.0558947461
-27.1372896874
-27.1587147433
-27.1181361371
-27.0091539732
-26.8340711389
-26.6015995015
-26.3162298227
-25.9833584039
-25.6087346195
-25.1981499439
-24.757075502
-24.2902773438
-23.8015290967
-23.2934566678
-22.7673221715
-22.2227084662
-21.6573058592
-21.0666361057
-20.4432697279
-19.7760757055
-19.0498321275
-18.2444921948
-17.3355921795
-16.2962242131
-15.10040693
-13.7274268876
-12.1665773995
-10.4204025747
-8.5066962114
-6.45778548341
-4.31818081574
-2.13959962156
0.0274147373816
2.13566021327
4.14312210909
6.01711534226
7.73873519178
9.29383725985
10.681556798
11.9054161338
12.9757420605
13.906323221
14.7038372849
15.3776286229
15.9402056418
16.4040103802
16.7810277393
17.08241765
17.318123666
17.4968953876
17.6262175867
17.7125098672
17.7613829619
17.7780304327
17.7674896994
17.7346314161
17.6840050192
17.6196957306
17.5452536276
17.4636794037
17.3774585064
17.2886058247
17.1987402155
17.1091428452
17.0208128595
16.9344960149
16.8507336504
16.7698917888
16.6922091577
16.6178155996
16.5467651656
16.4790465683
16.4146384233
16.3535392747
16.2956940344
16.2408939616
16.18889658
16.1395101452
16.0925629304
16.047881758
16.0052924732
15.9646168983
15.9256866545
15.8883486179
15.8524649576
15.8179069931
15.7845587024
15.7523026091
15.7210256735
15.6906326808
15.6610396828
15.6321762161
15.6039783206
15.5763702207
15.5492799132
15.5226591082
15.4964774239
15.4707069842
15.4453268894
15.4203186117
15.3956777966
15.3714113103
15.3475046042
15.3239385392
15.3007390472
15.2779698877
15.2556587898
15.2337954215
15.2124073054
15.1915538941
15.1713266946
15.151843002
15.1332606849
15.1157745357
15.0995336606
15.0846392723
15.0711897405
15.0592080419
15.0485441939
15.0391061511
15.0239637283
-3.34145212203
-3.3615189773
-3.39669719084
-3.44802538627
-3.5153485941
-3.59873123533
-3.69832805395
-3.81438683331
-3.9472048744
-4.09709131576
-4.26433994255
-4.44920951875
-4.65191268688
-4.87261386243
-5.11143324332
-5.36845614581
-5.64374521469
-5.93735335607
-6.24933753989
-6.57976887288
-6.92874306797
-7.29638501012
-7.68285346094
-8.08833807441
-8.51305870678
-8.95725504926
-9.42117932097
-9.90507984824
-10.4091871167
-10.9336910284
-11.4787194756
-12.0443090394
-12.6303751582
-13.2366755872
-13.8627706094
-14.5079774511
-15.1713199596
-15.8514797941
-16.5467462682
-17.2549690474
-17.9735035543
-18.6991605032
-19.428172604
-20.1562125192
-20.8784423946
-21.5895605905
-22.2838393738
-22.9552398795
-23.5976623385
-24.205213234
-24.7724212282
-25.2944376625
-25.7671228798
-26.1871992586
-26.5522236023
-26.8602068222
-27.1093279489
-27.2980624901
-27.4259145479
-27.4932218494
-27.4987974824
-27.4365591052
-27.3030994485
-27.1051690822
-26.8505355007
-26.543459065
-26.1896990333
-25.7955150461
-25.3673030758
-24.9112816321
-24.4331137049
-23.937557531
-23.4283325067
-22.9079033724
-22.3770759798
-21.8347580621
-21.2778025834
-20.7000157513
-20.0911710741
-19.4359192418
-18.7125561311
-17.8927337046
-16.9430704308
-15.8292050868
-14.5217665752
-13.0037370043
-11.2744495998
-9.35270104429
-7.27490408995
-5.09292153263
-2.86744959466
-0.655653897284
1.49375550679
3.5386854197
5.44520311046
7.19885895765
8.7873782375
10.2109199228
11.4770386549
12.5875122381
13.5490299448
14.3725887631
15.0701219487
15.6542670703
16.1376135284
16.5322730059
16.8495509002
17.0996119711
17.2914616692
17.4329030393
17.5307347245
17.5909141955
17.618877732
17.6196776996
17.5980779333
17.5584417201
17.5047056024
17.4402851939
17.3681174873
17.2906367463
17.209867888
17.1274325992
17.0446550453
16.9625519329
16.8819209607
16.8033287158
16.7271970548
16.6537898063
16.5832871424
16.5157608863
16.4512655276
16.3897845588
16.3313715289
16.2759849962
16.2233929769
16.17335794
16.1257148508
16.0803085005
16.0369905681
15.9956051507
15.9559974104
15.9180158131
15.8815215068
15.8463900138
15.812507187
15.7797550557
15.7480199882
15.7172070931
15.6872300458
15.6580117361
15.6294885877
15.6015836114
15.574220176
15.5473454999
15.520923398
15.494924321
15.4693197436
15.4440889783
15.419212524
15.3946981182
15.3705402315
15.3467146233
15.3232210277
15.3001179042
15.2774509931
15.2552102864
15.2334094629
15.2120911449
15.1913158852
15.1711700617
15.1517566503
15.1332391972
15.1157484491
15.0993443119
15.0840797384
15.0699872778
15.0569999358
15.0447499524
15.0327942679
15.0143225537
-3.55403383112
-3.57234372532
-3.60671670698
-3.6582361962
-3.72689399523
-3.81285958465
-3.91621192077
-4.03703029548
-4.17538201935
-4.3313213285
-4.50488685164
-4.69609996104
-4.9049658266
-5.1314776704
-5.37562364544
-5.63739543311
-5.9167982735
-6.21386027439
-6.52864177113
-6.86124178549
-7.211804217
-7.58051829821
-7.96762064047
-8.37338963106
-8.79814188953
-9.24222059013
-9.70598694284
-10.1898020311
-10.6940124445
-11.2189259303
-11.7647895775
-12.331758089
-12.9198626195
-13.5289708565
-14.1587443957
-14.8085875388
-15.4775913866
-16.1644744778
-16.867523248
-17.5845354421
-18.3127598717
-19.04883664
-19.7887485993
-20.5278214909
-21.2607821291
-21.9818382859
-22.6847341092
-23.3628583938
-24.0095344271
-24.6184234211
-25.1838272988
-25.7010215916
-26.1663909648
-26.5773950471
-26.9321610375
-27.2288176868
-27.4655987371
-27.6416852516
-27.7575787441
-27.8134785309
-27.8052928589
-27.7229023266
-27.5691532981
-27.353983599
-27.0800155793
-26.7521714656
-26.3767668942
-25.9608607758
-25.5117535004
-25.0367559315
-24.5427768978
-24.035857069
-23.5210968254
-23.0023674469
-22.4819533059
-21.9602353082
-21.4353986544
-20.902526965
-20.3522608119
-19.769000035
-19.1289074631
-18.3992402013
-17.5401017709
-16.5088138777
-15.2679275828
-13.7953962286
-12.0888929582
-10.1690530687
-8.07599053283
-5.86750163284
-3.61123982538
-1.36876900008
0.811838172939
2.89050522849
4.83170723903
6.62345927471
8.25761387099
9.72483737894
11.0261129721
12.167047958
13.1563460145
14.0051469592
14.7257635565
15.3310951017
15.8339710678
16.2466964661
16.5807054246
16.8463464191
17.0528027857
17.2081259154
17.319351712
17.3926815614
17.4336782018
17.4474198858
17.438567048
17.41135694
17.3695766325
17.3165399932
17.2550968125
17.187649923
17.1162015585
17.0423936533
16.967560513
16.8927573262
16.8188072459
16.7463257497
16.6757678212
16.6074466789
16.5415737884
16.4782628055
16.4176111736
16.3596629104
16.3044974739
16.252052906
16.2020808332
16.1543903271
16.1088394874
16.0652984282
16.0236399442
15.9837292072
15.94543197
15.9086159955
15.8731639071
15.838966497
15.8059115394
15.7738891728
15.7428067186
15.7125797163
15.6831230287
15.654372582
15.6262621457
15.5987118916
15.5716641979
15.5450772161
15.5189186052
15.4931577045
15.4677712786
15.4427374431
15.4180485276
15.3937051797
15.3696944966
15.3460065074
15.3226628755
15.2997133729
15.2771815172
15.2550648153
15.2333907249
15.2122012268
15.1915575857
15.1715219891
15.1522112036
15.1337423537
15.1161713584
15.0995127234
15.0837707199
15.0689216683
15.0547459922
15.0406769443
15.0260256044
15.0040823422
-3.7622504225
-3.7793224509
-3.81317240281
-3.8645393505
-3.93360634434
-4.02066400973
-4.12580438383
-4.24905641157
-4.39038194341
-4.54969968784
-4.72689937463
-4.9218533125
-5.1344285241
-5.36449742303
-5.61194928038
-5.87670035221
-6.15870422417
-6.45795994569
-6.77452009524
-7.10849456304
-7.46005426687
-7.82942986259
-8.21691096021
-8.62283875248