/*--------------------------------*- C++ -*----------------------------------*\
| =========                 |                                                 |
| \\      /  F ield         | OpenFOAM: The Open Source CFD Toolbox           |
|  \\    /   O peration     | Version:  v1806                                 |
|   \\  /    A nd           | Web:      www.OpenFOAM.com                      |
|    \\/     M anipulation  |                                                 |
\*---------------------------------------------------------------------------*/
FoamFile
{
    version     2.0;
    format      ascii;
    class       volScalarField;
    location    "14";
    object      pa;
}
// * * * * * * * * * * * * * * * * * * * * * * * * * * * * * * * * * * * * * //

dimensions      [0 2 -2 0 0 0 0];


internalField   nonuniform List<scalar> 
12225
(
18.5172663442
17.2983683459
18.1175331784
18.0025683736
18.3756027019
18.7970681251
19.518812853
20.5101697295
21.7379984182
22.9587988699
23.8808659364
24.1847002203
23.7118110072
23.0083273218
24.1465589327
30.5570606417
42.6052526502
45.9369541475
34.2166790449
28.0209157464
28.2714142618
28.5252634042
29.2168693846
30.0798106462
31.2086788751
32.5274481288
33.9345775941
35.2073206815
36.1451008323
36.569592502
36.5273675177
36.8271665519
39.4263627763
46.4898966001
55.4495014729
51.6996888834
15.7316158073
22.8011820929
22.8267318857
22.7700734775
23.130576759
23.632440503
24.3806289524
25.257232399
26.1477143303
26.8334073316
27.1375610821
26.9470513478
26.4522574782
26.563331978
29.0711693959
35.3450254775
42.2830862308
40.0638463266
36.5592644309
26.4650242418
25.7015501752
26.031513107
26.4833075533
27.1379108556
27.9907954332
28.9484359425
29.8719182649
30.5471026908
30.7804501541
30.4559629103
29.7758491752
29.5232869038
30.9777577036
34.5799580352
37.4437751924
34.3897241767
17.0453699416
23.0179252319
23.6639682372
23.7273045794
24.1602506912
24.7381012086
25.5359676794
26.4612361712
27.4066692394
28.2070884759
28.7126524933
28.8559286385
28.8486875357
29.2984465802
30.9198822964
33.4122916506
34.3948937272
31.487646151
27.4381254191
24.4521027088
24.8537464772
24.9563718038
25.2815183684
25.695308765
26.2564544427
26.8855852184
27.4997742847
27.9835897618
28.2496217492
28.3057782631
28.3873241587
28.9547970123
30.3226436322
31.8847422814
31.9568058503
29.5901885079
23.4325285947
24.0259996036
24.5717192724
24.8107262654
25.1873445524
25.6305780812
26.1699494147
26.7371315822
27.2576441693
27.6444126757
27.8485381499
27.9193838108
28.073798284
28.6190581812
29.6120970665
30.4373706671
30.059074913
28.192051118
24.2387041717
24.131072921
24.67245781
24.9245106189
25.2725493973
25.6632164257
26.1199073494
26.5853837424
26.9983673555
27.2962838805
27.4582096213
27.549289317
27.7394802975
28.1963638714
28.8341441194
29.153587391
28.5819728012
27.0970989651
24.1428122884
24.2671014107
24.7403221774
25.022139288
25.3452058051
25.691598072
26.0726576373
26.4454539354
26.7627845204
26.9842237408
27.1092271984
27.2026584824
27.3812834798
27.7102848235
28.051372503
28.0503458084
27.418679342
26.2147887552
24.1734472901
24.4057149181
24.8150080622
25.1026320461
25.3966177027
25.6985157157
26.010802233
26.3025058725
26.5393378764
26.6981534326
26.7897725057
26.8682485042
27.0021046189
27.194228166
27.3081870596
27.1159458364
26.4864344066
25.4892047077
24.2116145611
24.5405271137
24.8803964082
25.1573471347
25.4178013135
25.6759835177
25.9268088431
26.1491272894
26.3195320955
26.4271384608
26.4864623592
26.5361596356
26.608097859
26.6750317182
26.6264540921
26.3266193373
25.7252110083
24.883710922
24.2665188499
24.6448587393
24.9104548636
25.166262405
25.3929047583
25.6123288543
25.8135724207
25.9824365623
26.1032957931
26.1718303606
26.2015245504
26.2173803915
26.2293398825
26.201748657
26.0536949471
25.7043282386
25.1397147976
24.4089469329
24.3345637821
24.7267789498
24.9175252227
25.1457941715
25.338530276
25.5213862811
25.6792563537
25.802796333
25.881997467
25.9163051203
25.9168033397
25.8964858173
25.8526813911
25.7525630447
25.5381898302
25.1668108485
24.6403093979
24.0013031401
24.4085877277
24.787045492
24.9077254215
25.0980944868
25.2517600866
25.393784878
25.5069419822
25.5853259706
25.6231166065
25.621766468
25.5876513122
25.5272048934
25.4311658752
25.2722316285
25.0153211156
24.6384339292
24.1566729101
23.6004963182
24.4737889305
24.8185130498
24.8825646217
25.0275352915
25.1383073778
25.2348245261
25.3015234398
25.3337731621
25.3293553532
25.288174012
25.2172556612
25.1147488344
24.974116724
24.7743418257
24.4959893308
24.1304604665
23.6957007734
23.2178493928
24.5121222517
24.811079843
24.833170629
24.9319963232
24.999900258
25.0503210991
25.0713069871
25.0588596201
25.0119117495
24.9330073725
24.8233020915
24.6851503905
24.5096359087
24.2873160533
24.0041942746
23.6624998689
23.2760207931
22.8692797695
24.4908043519
24.7405231893
24.7354834676
24.7899947976
24.817028636
24.8239593259
24.8027218929
24.749691621
24.6658323005
24.5522983369
24.4126055519
24.2466592498
24.0515593459
23.8199026664
23.5468009788
23.2338295019
22.8967918359
22.551701907
24.4519498715
24.6244863922
24.5930749044
24.6042323795
24.5942746551
24.5620264371
24.5046249245
24.4180844633
24.3049749705
24.1666866287
24.0068462189
23.8261909575
23.6241143831
23.3963920159
23.1409381874
22.8604473322
22.568676921
22.2785416435
24.3985448422
24.4866369335
24.4305167905
24.4028273173
24.3619148963
24.2984129852
24.2138033787
24.1030935566
23.9708512035
23.8178597255
23.6489664825
23.4646692729
23.2664640571
23.0509067079
22.8176076111
22.568865207
22.3168783863
22.0730369036
24.215803212
24.3156741791
24.2435459697
24.1980072896
24.1415448706
24.0602651635
23.96252978
23.838177462
23.6986199652
23.5391918872
23.3695588447
23.1871192421
22.9966035445
22.792904808
22.5774403945
22.3505436791
22.1247763464
21.9073243522
24.5431933944
24.4887094186
24.3986188232
24.3474029088
24.2829586306
24.1982803611
24.0931954765
23.9687977831
23.8260489461
23.6704493586
23.5027506502
23.3277947229
23.1449237698
22.9539929979
22.7525299954
22.5443952771
22.3388138964
22.1526852108
22.9860081367
23.7036588718
23.6613121767
23.6262052518
23.5465133359
23.4477362938
23.3269566496
23.1893806677
23.0389149183
22.8765550591
22.7071780812
22.5329202565
22.3554821412
22.1723461325
21.9831642511
21.7879029877
21.5945711426
21.3896079399
27.5153083937
25.7401233576
25.5544494142
25.5235082026
25.4698472104
25.3863814872
25.2841820247
25.1632791751
25.0281428357
24.8811608348
24.7242311267
24.5603433745
24.3911168486
24.2169903628
24.0336186736
23.8462366758
23.662378946
23.5469386104
16.0489147289
21.7128381987
22.1414226511
22.1535262867
22.0407045419
21.9179825172
21.7726092875
21.6195348556
21.4595380415
21.2942584558
21.1269611085
20.9597255583
20.7923475919
20.6240734073
20.4551366225
20.2866221917
20.1220396303
19.8687814604
38.6083626531
27.7385753263
26.7691058698
26.7561458337
26.6791171094
26.5668701144
26.4458099111
26.3171880068
26.1857769895
26.0516059689
25.913317978
25.7713667526
25.6272842763
25.4800640104
25.3305537975
25.1789787434
25.0290882741
25.0125846103
0.63335408505
20.5651837668
22.7299270518
22.6160269043
22.5264139076
22.4195069218
22.2979788055
22.1679521576
22.0244138343
21.8635995374
21.6791399617
21.4675439925
21.2308224506
20.9748563495
20.7108148129
20.4590266714
20.2486966855
19.9439015586
52.0879603092
29.7144189237
26.6245749593
26.941667271
26.73871223
26.611230785
26.4567026262
26.3102418723
26.167750256
26.0290976774
25.8916860033
25.7549102781
25.6270892267
25.5189315052
25.44496918
25.4096008129
25.3853417505
25.4702551029
0.61787233695
20.5681704398
21.9019089688
21.7044707994
21.5601477642
21.396310082
21.2476235584
21.0898587653
20.9342125919
20.779882472
20.6256977111
20.4739272755
20.3281107433
20.1889683938
20.0568221004
19.9271495941
19.7871340783
19.4506510193
39.350447214
29.8052328563
30.0129982027
29.8343532679
29.703793251
29.5296711303
29.3600172179
29.1871121955
29.0136149028
28.8419477364
28.668894379
28.4926084909
28.3089073959
28.1052842105
27.8687138677
27.587463137
27.2256618293
26.9752780954
14.8754249434
16.034173771
15.9068393283
16.0620440846
16.0546063948
16.0732470231
16.0596602008
16.0457070456
16.0297163474
16.0213509797
16.0232799508
16.0365322273
16.0577265362
16.0718378775
16.0620172697
16.0455275042
16.1161823212
16.2649615696
15.2537247102
15.2610811174
15.2596863313
15.2598977264
15.2686946599
15.2863912833
15.316275835
15.3612122272
15.4164033614
15.4744072866
15.5288218058
15.5737232611
15.6080434853
15.6305891955
15.6445728848
15.651334494
15.655130305
15.6577425933
15.6625005029
15.6707824876
15.6845736157
15.7047426937
15.7319774181
15.7667873018
15.8088465241
15.8582446157
15.9141313603
15.9762303995
16.043294526
16.1146521955
16.1891009719
16.2657096808
16.3434895708
16.4214093241
16.4988771078
16.5748429552
16.6491277255
16.7209081055
16.7901102612
16.8561576391
16.9190987006
16.9786036601
17.0346505769
17.0871713528
17.1359921305
17.1813266099
17.2228563825
17.260986453
17.2954083523
17.3265102658
17.3539975019
17.3782301144
17.3989470179
17.4162442474
17.4299731991
17.439992473
17.4461057981
17.4482205665
17.4461518211
17.4399797543
17.429489464
17.4151105155
17.3971763889
17.3780684512
17.3619388264
17.3492322934
17.338287929
17.3273832273
17.3156757091
17.3016995223
17.2857359553
17.2664493259
17.2448779849
17.2196709437
17.1922915456
17.1615262188
17.128836911
17.0930222721
17.0548876118
17.0129663307
16.9677735777
16.9178792875
16.8634624145
16.8032183734
16.737226009
16.6647800803
16.5859887005
16.5004135948
16.408013127
16.3060777329
16.1920571424
16.063284384
15.9183855623
15.7591736727
15.5896598861
15.4157834008
15.2433930705
15.0801721154
14.9359144863
14.817930861
14.7242243989
14.6459697841
14.5739817441
14.5045391634
14.4070313367
14.2690169022
14.091506692
13.8994955805
13.7050787675
13.5293006442
13.3838945039
13.2555221453
13.1454441376
13.0505595327
12.9681670213
12.8963121402
12.8335749781
12.7788096267
12.7310116786
12.6891418515
12.6522288479
12.6194559196
12.5902050877
12.5639318261
12.540094569
12.5180409919
12.4972023269
12.4771077146
12.4576035767
12.4388047854
12.4210000128
12.4044611552
12.3897073959
12.3770211338
12.3667237169
12.3589858238
12.3538863745
12.3515702744
12.3521694758
12.3557242586
12.3622022081
12.3711513261
12.3823630631
12.3953932446
12.4102496552
12.4266468334
12.4446629913
12.4640492819
12.4849614796
12.5072113367
12.5309684269
12.555999302
12.5824378975
12.6099781545
12.6386727009
12.6680386563
12.6979179353
12.7275583256
12.7565641081
12.7839473443
12.809136605
12.8306788333
12.847487406
12.8576334451
12.8595350204
12.8502559984
12.8271252461
12.7859329491
12.7232594604
12.6349900828
12.5191489408
12.3745908412
12.2036874443
12.0102080081
11.7982086702
11.5678317962
11.3126354268
11.0163497356
10.6632099668
10.2495769056
15.269709749
15.2677825816
15.2688351915
15.2738626713
15.2826287397
15.3062634762
15.3481556729
15.4009942213
15.4560714971
15.5055298865
15.5455915887
15.574351164
15.5935059861
15.6042162055
15.609734604
15.6115458486
15.6123688405
15.6131923038
15.6156839761
15.6203484922
15.6278423404
15.6384439837
15.6520921582
15.668794873
15.6879914637
15.7095418643
15.7325305805
15.7565930057
15.7806477755
15.8040520014
15.8257376728
15.8448755082
15.8605977007
15.8719249002
15.8782356553
15.8786918236
15.8729091978
15.86017956
15.8403512951
15.8129278949
15.7778670583
15.7349622529
15.6842451041
15.6257874557
15.5596663958
15.4862250973
15.4056289825
15.3184355393
15.2248998462
15.1257383765
15.0213396325
14.9122628845
14.7989044389
14.6817265547
14.5612180206
14.4378840454
14.3123243535
14.1850336994
14.056657048
13.9276482852
13.7985119659
13.6694409326
13.5396586144
13.4055790838
13.2630363478
13.1164133955
12.9698624297
12.8258453835
12.686570926
12.5532076345
12.4271976514
12.3087924402
12.1987815885
12.0967318312
12.0028859311
11.916573792
11.8378095241
11.7658755282
11.7006517039
11.6418012939
11.5897464741
11.5449264214
11.5083286509
11.4810596144
11.4644200541
11.459683638
11.4677201714
11.4890914834
11.5233119736
11.5674984367
11.6171892844
11.6691676551
11.7212671613
11.7722582282
11.823108485
11.8784567957
11.9430181443
12.0214666245
12.1220382025
12.2552344425
12.4184217887
12.6035762447
12.8064527103
13.0279542436
13.2457308569
13.4212674771
13.5423562871
13.64557585
13.7426189362
13.8223091147
13.8566353725
13.8643031735
13.8627120687
13.8560935707
13.8460696808
13.8336164173
13.8194307595
13.8041009015
13.7879816736
13.771214002
13.7538447864
13.7359912262
13.7178902158
13.6997910985
13.6818865879
13.6643028354
13.6472486444
13.6310022074
13.6159294559
13.6023183233
13.5901963275
13.5797193944
13.5706727975
13.5628175348
13.5556768244
13.5490833321
13.5430165392
13.5374893479
13.532524161
13.528130904
13.5241158973
13.5200993088
13.5157748664
13.5108990096
13.505464785
13.4994510871
13.4930237343
13.4863110297
13.4795429189
13.4727955121
13.4662798867
13.4600696414
13.4543937371
13.4492893
13.4448999104
13.4410451493
13.4375962316
13.4340774492
13.4301650207
13.425058215
13.4179742463
13.4075920584
13.392766913
13.3716460648
13.3425691533
13.303086223
13.2508566736
13.1826925244
13.096033713
12.9879928338
12.8574539581
12.7043999508
12.5312960666
12.3399803495
12.1323601522
11.904511063
11.6445618953
11.3312391139
10.9549328666
10.5526674854
15.3271551658
15.3034457749
15.2633645591
15.2156407751
15.1774087741
15.1639548472
15.1757299572
15.2006093386
15.2249825509
15.2397088464
15.2424520912
15.2337209708
15.2170178421
15.1945799995
15.169731704
15.143716114
15.1186589548
15.0950764149
15.0742328075
15.0564247679
15.0424366764
15.0325089592
15.0270191714
15.0262591995
15.0302055872
15.0390151374
15.0524017885
15.0703184548
15.0921929278
15.1177254877
15.1462229938
15.1771573572
15.209794541
15.2435217837
15.2777377031
15.311730784
15.3451051916
15.377256453
15.4078468431
15.4364134755
15.4627549334
15.4865875604
15.507792051
15.5263057618
15.5420753479
15.5552599922
15.5658724244
15.574239008
15.5804845602
15.5849492903
15.5877807403
15.5893733526
15.5897778137
15.5891876215
15.5877030509
15.5855338789
15.5827811958
15.5795917227
15.5759559652
15.5719767384
15.5675923498
15.563048362
15.5593798037
15.5598222266
15.5620780596
15.5612762565
15.5559929297
15.5456106512
15.5297196776
15.5075276362
15.47878052
15.4430140761
15.4004560429
15.3510806088
15.2954791501
15.2339263037
15.167063289
15.0950750775
15.0182647936
14.9366713223
14.8504965365
14.7599250559
14.6653355575
14.5674137801
14.4671362087
14.3658619042
14.2649320509
14.1658838426
14.0693540757
13.9731557487
13.8739992195
13.7699688713
13.6609186066
13.5449702169
13.4216821026
13.2940855268
13.1690828524
13.0505370779
12.9478330658
12.8712512385
12.8187600596
12.7939885042
12.8200194321
12.8933367943
12.9628874981
13.0043925319
13.0860874311
13.2462387266
13.4341780118
13.563756468
13.6073065374
13.596515313
13.5640464801
13.5243096433
13.4840454961
13.4464117415
13.4129142295
13.3841247841
13.3600039127
13.3400641926
13.3236095261
13.3099809729
13.2986547623
13.2892582965
13.2814961489
13.2752195262
13.2702736108
13.2665690158
13.2638530781
13.2618639233
13.2604596845
13.2596224558
13.2590320393
13.2588294073
13.2590530758
13.2599331881
13.2615994581
13.2642583899
13.2681297602
13.2733805878
13.2798540645
13.287272451
13.2951597452
13.3032425833
13.3112282188
13.3191555
13.3270131468
13.3348863642
13.3426257536
13.3501340392
13.3572435312
13.3638939387
13.3699119735
13.3751583421
13.379439768
13.3824924583
13.3839210838
13.3832087649
13.3798537606
13.3731427006
13.3622113117
13.3460535326
13.3237353869
13.2938122196
13.2548619067
13.2048254435
13.1415305486
13.0621799995
12.964433619
12.8458673726
12.7060727555
12.5462152394
12.3699979484
12.1801934506
11.9801483748
11.7663943854
11.5264134171
11.2376146932
10.8873987974
10.5112415133
15.4172666887
15.2450175633
15.1085860896
15.017621252
14.954619163
14.9274193016
14.9353058424
14.9623199948
14.9914201614
15.0123741583
15.0229463871
15.0237680542
15.0179132496
15.0070913825
14.9937787963
14.9786512721
14.9632217774
14.9476495039
14.9329868171
14.9193249709
14.9073920083
14.897393141
14.8898199997
14.8848165674
14.8826020818
14.8832795681
14.886671067
14.8927245373
14.9009750075
14.9111703432
14.9226095726
14.9348906449
14.9473008544
14.9592901738
14.9701995061
14.9795588878
14.9868067414
14.9914673808
14.9932067513
14.9916225402
14.9864986191
14.9775852005
14.9647979413
14.9480574763
14.9274001764
14.9029101012
14.8747474186
14.8431076123
14.8081863802
14.7702601329
14.729546906
14.6861808574
14.640389553
14.5922652961
14.5418515218
14.4891937756
14.4343341322
14.3772760854
14.3179932845
14.2565445785
14.1930947855
14.1278049571
14.0605520123
13.9907659909
13.9243171514
13.8634110487
13.8082416356
13.758772101
13.715094368
13.6769393527
13.6440254499
13.6157119892
13.5915337347
13.5708342642
13.5532385653
13.5383371814
13.5259415043
13.5158650868
13.5080488694
13.50248193
13.4992405725
13.4984905165
13.5004140452
13.5053728305
13.5137521024
13.5261445835
13.5428792978
13.5641427004
13.5892773195
13.614537236
13.6356093125
13.6485801238
13.6507645141
13.640154693
13.6137475806
13.5716932846
13.5158549042
13.4456698618
13.364608215
13.2753679227
13.1812900164
13.1029525158
13.0539978826
12.9896990516
12.8762014579
12.7820670746
12.8310505535
13.0164786255
13.2401429541
13.4055727893
13.4980266282
13.5407435806
13.5587963732
13.5651435368
13.5659704584
13.5639618354
13.5602259203
13.5550968737
13.5485258283
13.5402480275
13.5299946269
13.5176924241
13.5035090146
13.4878038594
13.4710566645
13.4538715442
13.4368349102
13.4204325638
13.4049721716
13.3906902156
13.3778696442
13.3661881648
13.3554254332
13.3454819202
13.3365098202
13.3285597649
13.321785468
13.3164444536
13.3128709508
13.3112925439
13.3116902091
13.3137715886
13.3170511741
13.3211026952
13.3256267329
13.3305988145
13.3360373494
13.341992681
13.3484372346
13.3553892339
13.3627587454
13.3705072804
13.3784714995
13.3864714674
13.3941436388
13.401208372
13.4072559221
13.4117405164
13.413946064
13.4130326678
13.4080490523
13.3979813074
13.3817516528
13.3580932642
13.3255099265
13.2820093412
13.2251362936
13.1519168979
13.0595486278
12.9455676116
12.8092780981
12.6519301482
12.4767227651
12.2867852008
12.0853140338
11.8701209361
11.6321357449
11.3578739316
11.0396234937
10.7035009931
15.4382330633
14.9748636054
14.8005120423
14.7531490897
14.7162832566
14.7014940601
14.7174175581
14.7496178943
14.7824252206
14.8076536546
14.824046895
14.8324635383
14.8352467102
14.8335534649
14.8291475969
14.8224389985
14.8146062137
14.8057451314
14.7967237824
14.787596535
14.7791214357
14.7713398789
14.7648210973
14.7597143736
14.7563255081
14.7547503548
14.7550834296
14.757351242
14.7613430333
14.7669988455
14.7739106649
14.7819367002
14.7905140547
14.7995244894
14.8084446784
14.8170585638
14.8249942598
14.8320804476
14.8380045293
14.84262779
14.8457950537
14.8474212437
14.8474818378
14.8459939249
14.8430583319
14.838803098
14.8334234925
14.8271215291
14.8201843047
14.8127735533
14.8051411594
14.7974919929
14.7899405966
14.7825506906
14.7753779941
14.7684114378
14.7616276147
14.7550379456
14.7486203717
14.7423781924
14.7362028432
14.7300199104
14.7237956391
14.71538058
14.700586785
14.6785298654
14.6497097204
14.6149475826
14.5754134633
14.5321935821
14.4865126652
14.4392506669
14.3912692789
14.3429942284
14.2947335835
14.2463578573
14.197618209
14.1479197403
14.0966088837
14.0429501356
13.9863268571
13.9263547161
13.8630093704
13.7968793367
13.7293038322
13.6625539793
13.5994402464
13.5435149007
13.4969687768
13.4612772314
13.4339622276
13.4175408011
13.4105528368
13.4120024679
13.4174784466
13.4241666269
13.4236469057
13.4045441626
13.3609504584
13.2933101506
13.2099741883
13.1298214223
13.0366859815
12.8921314365
12.7321852869
12.6631509481
12.7515341795
12.9454103476
13.1556785346
13.3182876002
13.4231195877
13.481542361
13.5092815605
13.5174716301
13.5132379912
13.5012038845
13.4844283282
13.4650504339
13.4445168981
13.4237508828
13.4033777797
13.3838773276
13.3656804114
13.3490845929
13.3343543774
13.3216429799
13.3110365964
13.3024271965
13.2956409628
13.2902621838
13.2855450065
13.2810829001
13.2769754923
13.2732508045
13.2700982369
13.2675472645
13.2657710457
13.2650738968
13.2658770649
13.2685023112
13.2730917082
13.2793474213
13.2869662078
13.295545084
13.3049501369
13.3149278275
13.3254388318
13.3363007935
13.3475281882
13.3589625685
13.3705898827
13.3821891177
13.3937335748
13.4049556438
13.4155995139
13.4252068111
13.4334978306
13.4399711755
13.4441312058
13.445085873
13.4421043293
13.4341072891
13.4201283953
13.3988033504
13.3687743824
13.3280493974
13.2743903292
13.2047524182
13.1163590202
13.0066407697
12.874541848
12.7203265772
12.5458159794
12.3531546263
12.1445360169
11.9176242664
11.6669871426
11.3882543919
11.0815267878
10.7642158918
15.3243641504
14.4868809098
14.4123696823
14.4981804189
14.5113538216
14.5126073109
14.5322064881
14.5620229591
14.5910306345
14.6145891003
14.6325834282
14.6456497918
14.6551120122
14.6614388726
14.6656010114
14.6677038391
14.6684754971
14.6678513681
14.6664504167
14.664161003
14.6614601606
14.6583044105
14.6550943317
14.6517520042
14.6485879524
14.6455952689
14.642849486
14.6403529761
14.637999451
14.6357768507
14.633379135
14.6307957321
14.627671374
14.6239479614
14.619257511
14.613634765
14.6067428932
14.5985783843
14.5889714103
14.5779114813
14.5653251247
14.5512362799
14.5356929073
14.5187701959
14.5006331155
14.4814112045
14.4613739413
14.440679062
14.4196011111
14.3983269661
14.3771028099
14.3559676152
14.335079341
14.314404299
14.2938799
14.2734117928
14.2528850031
14.2321433017
14.2108747507
14.1886979273
14.1650777853
14.139434754
14.1114985024
14.0836696952
14.0573909374
14.0328364684
14.0099367956
13.9884861576
13.9683375835
13.9493110399
13.9314070524
13.9146423042
13.8992618293
13.8854798863
13.8736791229
13.8640804794
13.8568475637
13.8518206321
13.8485813951
13.8462422603
13.8434986565
13.8385314513
13.8291280256
13.8128550051
13.7874481262
13.7514310271
13.7043443618
13.6473636759
13.5843069478
13.5154627186
13.4459104725
13.3821412339
13.3300788279
13.2922857784
13.2653880544
13.2415629825
13.2099097983
13.1625630431
13.1021985773
13.0374481834
12.9754170016
12.9192582427
12.8389189078
12.7270249548
12.6511596638
12.6808939707
12.8188275653
13.0090450365
13.1954713546
13.3446277304
13.4508693278
13.519638349
13.5608117974
13.5831581147
13.5933342734
13.5960255715
13.5943680251
13.5903817091
13.5851736992
13.5791974466
13.5725184435
13.5650601801
13.5566879131
13.5472647806
13.536702736
13.5249392195
13.5119722194
13.4978628533
13.4827200512
13.4666839233
13.4502206283
13.4340456702
13.4184502721
13.4036643452
13.3896341278
13.3765427936
13.3645853741
13.354103717
13.3454964753
13.339104368
13.334936949
13.3327438987
13.332234248
13.3332001959
13.3355185603
13.3390473232
13.3436651543
13.3492199584
13.3556081781
13.36267573
13.3703056384
13.3783005961
13.3865187606
13.3947526382
13.4028254024
13.4103672663
13.4170129982
13.4223092339
13.4258031843
13.4268166876
13.4246699077
13.4184931473
13.407399454
13.3902397778
13.3657010004
13.3319388627
13.2868204738
13.2276778634
13.1518939593
13.0570280507
12.9417094233
12.8055485779
12.649135103
12.4734620736
12.2789093774
12.0617514666
11.8166336241
11.5412756375
11.2377162081
10.9169674572
15.062211487
13.85087187
14.036212156
14.2875195622
14.3292791818
14.3341099174
14.3494899068
14.3722569482
14.3953711567
14.4162539581
14.4346875443
14.4508216979
14.4650415284
14.4773846587
14.4881965351
14.4974105011
14.5053462169
14.5118815003
14.5172868133
14.5214188423
14.5245759648
14.5265789629
14.5276874217
14.5278494052
14.5272527399
14.5258776695
14.5238755993
14.5212729662
14.518074755
14.5143440008
14.5099790316
14.5050640716
14.499376045
14.4930743617
14.4859412576
14.4780823219
14.4693618126
14.459909658
14.4496120263
14.4385842117
14.4268107411
14.414386403
14.4013812931
14.3878953586
14.3740813682
14.3600581115
14.3460345715
14.3321427009
14.3186453497
14.3056213966
14.293289544
14.2817519728
14.2710751678
14.2611897742
14.2520270472
14.2434211732
14.2352771808
14.2274477293
14.2196443902
14.211429395
14.202156543
14.1911120006
14.1770816877
14.1589263527
14.1369914641
14.1121063223
14.0852499471
14.0573771489
14.0292959052
14.001550656
13.9745128777
13.948343484
13.9231838192
13.8991152061
13.8763451459
13.855109677
13.8358297407
13.8188960546
13.804805448
13.7939251534
13.7864633644
13.7821514499
13.7800362442
13.7781675336
13.7735460387
13.7623339458
13.7404902146
13.7047923108
13.6526900321
13.5843423923
13.5010305044
13.4109586735
13.3188349779
13.2284797838
13.1410512862
13.0539988621
12.9670439856
12.8874767594
12.8290481674
12.7958399587
12.7812225519
12.7658728733
12.7261854077
12.6845762227
12.6944499073
12.778610054
12.9178204506
13.0746147049
13.2194006764
13.3355992166
13.4197651062
13.4741699606
13.5045969425
13.5170094676
13.5166502124
13.5075060246
13.4925766633
13.4739506799
13.4530031857
13.4305790482
13.4072305271
13.3834372012
13.3596177807
13.3362012163
13.3135471555
13.2920438459
13.2720256254
13.2538571307
13.2377977226
13.2240819753
13.2127355839
13.2033130183
13.1953220415
13.1883395308
13.182406775
13.1775443321
13.1739180683
13.1718373149
13.1716478341
13.1735836008
13.1775162137
13.1831509395
13.1900723819
13.1980763927
13.2069429356
13.2166110276
13.2269134785
13.2378157514
13.2491608988
13.2609056309
13.2728489819
13.2848876564
13.2967303285
13.3081840079
13.3189445743
13.3287379207
13.3370850504
13.3435379211
13.3475023981
13.3484460166
13.3456642556
13.3384869017
13.3260627002
13.3074652935
13.2813901109
13.2462489747
13.2000128833
13.140464277
13.0653119472
12.9726393942
12.8612702279
12.7309962091
12.5822880188
12.4160760873
12.2322922911
12.0271556311
11.7952894829
11.5337159911
11.2440053674
10.9322852237
14.6725304576
13.1719138001
13.7282962315
14.1012869465
14.1334407416
14.1399010335
14.1549080369
14.1786414221
14.2037148319
14.2276817346
14.2500561455
14.2707637582
14.2898553309
14.307348089
14.3233123033
14.3377090244
14.3506155318
14.3619245175
14.3717464195
14.3799398003
14.3865831746
14.3915911581
14.3950974237
14.3970222165
14.397548053
14.3966963974
14.3945801473
14.3912828898
14.3868710097
14.3814695063
14.3750504631
14.3677732646
14.359586042
14.3506303005
14.3408237464
14.3303670202
14.3191664695
14.3073847657
14.2950037236
14.2821549917
14.268855551
14.2552160704
14.2413057814
14.2272224178
14.2130890439
14.1990028322
14.1851428786
14.1716177171
14.158618002
14.1463064816
14.1349245307
14.1246281715
14.1156028161
14.1078823711
14.101369034
14.0959151173
14.0914417443
14.0879179102
14.0852675585
14.0832217708
14.0810320254
14.0776615858
14.0718870904
14.0625493318
14.0494327503
14.033053733
14.0143402738
13.9942821703
13.9737850283
13.953522261
13.9339287926
13.9152166149
13.8974200533
13.8804381702
13.8641464528
13.8484342727
13.8332797617
13.8187266
13.804981479
13.7924109076
13.7816036227
13.7731576334
13.7675099576
13.7643417724
13.7621488148
13.7577178365
13.7468486878
13.7236499483
13.6829983576
13.6193490349
13.5336114613
13.4312879053
13.3156172542
13.1943199225
13.0746582711
12.9665341621
12.87895695
12.8186811343
12.7873291692
12.7743458292
12.7682242895
12.7574308413
12.7392836545
12.7384887127
12.7800608471
12.8645024537
12.9753747378
13.0929050149
13.2017951504
13.2927506647
13.3625191947
13.4115362534
13.4427636979
13.4600400293
13.4671190236
13.467186863
13.4627935423
13.4557612079
13.4472640132
13.4379343446
13.4281096079
13.4179718954
13.4076193031
13.3970833046
13.3863517995
13.3754178163
13.364286437
13.3529898185
13.3415985793
13.3302185825
13.3188685068
13.3075463515
13.2964239127
13.2857535069
13.2757598356
13.26657361
13.2584232344
13.2516233366
13.2465770224
13.2435026839
13.2423794016
13.2429403763
13.244889948
13.2479922129
13.2520954874
13.2571018183
13.2629219672
13.2694903996
13.2767188862
13.2845281655
13.2927837841
13.3013627005
13.3100529956
13.3186249647
13.3267730915
13.3341606177
13.3403579146
13.3448834716
13.3471456916
13.3465244316
13.3423032201
13.3337148929
13.3198671495
13.2996928376
13.2718523543
13.2347126189
13.1862911015
13.1244083567
13.0469639604
12.9522595785
12.8393140601
12.7079374445
12.5585477595
12.3919761392
12.2080291556
12.0031960213
11.7722330728
11.5108645964
11.2192332443
10.8996592692
14.2017548607
12.5501592053
13.486166148
13.8955845275
13.9040590639
13.9290026588
13.955323425
13.9925509995
14.0283396933
14.0612792409
14.0911845683
14.1183146772
14.1429092952
14.1652599749
14.1854244775
14.2035659933
14.219687805
14.2338502299
14.2460418405
14.2562780666
14.2646256784
14.271081151
14.275753669
14.2787203803
14.2800873664
14.2799448613
14.2784305683
14.2756706048
14.2717550642
14.2668347415
14.2609577408
14.2542808417
14.2467776481
14.2386283707
14.2297881452
14.2203865971
14.2103999368
14.1999543752
14.1890178886
14.1776886066
14.1659682508
14.1539218335
14.1415840185
14.1290050455
14.1162607972
14.103411762
14.0905742586
14.0778479975
14.0654296154
14.0534813257
14.042304061
14.0321972102
14.0234081353
14.0161022374
14.0103136448
14.0060112408
14.0029727114
14.0010824679
14.0006635105
14.0018102919
14.0032199597
14.0029773166
13.9992843845
13.9912380755
13.9791346701
13.9639784587
13.9470707395
13.929557925
13.9123516251
13.8960309705
13.8809448713
13.8672217263
13.8548465993
13.8436799035
13.833446212
13.823918718
13.8148525276
13.8060190912
13.7972705106
13.7885953738
13.7802414813
13.77274038
13.7666665106
13.7624942955
13.7597827437
13.756157819
13.7480472559
13.7295666741
13.6941769812
13.63933376
13.5639912976
13.4735490523
13.3721237203
13.2712814723
13.1804601722
13.10514132
13.042451027
12.9851947363
12.9318918354
12.8851373911
12.8486237073
12.8211394875
12.8056368972
12.8150151957
12.8558489342
12.923327229
13.0076624926
13.098330838
13.1859177388
13.2634580432
13.3270720339
13.3756606008
13.4100874722
13.4324379602
13.4450630557
13.4503420672
13.4502813327
13.4464560079