/*--------------------------------*- C++ -*----------------------------------*\
| =========                 |                                                 |
| \\      /  F ield         | OpenFOAM: The Open Source CFD Toolbox           |
|  \\    /   O peration     | Version:  v1806                                 |
|   \\  /    A nd           | Web:      www.OpenFOAM.com                      |
|    \\/     M anipulation  |                                                 |
\*---------------------------------------------------------------------------*/
FoamFile
{
    version     2.0;
    format      ascii;
    class       surfaceScalarField;
    location    "14";
    object      phi;
}
// * * * * * * * * * * * * * * * * * * * * * * * * * * * * * * * * * * * * * //

dimensions      [0 3 -1 0 0 0 0];
oriented        oriented;


internalField   nonuniform List<scalar> 
24170
(
3.07353290056e-06
1.1487348668e-07
2.98668179541e-06
8.68514414528e-08
2.90679394239e-06
7.98883688982e-08
2.82993812527e-06
7.68565252476e-08
2.75628849255e-06
7.36502222419e-08
2.6859737631e-06
7.03153915778e-08
2.61886670775e-06
6.71076308976e-08
2.55475855386e-06
6.41087704103e-08
2.49342398804e-06
6.13351275576e-08
2.43462909654e-06
5.87954684176e-08
2.37812556805e-06
5.65040669439e-08
2.32364236755e-06
5.44837388635e-08
2.27087310549e-06
5.27697782398e-08
2.21945208578e-06
5.14215305003e-08
2.16890150356e-06
5.05510874202e-08
2.11848418654e-06
5.04178327311e-08
2.06658998216e-06
5.18947423469e-08
5.76633784606e-08
2.00892711566e-06
3.43164029243e-06
1.00482410978e-07
3.42666586187e-06
9.18261280103e-08
3.41988143846e-06
8.66732172439e-08
3.41015875436e-06
8.65798180024e-08
3.39794720911e-06
8.58622871154e-08
3.38389728279e-06
8.43658970486e-08
3.3683859918e-06
8.26194290636e-08
3.35164189723e-06
8.0853399143e-08
3.33382457967e-06
7.91529349378e-08
3.31504202978e-06
7.75785129865e-08
3.29534923179e-06
7.61973275909e-08
3.27474289826e-06
7.50905299124e-08
3.2531510049e-06
7.43621123822e-08
3.23041017201e-06
7.41627988079e-08
3.20621509678e-06
7.47465959284e-08
3.18002387982e-06
7.66094883033e-08
3.15105201352e-06
8.08670627312e-08
8.86507981128e-08
3.12006497765e-06
3.68006310055e-06
8.29364318316e-08
3.68456016658e-06
8.73294220202e-08
3.68735985585e-06
8.38740209756e-08
3.68909525048e-06
8.48450209061e-08
3.68954469332e-06
8.54133657364e-08
3.68891565779e-06
8.49954756634e-08
3.68734487975e-06
8.41906933483e-08
3.68487821144e-06
8.33205591472e-08
3.68152662782e-06
8.25049730299e-08
3.67728329027e-06
8.18222981465e-08
3.67212106298e-06
8.1359975271e-08
3.66598612826e-06
8.12258723435e-08
3.6587892331e-06
8.15593961675e-08
3.65039382124e-06
8.2558584964e-08
3.64060487786e-06
8.45359006356e-08
3.62919851358e-06
8.80162057179e-08
3.61616607718e-06
9.38998351643e-08
1.0245791469e-07
3.60235921199e-06
3.93976410189e-06
6.85608244434e-08
3.9459312109e-06
8.11625825479e-08
3.94956205364e-06
8.02435872061e-08
3.95252728932e-06
8.18803155219e-08
3.95464269571e-06
8.32984496351e-08
3.95599498832e-06
8.36436985172e-08
3.9567045827e-06
8.34815750297e-08
3.95681244502e-06
8.32131765203e-08
3.95631429789e-06
8.30035733697e-08
3.9551854031e-06
8.29516376887e-08
3.95338518964e-06
8.31606119582e-08
3.9508558542e-06
8.37556198343e-08
3.947520216e-06
8.48954307298e-08
3.94328283807e-06
8.67963477527e-08
3.93804564263e-06
8.97734694861e-08
3.93177210627e-06
9.42901028554e-08
3.92468032961e-06
1.00991950421e-07
1.10017944157e-07
3.91712060007e-06
4.21858857966e-06
5.70995958799e-08
4.22522625797e-06
7.4525294995e-08
4.22898297082e-06
7.64873614854e-08
4.23203602371e-06
7.8827807871e-08
4.23438249097e-06
8.09524808167e-08
4.23602214623e-06
8.20045426246e-08
4.23705366643e-06
8.24505162352e-08
4.23752807217e-06
8.27392257961e-08
4.23744991606e-06
8.30821581405e-08
4.23680130382e-06
8.36006664646e-08
4.23555099396e-06
8.44113182366e-08
4.23365652843e-06
8.56504676618e-08
4.23106677492e-06
8.74855497447e-08
4.22773100854e-06
9.01324634329e-08
4.22362525925e-06
9.38795503354e-08
4.21881413908e-06
9.91015356423e-08
4.21357063739e-06
1.06235738537e-07
1.15397401561e-07
4.20819139474e-06
4.51819988807e-06
4.79869924132e-08
4.5248514082e-06
6.7874066883e-08
4.52876928081e-06
7.25698914871e-08
4.53186258094e-06
7.57349762257e-08
4.53431561051e-06
7.84999129304e-08
4.53608155619e-06
8.02390602774e-08
4.53722454038e-06
8.13079803924e-08
4.5377981015e-06
8.21661035194e-08
4.53781560148e-06
8.30650835809e-08
4.53726721196e-06
8.41494670369e-08
4.53613186353e-06
8.55470655076e-08
4.53438274574e-06
8.73999692075e-08
4.5319935679e-06
8.98750948377e-08
4.5289521187e-06
9.31742621047e-08
4.52528894274e-06
9.75430558991e-08
4.52112808238e-06
1.03262700329e-07
4.5167595252e-06
1.10604563576e-07
1.1960801669e-07
4.51254917193e-06
4.83996392391e-06
4.07432941872e-08
4.84633937886e-06
6.14990289857e-08
4.85039821908e-06
6.85115302066e-08
4.85353249869e-06
7.26011945566e-08
4.85605766353e-06
7.59752233403e-08
4.85792573242e-06
7.83714506999e-08
4.85916801938e-06
8.00661321594e-08
4.85983358942e-06
8.15009567861e-08
4.85994224394e-06
8.29568362448e-08
4.859491732e-06
8.46003712115e-08
4.85847088355e-06
8.65682921185e-08
4.8568682416e-06
8.90029740433e-08
4.85468114953e-06
9.20625338139e-08
4.85193111458e-06
9.59246249183e-08
4.84869006921e-06
1.00784406119e-07
4.84511757837e-06
1.0683546942e-07
4.84149902794e-06
1.14223373767e-07
1.22909274164e-07
4.83819797046e-06
5.18535828152e-06
3.49661556823e-08
5.19128289128e-06
5.55747477346e-08
5.19542246948e-06
6.43723434727e-08
5.19861118489e-06
6.94129057374e-08
5.20120900864e-06
7.33778233738e-08
5.2031903789e-06
7.63905039192e-08
5.20455968897e-06
7.86972354891e-08
5.2053549181e-06
8.0706135287e-08
5.20559908401e-06
8.27130663054e-08
5.20529771131e-06
8.49021318464e-08
5.20445081425e-06
8.74155662228e-08
5.20306344973e-06
9.03907022755e-08
5.20115631376e-06
9.39700123213e-08
5.19878065949e-06
9.830059994e-08
5.19603959002e-06
1.03525770802e-07
5.19311255339e-06
1.09762771427e-07
5.19027256425e-06
1.17063582161e-07
1.25325467592e-07
5.1878566086e-06
5.55597392195e-06
3.03299722273e-08
5.56136429511e-06
5.01848032768e-08
5.56551063698e-06
6.02264604521e-08
5.56875980841e-06
6.61641949663e-08
5.5714358885e-06
7.07021855248e-08
5.57353920846e-06
7.42876109414e-08
5.57505687247e-06
7.71799821307e-08
5.57601390349e-06
7.97495023165e-08
5.57643491883e-06
8.2292435883e-08
5.57633420357e-06
8.5003220915e-08
5.5757245922e-06
8.80255400909e-08
5.57462837725e-06
9.14872628731e-08
5.57308812295e-06
9.5510596625e-08
5.57117958996e-06
1.00209440845e-07
5.569027024e-06
1.05678618591e-07
5.56681647733e-06
1.11973564552e-07
5.56479795841e-06
1.19082351987e-07
1.26868486786e-07
5.56325514792e-06
5.95353278602e-06
2.65735109004e-08
5.95837291143e-06
4.53450198845e-08
5.96245744402e-06
5.6142306068e-08
5.96576475741e-06
6.28572677444e-08
5.96853019066e-06
6.79371448243e-08
5.97077050806e-06
7.20476782786e-08
5.97246467297e-06
7.5486203967e-08
5.97362592745e-06
7.85886247597e-08
5.97427894494e-06
8.16397939896e-08
5.9744463288e-06
8.48362059886e-08
5.97415362209e-06
8.83186066955e-08
5.97343917052e-06
9.22020606522e-08
5.97236402408e-06
9.6586071614e-08
5.97102201166e-06
1.01551760017e-07
5.96954919555e-06
1.07151712866e-07
5.96812884715e-06
1.13394166632e-07
5.96698603351e-06
1.20225388292e-07
1.27492678901e-07
5.96636209887e-06
6.3798945428e-06
2.34914663193e-08
6.38421426572e-06
4.10257578072e-08
6.38818725004e-06
5.21697859515e-08
6.3915474247e-06
5.94975541109e-08
6.39441875554e-06
6.50662535016e-08
6.39681885219e-06
6.96480136836e-08
6.39872384925e-06
7.35816205233e-08
6.40013766264e-06
7.71752200407e-08
6.4010837462e-06
8.06941060466e-08
6.40159170531e-06
8.43286358186e-08
6.40169865991e-06
8.82120275655e-08
6.40145693749e-06
9.24441478124e-08
6.40094208135e-06
9.71012743866e-08
6.40025968222e-06
1.02234485517e-07
6.39954973269e-06
1.07861961802e-07
6.39898553992e-06
1.13958624014e-07
6.39876351777e-06
1.20447682439e-07
1.27179993926e-07
6.39907647867e-06
5.74304466727e-06
2.12815007811e-08
5.7463359221e-06
3.7734931188e-08
5.74958604163e-06
4.89201034031e-08
5.75246386407e-06
5.66201628193e-08
5.75498866833e-06
6.25418750331e-08
5.75716422499e-06
6.74728689813e-08
5.75896929632e-06
7.17769545325e-08
5.76040197515e-06
7.57429320303e-08
5.76148048521e-06
7.96159824376e-08
5.76223382758e-06
8.35756637573e-08
5.76270070262e-06
8.77455196454e-08
5.76293374172e-06
9.22114418313e-08
5.76300434082e-06
9.70310167209e-08
5.76300597264e-06
1.02233166638e-07
5.76305494199e-06
1.07813281072e-07
5.76328692315e-06
1.13726912619e-07
5.7638483804e-06
1.19886476574e-07
1.26145891216e-07
5.76488276549e-06
7.00033516006e-06
1.91021749281e-08
7.00374704931e-06
3.43234719104e-08
7.00733922545e-06
4.53283518274e-08
7.01067568819e-06
5.32841155981e-08
7.01369471994e-06
5.95232465224e-08
7.016379289e-06
6.47886942966e-08
7.01870265341e-06
6.94539714318e-08
7.02065861764e-06
7.37873461684e-08
7.02226638933e-06
7.80085714964e-08
7.02356248224e-06
8.22799361468e-08
7.02459771919e-06
8.67106015329e-08
7.02543956272e-06
9.1369938306e-08
7.02617509541e-06
9.62957961141e-08
7.02691236145e-06
1.0149621109e-07
7.02777850701e-06
1.06947431341e-07
7.02891384828e-06
1.12591824727e-07
7.03046166207e-06
1.18338973167e-07
1.24056417882e-07
7.03255136992e-06
8.53298749537e-06
1.69620685816e-08
8.53649902308e-06
3.08123674557e-08
8.54044034141e-06
4.13874419754e-08
8.54430416984e-06
4.94207019306e-08
8.5479397873e-06
5.58880168195e-08
8.55129534342e-06
6.14335302222e-08
8.55433413704e-06
6.64155496852e-08
8.55704466887e-06
7.10771822227e-08
8.55944594607e-06
7.56076578668e-08
8.56158094087e-06
8.0145272996e-08
8.56351185575e-06
8.47800181001e-08
8.56531955208e-06
8.95625573812e-08
8.56710401487e-06
9.45116574135e-08
8.56898304906e-06
9.96174999936e-08
8.57108804246e-06
1.04842730945e-07
8.5735565028e-06
1.10123686828e-07
8.57652157126e-06
1.15374149212e-07
1.20479993335e-07
8.58009834977e-06
1.04013449809e-05
1.48364637221e-08
1.04049830406e-05
2.7174718449e-08
1.04093202441e-05
3.70506603744e-08
1.0413819454e-05
4.49218758496e-08
1.04182484238e-05
5.14594565836e-08
1.04225092749e-05
5.71730451936e-08
1.04265485522e-05
6.2376661815e-08
1.04303471395e-05
6.72789535169e-08
1.04339216305e-05
7.2033531909e-08
1.04373183769e-05
7.67488539012e-08
1.04406071907e-05
8.14915406781e-08
1.04438775185e-05
8.62925527899e-08
1.04472358048e-05
9.11537152464e-08
1.04508015245e-05
9.60521250759e-08
1.04547012089e-05
1.0094337003e-07
1.04590603588e-05
1.05764870102e-07
1.04639941658e-05
1.10440650096e-07
1.14877940897e-07
1.04695964761e-05
1.26789768222e-05
1.26499463802e-08
1.26828529789e-05
2.32989849152e-08
1.26877256157e-05
3.21784175209e-08
1.26930606171e-05
3.95872855567e-08
1.26985619139e-05
4.5958533361e-08
1.27040806808e-05
5.16546783759e-08
1.27095385081e-05
5.69191992119e-08
1.27149038423e-05
6.19140085152e-08
1.27201861421e-05
6.67515768373e-08
1.27254290247e-05
7.1506337413e-08
1.27307020169e-05
7.62188780127e-08
1.27360940099e-05
8.09009233998e-08
1.27417074094e-05
8.55406918902e-08
1.27476521495e-05
9.01077290059e-08
1.27540389087e-05
9.45570234125e-08
1.27609710968e-05
9.88329588241e-08
1.27685380363e-05
1.02874139188e-07
1.06610525115e-07
1.27768056128e-05
1.54555779701e-05
1.02523679706e-08
1.54599392366e-05
1.89381344724e-08
1.54656529155e-05
2.64651425122e-08
1.54721952654e-05
3.30453276339e-08
1.54792221942e-05
3.89319966598e-08
1.54865340029e-05
4.4343255716e-08
1.54940195343e-05
4.94340566738e-08
1.55016266166e-05
5.43073091884e-08
1.55093493082e-05
5.90292666464e-08
1.55172181789e-05
6.36378355889e-08
1.55252904366e-05
6.81469981374e-08
1.55336409204e-05
7.25508329144e-08
1.55423541675e-05
7.68278308464e-08
1.55515173459e-05
8.09449750778e-08
1.55612131791e-05
8.48615578614e-08
1.55715138355e-05
8.85327297108e-08
1.55824750979e-05
9.19131772421e-08
9.49547868883e-08
1.55941312372e-05
1.88405096833e-05
7.38048376772e-09
1.88458159236e-05
1.36323103842e-08
1.88529462606e-05
1.93352048781e-08
1.88613518391e-05
2.46401500798e-08
1.88706362065e-05
2.9648024553e-08
1.88805465417e-05
3.44333208751e-08
1.88909306432e-05
3.90503582915e-08
1.89017048066e-05
4.35335478222e-08
1.89128358026e-05
4.78986772836e-08
1.89243280625e-05
5.21459786528e-08
1.89362120197e-05
5.62634529952e-08
1.89485335949e-05
6.02296836581e-08
1.89613453501e-05
6.40164956771e-08
1.89746993608e-05
6.75914240355e-08
1.89886410468e-05
7.09202845533e-08
1.90032048226e-05
7.39694355798e-08
1.90184102487e-05
7.67081144525e-08
7.91060837941e-08
1.90342594321e-05
2.29671926214e-05
3.52551637156e-09
2.29743039036e-05
6.52146606625e-09
2.29839041784e-05
9.73540175854e-09
2.29953120295e-05
1.32327231354e-08
2.30080388833e-05
1.69216379528e-08
2.3021767433e-05
2.07051985776e-08
2.30362944007e-05
2.45238683535e-08
2.30514916135e-05
2.83367683011e-08
2.30672855324e-05
3.21052485447e-08
2.3083641438e-05
3.5790513483e-08
2.31005501427e-05
3.93552447285e-08
2.31180158442e-05
4.27644432411e-08
2.31360477304e-05
4.59851086643e-08
2.31546530127e-05
4.89866375752e-08
2.31738324522e-05
5.17413312327e-08
2.3193576846e-05
5.42255635558e-08
2.32138649141e-05
5.64204890846e-08
5.83104888789e-08
2.32346610032e-05
1.68141171908e-05
1.13648712341e-10
1.68202825042e-05
3.56548249943e-10
1.68284310585e-05
1.58723317807e-09
1.68379472741e-05
3.71686963108e-09
1.68484549304e-05
6.41439127112e-09
1.68597295764e-05
9.43088649698e-09
1.6871621529e-05
1.26323506419e-08
1.68840282431e-05
1.59303758734e-08
1.68968842434e-05
1.9249704856e-08
1.69101492729e-05
2.25257971421e-08
1.69237984704e-05
2.57065200159e-08
1.69378135826e-05
2.87496409818e-08
1.69521790716e-05
3.16201098481e-08
1.69668777918e-05
3.42882514647e-08
1.69818900119e-05
3.67296168227e-08
1.69971908395e-05
3.89251228908e-08
1.70127504043e-05
4.08614183169e-08
4.25286872814e-08
1.70285326561e-05
1.46382164917e-05
-3.53379884408e-09
1.46446564795e-05
-6.08307049195e-09
1.46528648451e-05
-6.62074337405e-09
1.46621695175e-05
-5.58742678947e-09
1.46722606447e-05
-3.67639758212e-09
1.46829744338e-05
-1.28252918089e-09
1.46941911771e-05
1.41591337179e-09
1.47058256149e-05
4.29634931195e-09
1.47178238177e-05
7.25179615067e-09
1.47301516177e-05
1.01984226732e-08
1.47427832117e-05
1.30752098197e-08
1.4755696455e-05
1.58368411185e-08
1.47688690063e-05
1.84478520443e-08
1.47822782218e-05
2.08795041735e-08
1.47958994469e-05
2.31087355253e-08
1.48097071014e-05
2.51179581886e-08
1.48236739542e-05
2.68949803324e-08
2.84317908153e-08
1.48377713372e-05
1.27442129672e-05
-7.61442091409e-09
1.27511103331e-05
-1.29800459964e-08
1.2759406344e-05
-1.49164042726e-08
1.27684315552e-05
-1.46122682297e-08
1.27780110768e-05
-1.32555721579e-08
1.27880514911e-05
-1.1322594375e-08
1.27984591898e-05
-8.99143032951e-09
1.28091691364e-05
-6.41328220416e-09
1.28201454918e-05
-3.72420810944e-09
1.28313655033e-05
-1.02127982883e-09
1.28428092479e-05
1.63180893374e-09
1.28544557779e-05
4.19063752714e-09
1.28662828647e-05
6.62110464082e-09
1.28782666722e-05
8.89606218101e-09
1.28903812303e-05
1.09945524702e-08
1.29025988455e-05
1.29007503703e-08
1.29148894228e-05
1.46048143677e-08
1.6101240057e-08
1.29272203838e-05
1.10957095913e-05
-1.23945487398e-08
1.11032242292e-05
-2.04943099712e-08
1.1111548503e-05
-2.3240283109e-08
1.11201888926e-05
-2.32522799741e-08
1.11291768252e-05
-2.22431379079e-08
1.11384774289e-05
-2.0622881395e-08
1.11480215613e-05
-1.85352093355e-08
1.1157773985e-05
-1.61653626594e-08
1.11677215748e-05
-1.3671471609e-08
1.1177852439e-05
-1.11518296442e-08
1.11881498676e-05
-8.6652801275e-09
1.11985936013e-05
-6.25282328753e-09
1.12091620385e-05
-3.94697234251e-09
1.12198322306e-05
-1.77385162168e-09
1.1230581612e-05
2.45583429839e-10
1.12413880508e-05
2.09464510152e-09
1.1252233684e-05
3.75959351531e-09
5.22865366505e-09
1.12631066228e-05
9.66106883893e-06
-1.82484706945e-08
9.66930066023e-06
-2.87257503258e-08
9.67750339525e-06
-3.144264866e-08
9.68564900919e-06
-3.13975129958e-08
9.69398385421e-06
-3.05776271443e-08
9.70248606787e-06
-2.91247047129e-08
9.71110834396e-06
-2.7157127958e-08
9.71985111239e-06
-2.49077932007e-08
9.72872584512e-06
-2.25458799606e-08
9.73773395907e-06
-2.01596298592e-08
9.74686690987e-06
-1.7797928749e-08
9.75611000097e-06
-1.54956047483e-08
9.76544405967e-06
-1.32807460833e-08
9.77484630624e-06
-1.11757529396e-08
9.78429071736e-06
-9.19849895616e-09
9.79374947288e-06
-7.3637556105e-09
9.80319519376e-06
-5.68575652213e-09
-4.1786891748e-09
9.81260287486e-06
8.41280756495e-06
-2.57031705844e-08
8.42171239956e-06
-3.7630177765e-08
8.42957328264e-06
-3.93031276311e-08
8.43716628667e-06
-3.89901312346e-08
8.44486016083e-06
-3.8271114904e-08
8.45260454059e-06
-3.68687615464e-08
8.46038031144e-06
-3.49325118726e-08
8.46821682824e-06
-3.27439497336e-08
8.47613718249e-06
-3.04659013643e-08
8.48414786692e-06
-2.81699984782e-08
8.49224514426e-06
-2.5894902443e-08
8.50041926574e-06
-2.36694348536e-08
8.50865544506e-06
-2.15166447957e-08
8.51693393295e-06
-1.94539283486e-08
8.52523045468e-06
-1.74947031012e-08
8.53351911031e-06
-1.56520620386e-08
8.54177993526e-06
-1.39463070178e-08
-1.24140780675e-08
8.5500156461e-06
7.32698616455e-06
-3.54046334297e-08
7.33627032356e-06
-4.69139455126e-08
7.34353952516e-06
-4.65719711863e-08
7.35050201992e-06
-4.59522078931e-08
7.35746613326e-06
-4.52348549439e-08
7.36437522268e-06
-4.37774615232e-08
7.37126849418e-06
-4.18254098574e-08
7.37820093258e-06
-3.96760331897e-08
7.38519855267e-06
-3.74632012187e-08
7.39226730319e-06
-3.52384642442e-08
7.39940431457e-06
-3.30316067419e-08
7.40660164122e-06
-3.08664847054e-08
7.41384650128e-06
-2.87612131259e-08
7.42112033575e-06
-2.67274685976e-08
7.42839695795e-06
-2.47710264377e-08
7.43564020204e-06
-2.28950409258e-08
7.44280404659e-06
-2.1109883057e-08
-1.9454190674e-08
7.44984439607e-06
6.38289293055e-06
-4.82312108544e-08
6.39198561493e-06
-5.60062597319e-08
6.39866725724e-06
-5.3253245752e-08
6.40514004382e-06
-5.24246830444e-08
6.41144716195e-06
-5.15415598361e-08
6.41758439228e-06
-4.99143857647e-08
6.42365754283e-06
-4.78981986366e-08
6.42973803853e-06
-4.57561943603e-08
6.43585495253e-06
-4.35798233792e-08
6.442017952e-06
-4.14011797921e-08
6.4482285277e-06
-3.92419461375e-08
6.45448291537e-06
-3.71205819607e-08
6.46077238526e-06
-3.50504378735e-08
6.46708275265e-06
-3.3037564853e-08
6.47339113332e-06
-3.10791505698e-08
6.47965880806e-06
-2.9162481638e-08
6.48582329092e-06
-2.72741558267e-08
-2.54324818666e-08
6.49180174336e-06
5.56201105894e-06
-6.47773503408e-08
5.56959118053e-06
-6.35859876936e-08
5.57544896473e-06
-5.91107097853e-08
5.58112146561e-06
-5.80967576391e-08
5.58640090853e-06
-5.68205317263e-08
5.59139640796e-06
-5.490951755e-08
5.59624430513e-06
-5.27457209344e-08
5.60101029333e-06
-5.05218365656e-08
5.60572444805e-06
-4.82936701594e-08
5.61040487101e-06
-4.60813768445e-08
5.61506379811e-06
-4.39005732385e-08
5.61970836783e-06
-4.1764849933e-08
5.6243414559e-06
-3.96832506537e-08
5.62896195318e-06
-3.76577981039e-08
5.63356184392e-06
-3.56787919584e-08
5.63811226127e-06
-3.37126771328e-08
5.64251982038e-06
-3.16815724983e-08
-2.93700093786e-08
5.64645756127e-06
4.84606130314e-06
-8.32309484505e-08
4.8477210185e-06
-6.52452757358e-08
4.84849905439e-06
-5.98883499533e-08
4.84799090992e-06
-5.75881148553e-08
4.84629404722e-06
-5.51231319096e-08
4.84383391089e-06
-5.24489492099e-08
4.8408749092e-06
-4.97862902839e-08
4.83757086421e-06
-4.72173919746e-08
4.83403428143e-06
-4.47567512239e-08
4.83035747063e-06
-4.24042650802e-08
4.82661616034e-06
-4.01589075229e-08
4.82287104997e-06
-3.80193804825e-08
4.81917084327e-06
-3.59827214202e-08
4.81555638976e-06
-3.40430361984e-08
4.81206601521e-06
-3.2188128529e-08
4.80873807939e-06
-3.03845129768e-08
4.80560167505e-06
-2.8544948957e-08
-2.58656858402e-08
4.80209755207e-06
4.11944531698e-06
4.05420007269e-06
3.99431176597e-06
3.93672370387e-06
3.88160061662e-06
3.82915171576e-06
3.7793654745e-06
3.73214812804e-06
3.68739141804e-06
3.64498720635e-06
3.60482835875e-06
3.56680903544e-06
3.53082637267e-06
3.49678339614e-06
3.46459532073e-06
3.43421085664e-06
3.40566595869e-06
3.37980034122e-06
5.97378421476e-08
-5.97382597197e-08
9.56968101847e-08
-3.59602421282e-08
9.37008455893e-08
1.99510943245e-09
5.59230168653e-08
3.77753024997e-08
-2.59408536658e-08
8.1863003564e-08
-1.45251972521e-07
1.19309507569e-07
-2.75937295432e-07
1.30685856228e-07
-4.15092876695e-07
1.39155183599e-07
-5.61728234591e-07
1.46636241349e-07
-7.14863095532e-07
1.53135130851e-07
-8.73558713751e-07
1.58696726452e-07
-1.03696613044e-06
1.63408103042e-07
-1.20432954053e-06
1.67364593184e-07
-1.37498670282e-06
1.70658116572e-07
-1.54835995735e-06
1.73374424051e-07
-1.72395095382e-06
1.75592108077e-07
-1.90133278236e-06
1.77382891943e-07
-2.08014313595e-06
1.78811528868e-07
-2.26007823765e-06
1.79936072992e-07
-2.44088491927e-06
1.80807794021e-07
-2.62235540602e-06
1.8147130816e-07
-2.80431884163e-06
1.81964472043e-07
-2.98663668634e-06
1.82318534608e-07
-3.16919395229e-06
1.82558203814e-07
-3.35189510561e-06
1.82701820013e-07
-3.53465589013e-06
1.82761625642e-07
-3.71739934012e-06
1.8274408423e-07
-3.90004879489e-06
1.82650260092e-07
-4.08252433616e-06
1.82476235632e-07
-4.26473708272e-06
1.82213572423e-07
-4.44658608183e-06
1.81849763406e-07
-4.62795388465e-06
1.81368697472e-07
-4.80870408193e-06
1.80751070022e-07
-4.98867791793e-06
1.79974812867e-07
-5.16769237231e-06
1.79015434349e-07
-5.34553768984e-06
1.77846398072e-07
-5.52197603498e-06
1.76439430529e-07
-5.69673976309e-06
1.74764921545e-07
-5.86953082963e-06
1.72792255756e-07
-6.04001989684e-06
1.70490354236e-07
-6.20784684169e-06
1.67828202259e-07
-6.37262120397e-06
1.64775719544e-07
-6.53392456832e-06
1.61304662077e-07
-6.69131301379e-06
1.57389858852e-07
-6.84432205598e-06
1.53010362473e-07
-6.99247158042e-06
1.48150994829e-07
-7.13527391058e-06
1.42803702227e-07
-7.27224147824e-06
1.36969132144e-07
-7.40289748748e-06
1.30657474104e-07
-7.52678512912e-06
1.23889373714e-07
-7.64347926321e-06
1.16695813667e-07
-7.75259497681e-06
1.09117729629e-07
-7.85379751636e-06
1.01204532247e-07
-7.94680777974e-06
9.30126165234e-08
-8.03140814332e-06
8.46026610493e-08
-8.10744271633e-06
7.60372601931e-08
-8.17481798608e-06
6.73778826347e-08
-8.23349783574e-06
5.86828278548e-08
-8.28350049906e-06
5.00054739797e-08
-8.32489078023e-06
4.13934870446e-08
-8.35777622496e-06
3.28884473173e-08
-8.3822973527e-06
2.45244927279e-08
-8.39862100363e-06
1.63266949833e-08
-8.40693191018e-06
8.31439120842e-09
-8.40740418526e-06
4.75420982997e-10
-8.40026904966e-06
-7.13152733269e-09
-8.38586583001e-06
-1.44000150146e-08
-8.36455365298e-06
-2.13085037452e-08
-8.33667037261e-06
-2.78801150504e-08
-8.30249895117e-06
-3.41677528264e-08
-8.26224634403e-06
-4.02494621377e-08
-8.21601624231e-06
-4.62263231435e-08
-8.16379112545e-06
-5.22218289154e-08
-8.10540663807e-06
-5.83802662523e-08
-8.04053806401e-06
-6.48647684587e-08
-7.96867904508e-06
-7.18539281144e-08
-7.8891363057e-06
-7.95380944994e-08
-7.80101758614e-06
-8.8112897529e-08
-7.70324004745e-06
-9.77725805486e-08
-7.59453258705e-06
-1.08700999544e-07
-7.4734674502e-06
-1.21059655619e-07
-7.3384920063e-06
-1.34968399069e-07
-7.18800285592e-06
-1.50483607485e-07
-7.02042301321e-06
-1.67571821315e-07
-6.83433138412e-06
-1.8608525686e-07
-6.62858463893e-06
-2.05738324274e-07
-6.4024762073e-06
-2.26103430735e-07
-6.15585183927e-06
-2.46620639966e-07
-5.88921542988e-06
-2.66637103584e-07
-5.60376246893e-06
-2.85459932174e-07
-5.30135064061e-06
-3.02418440814e-07
-4.98443819803e-06
-3.16919158496e-07
-4.65596727842e-06
-3.28476873182e-07
-4.31923098519e-06
-3.36743199538e-07
-3.97770318091e-06
-3.41534137471e-07
-3.63489056131e-06
-3.42819449949e-07
-3.29420684464e-06
-3.40688975355e-07
-2.95886269101e-06
-3.35348431411e-07
-2.6318465998e-06
-3.2701696141e-07
-2.31572797089e-06
-3.1611586714e-07
-2.01245970497e-06
-3.0325868858e-07
-1.72332380629e-06
-2.89114982546e-07
-1.44904302643e-06
-2.74249101088e-07
-1.18928258246e-06
-2.5971095908e-07
-9.44960602321e-07
-2.44265249666e-07
-7.11633852851e-07
-2.3324538318e-07
-4.94959979278e-07
-2.1657910441e-07
-2.86612749124e-07
-2.08231261008e-07
-5.34003909781e-08
-2.33084851641e-07
1.87264000399e-07
-2.40550192816e-07
4.03988059827e-07
-2.16660725385e-07
5.90756574944e-07
-1.86717273867e-07
7.53737858258e-07
-1.62951678544e-07
8.97797337715e-07
-1.44031565802e-07
1.02585151282e-06
-1.28042602168e-07
1.13983533086e-06
-1.139707416e-07
1.24115122544e-06
-1.01315311492e-07
1.33094294877e-06
-8.97896205295e-08
1.41016357782e-06
-7.922701401e-08
1.47966956964e-06
-6.95036716471e-08
1.5402112274e-06
-6.05347190727e-08
1.59247944112e-06
-5.22452133975e-08
1.63708410501e-06
-4.4581265238e-08
1.67460121754e-06
-3.74882490505e-08
1.70554664213e-06
-3.09278771017e-08
1.73042027911e-06
-2.48561283732e-08
1.74967165018e-06
-1.92459657258e-08
1.76374917326e-06
-1.40711430697e-08
1.77308132223e-06
-9.33590757342e-09
1.77816376535e-06
-5.08413633365e-09
1.77964797097e-06
-1.49456318456e-09
1.77814895162e-06
1.49105058214e-09
1.77394013884e-06
4.19312546708e-09
1.767202108e-06
6.72436743388e-09
1.75813970631e-06
9.04162209406e-09
1.74698074097e-06
1.11393149357e-08
1.73392180056e-06
1.30325068751e-08
1.71915035136e-06
1.47437794553e-08
1.70282740467e-06
1.62885471643e-08
1.68510830078e-06
1.7683992452e-08
1.66613023775e-06
1.89432878131e-08
1.64602047889e-06
2.00796722287e-08
1.62489072741e-06
2.11044013121e-08
1.60284170278e-06
2.20282015094e-08
1.57996343843e-06
2.28603485243e-08
1.55633801677e-06
2.36101954987e-08
1.53203849325e-06
2.42858232027e-08
1.50713139011e-06
2.48950424919e-08
1.4816749134e-06
2.54450074486e-08
1.4557214818e-06
2.59428678606e-08
1.4293164907e-06
2.63943324721e-08
1.40250042489e-06
2.6805884677e-08
1.37530751599e-06
2.71822678139e-08
1.34776813708e-06
2.7529114635e-08
1.3199058932e-06
2.78514432269e-08
1.29174087709e-06
2.81547195422e-08
1.26328881068e-06
2.84413103558e-08
1.23456404205e-06
2.87147224306e-08
1.20557449769e-06
2.89791283017e-08
1.17632594578e-06
2.92390250062e-08
1.14682050876e-06
2.94955784159e-08
1.11705923461e-06
2.97524449763e-08
1.08703792515e-06
3.00121573795e-08
1.05675351943e-06
3.02764267546e-08
1.02619823038e-06
3.05470069303e-08
9.95364386244e-07
3.08268960873e-08
9.64235400953e-07
3.11217514315e-08
9.3279139855e-07
3.14382352229e-08
9.01007584815e-07
3.17777211059e-08
8.68859057859e-07
3.21439658317e-08
8.3631130721e-07
3.25427381068e-08
8.03329969391e-07
3.29778355915e-08
7.69885255854e-07
3.34405596463e-08
7.35970884892e-07
3.39117206042e-08
7.01604914959e-07
3.43624501781e-08
6.66835462294e-07
3.47674476615e-08
6.31689738353e-07
3.51427674756e-08
5.95967481993e-07
3.57221826367e-08
5.5861493779e-07
3.73540710744e-08
4.81759888155e-08
5.10446349145e-07
-2.37756197426e-08
-3.59614990759e-08
-9.57970372043e-08
3.60617541258e-08
-1.99368194543e-07
1.05566318528e-07
-3.12177350712e-07
1.50584075673e-07
-4.21498364512e-07
1.91184096836e-07
-5.29251632037e-07
2.27062575864e-07
-6.51877777398e-07
2.53312311413e-07
-7.86413614828e-07
2.73691131888e-07
-9.29958264364e-07
2.90181492602e-07
-1.08056964942e-06
3.0374690596e-07
-1.2368397368e-06
3.14967578184e-07
-1.39767466652e-06
3.24243692816e-07
-1.56218716293e-06
3.31877976079e-07
-1.72964317845e-06
3.3811498981e-07
-1.8994292593e-06
3.43161442588e-07
-2.07103304817e-06
3.47196867525e-07
-2.24402876918e-06
3.50379539604e-07
-2.41806582368e-06
3.52849569524e-07
-2.59285956715e-06
3.54730675289e-07
-2.76818175546e-06
3.56130962963e-07
-2.94385313759e-06
3.57143449935e-07
-3.11973413043e-06
3.57846337685e-07
-3.29571820703e-06
3.58303317835e-07
-3.47172308492e-06
3.58563894148e-07
-3.64768455879e-06
3.58663950519e-07
-3.82354851166e-06
3.58626349813e-07
-3.99926549428e-06
3.58461746658e-07
-4.17478392628e-06
3.58169475669e-07
-4.35004550489e-06
3.57738557734e-07
-4.52497981411e-06
3.57148712975e-07
-4.69950062582e-06
3.56371404077e-07
-4.87350184221e-06
3.55370816526e-07
-5.04685465625e-06
3.54104809179e-07
-5.21940458587e-06
3.52525737057e-07
-5.39096936084e-06
3.50581225862e-07
-5.56133674248e-06
3.48214870194e-07
-5.73026307887e-06
3.45366893012e-07
-5.89747181312e-06
3.41974843833e-07
-6.06265269844e-06
3.37974356469e-07
-6.22546116823e-06
3.33300097336e-07
-6.38551865668e-06
3.27886970486e-07
-6.54241336296e-06
3.21671758791e-07
-6.69570253596e-06
3.14595157406e-07
-6.84491549744e-06
3.06604199559e-07
-6.98955868873e-06
2.97654908289e-07
-7.12912163774e-06
2.87715367093e-07
-7.26308544123e-06
2.76768911541e-07
-7.39093204782e-06
2.64817244017e-07
-7.51215566607e-06
2.51882601817e-07
-7.62627388693e-06
2.38009245506e-07
-7.73283983339e-06
2.23263474875e-07
-7.83145240819e-06
2.07732237003e-07
-7.92176612743e-06
1.9152027541e-07
-8.00349760512e-06
1.7474633551e-07
-8.07643047138e-06
1.57537887064e-07
-8.14041583289e-06
1.40025225155e-07
-8.19537116662e-06
1.22335899887e-07
-8.24127581329e-06
1.04590362841e-07
-8.27816589427e-06
8.68985075922e-08
-8.30612702151e-06
6.93577682219e-08
-8.32528544854e-06
5.20500314368e-08
-8.33579608101e-06
3.503843941e-08
-8.33783234362e-06
1.83662608424e-08
-8.33159262675e-06
2.07813373331e-09
-8.31748114718e-06
-1.36326289798e-08
-8.29603695601e-06
-2.85721288223e-08
-8.26770269157e-06
-4.27307634817e-08
-8.23284975442e-06
-5.61578164584e-08
-8.19180273446e-06
-6.8923644892e-08
-8.14483479563e-06
-8.1132113537e-08
-8.09215516153e-06
-9.29256241449e-08
-8.03388881093e-06
-1.04488999839e-07
-7.97005498389e-06
-1.16052022573e-07
-7.90054057327e-06
-1.27890664137e-07
-7.82507614001e-06
-1.40324970072e-07
-7.7432101234e-06
-1.5371511485e-07
-7.65428925836e-06
-1.68454003273e-07
-7.5574410738e-06
-1.84955684394e-07
-7.45156895819e-06
-2.03639221295e-07
-7.33535408541e-06
-2.24909827647e-07
-7.20727682845e-06
-2.49130973437e-07
-7.0656548253e-06
-2.7658395768e-07
-6.9087161779e-06
-3.07415793707e-07
-6.73470034126e-06
-3.41580270149e-07
-6.54199905013e-06
-3.78779080692e-07
-6.3293153602e-06
-4.1841432181e-07
-6.09584140916e-06
-4.59570922732e-07
-5.84140877689e-06
-5.01048583754e-07
-5.56660262003e-06
-5.41444922638e-07
-5.27278681499e-06
-5.79279308991e-07