/*--------------------------------*- C++ -*----------------------------------*\
| =========                 |                                                 |
| \\      /  F ield         | OpenFOAM: The Open Source CFD Toolbox           |
|  \\    /   O peration     | Version:  v1806                                 |
|   \\  /    A nd           | Web:      www.OpenFOAM.com                      |
|    \\/     M anipulation  |                                                 |
\*---------------------------------------------------------------------------*/
FoamFile
{
    version     2.0;
    format      ascii;
    class       volScalarField;
    location    "14";
    object      rho;
}
// * * * * * * * * * * * * * * * * * * * * * * * * * * * * * * * * * * * * * //

dimensions      [0 0 0 0 0 0 0];


internalField   nonuniform List<scalar> 
12225
(
0.584183241268
0.645758556111
0.625954366458
0.625887897253
0.614004721865
0.609661274245
0.603691527132
0.599606235113
0.597392686639
0.598223822671
0.603592760195
0.612162789171
0.619132962274
0.631054612496
0.65458116974
0.684851589115
0.723481156694
0.756478294779
0.751790847193
0.694952891112
0.661701231996
0.666473775296
0.657160192882
0.654661150542
0.650754487798
0.648255275953
0.646784494055
0.647038626619
0.650400111211
0.656671456134
0.663319438321
0.673257310374
0.690839043892
0.713186316147
0.737412726101
0.740002970534
0.609400669691
0.675141261069
0.65811539522
0.659397802872
0.64975425458
0.646318596947
0.641752583617
0.638638703893
0.636470136102
0.635753594329
0.637210350261
0.641007585701
0.646664588618
0.655737827669
0.670402248568
0.688419767436
0.704766878728
0.699847034988
0.662952137142
0.689293334673
0.661534297001
0.667665543204
0.658705742044
0.656931067819
0.653653424795
0.651644108927
0.650252080824
0.649906918091
0.650961870506
0.653623041878
0.658048182652
0.665128083647
0.67562235961
0.687313095049
0.694726974522
0.685431340743
0.640771397719
0.68789177503
0.663527986342
0.670265379795
0.662322901294
0.661474403101
0.659122240862
0.658049229009
0.657613750468
0.658145176147
0.659798173128
0.662690268698
0.667053119548
0.673280017685
0.681211437823
0.688527866389
0.690473150956
0.680358913911
0.646580060125
0.691862218331
0.666545454272
0.674785292293
0.667375346817
0.66727745343
0.66549426314
0.66495876057
0.665007192027
0.665908616539
0.667728483994
0.670521078717
0.674436662521
0.679529948898
0.685153717091
0.689102615607
0.687857438343
0.678272098628
0.646153503273
0.693451230257
0.669136683708
0.678280117911
0.671527595104
0.672089218428
0.670822343807
0.670737906126
0.671149594605
0.672278130108
0.674133419109
0.676716963304
0.680045324465
0.683949609048
0.687581453467
0.689063497476
0.686053025956
0.677277501594
0.647377784845
0.694863503125
0.671327808832
0.681231976442
0.675046735906
0.67615304648
0.675291807252
0.675537908956
0.676158782381
0.677356482992
0.679113067608
0.681381015641
0.684054187855
0.686827735641
0.688820357192
0.688572480983
0.684629764164
0.676683006821
0.648384704393
0.695685886433
0.673082441949
0.683542068295
0.677884557552
0.6794571185
0.678932076269
0.679411007917
0.680123730655
0.681278693101
0.682842964156
0.684715939775
0.68670377993
0.688437120581
0.689124813152
0.68767937405
0.683289716324
0.676049445964
0.649142398427
0.696031352101
0.67427790156
0.685140997134
0.679929755716
0.681886150314
0.681609683811
0.682227548122
0.682958872882
0.684018783712
0.685336516218
0.686761530464
0.688053490924
0.68885229301
0.688510198308
0.686263470899
0.681706925324
0.675130449604
0.648978356581
0.696118439717
0.674617155532
0.685847447071
0.680891903794
0.683070543566
0.682882605836
0.68353545462
0.684224056611
0.685134209408
0.686156413761
0.687135390156
0.687832187149
0.687935055908
0.686937203205
0.684327101248
0.679949367752
0.67411590005
0.644874042381
0.696003421348
0.673099141218
0.684926355003
0.679909446665
0.682191301038
0.682025980734
0.682684930771
0.683284705376
0.684039918714
0.684898270905
0.68568395153
0.686149697655
0.686000463514
0.684848906157
0.682343970717
0.678423081367
0.673389670124
0.641492061533
0.695315860559
0.671573381237
0.68382386738
0.678986429618
0.681445766622
0.681386759783
0.682129725927
0.682826807412
0.683669751235
0.684545818621
0.68527495049
0.685577155016
0.685239901884
0.683945338944
0.681484686824
0.677891441742
0.673432356537
0.637394068651
0.69445532312
0.66983727013
0.682637794179
0.678017316178
0.680838972001
0.68109458816
0.682066773455
0.682882458773
0.683735639432
0.684506501574
0.685000384604
0.684974841666
0.68428313772
0.682758525761
0.680275661172
0.676978827857
0.673016596013
0.632070532913
0.693511647563
0.66765908271
0.681198634532
0.676802103544
0.680051155795
0.68066381865
0.681905908661
0.682858574023
0.683680136813
0.684285424511
0.684470977412
0.684057652354
0.683024602134
0.681291059172
0.678832703663
0.675807179857
0.672355334616
0.626474713332
0.692496215365
0.665172043689
0.679439088405
0.675160300452
0.678776955681
0.679655810194
0.6810971282
0.682111091346
0.682889979
0.683304756032
0.683239344122
0.682532011792
0.681289835881
0.679471018139
0.677128157422
0.674397662551
0.671376592553
0.621424783795
0.691564022942
0.66265100249
0.677506357266
0.673194314937
0.677030891644
0.678022679259
0.679527946529
0.680520293537
0.681186767998
0.681457269156
0.681204801035
0.680346166862
0.679016456513
0.677245370488
0.675063958401
0.672642299467
0.669974542156
0.616659132597
0.690845507738
0.660247827828
0.675580000404
0.671089800745
0.674997208945
0.67595293373
0.67742154801
0.678327860493
0.678880367071
0.679028034041
0.678662861217
0.677736733032
0.676416959115
0.674745069011
0.672747363411
0.670588551724
0.668230810856
0.614033791113
0.690737868933
0.65897182039
0.674488439104
0.669706455617
0.673469955981
0.674200608244
0.675465612411
0.676158228571
0.676507955421
0.676479427865
0.67598710215
0.674997032787
0.673691373083
0.672104765902
0.670251386812
0.668284550088
0.666157589204
0.619503662759
0.691405936684
0.660583327509
0.675232591285
0.669969360605
0.673056498439
0.673142989307
0.673749244001
0.673848759744
0.67367088222
0.67321107498
0.672401228445
0.671203261721
0.669785234972
0.668176833423
0.66638211964
0.664538746123
0.662609967192
0.623760686062
0.692468846643
0.662493808136
0.676512910109
0.67087861843
0.67342662371
0.673003769939
0.673133439649
0.672779385528
0.672228068377
0.671467031596
0.670451930446
0.669110703573
0.6676355737
0.666016640167
0.664277610523
0.662512416288
0.66070999212
0.627060369339
0.693568199221
0.664343414344
0.677825881528
0.671901819732
0.673978954395
0.67314196307
0.672857156049
0.672149100108
0.671298360752
0.670293105671
0.669112817891
0.667672042263
0.666139827631
0.664518792712
0.662807928093
0.661107147648
0.659372980607
0.631256941262
0.694937594547
0.666185515584
0.679170389207
0.672951229699
0.674571819624
0.673336698301
0.67267334688
0.671635793603
0.670494479972
0.669281526899
0.667931393951
0.666377810619
0.66476770268
0.663126899912
0.661405038186
0.659724915081
0.658026891082
0.633354243349
0.695838712805
0.668323540381
0.680655221772
0.674167250582
0.675341873604
0.673732117419
0.672703315769
0.671365411473
0.669984277524
0.66857001301
0.667081267391
0.665430371258
0.663769749776
0.662081408261
0.660353079921
0.65867135284
0.657038369317
0.64312252411
0.698178343535
0.669818751443
0.681687831186
0.674888672701
0.675619159626
0.673649792695
0.67230731928
0.670692369545
0.669070228269
0.667454127866
0.665824987611
0.664062547927
0.662313327144
0.66056871302
0.658772264252
0.657006817014
0.655268997724
0.629327082263
0.696766989209
0.673537662972
0.683961804548
0.677213366274
0.677522520779
0.675330763111
0.673732119688
0.671904505467
0.670082437033
0.668310551541
0.666561833199
0.664724997871
0.662908249323
0.661107656055
0.659282499844
0.657503552852
0.655923165712
0.685690244067
0.704041482617
0.674369093128
0.684797075263
0.677485258365
0.677325656884
0.674724111298
0.672765175964
0.670593930727
0.668430104851
0.666297709061
0.664332340194
0.662352674528
0.660396603166
0.658511996279
0.656601315678
0.654669379591
0.652544429375
0.578862363797
0.693434920759
0.684539095688
0.690398553684
0.68405680979
0.683534209198
0.68113892259
0.679367886747
0.677473673632
0.675588018931
0.673851125688
0.672235337248
0.670547141038
0.668870505735
0.667213663317
0.665425914757
0.663537188044
0.66205265379
0.819225274601
0.717555250279
0.689649738533
0.696920326226
0.690244292235
0.68925119158
0.686191116415
0.683475471074
0.680372707579
0.677023220131
0.673536188333
0.670274040059
0.666971855693
0.663536122735
0.660054466783
0.656515213977
0.652876271346
0.649340942564
0.648567611593
0.679056603448
0.675213706374
0.676716950124
0.669046526719
0.668081990264
0.665486794551
0.663491131144
0.661463994302
0.659690369807
0.658269244846
0.656944490285
0.655554318897
0.654491940485
0.653755120318
0.65314448591
0.652845042471
0.652096626014
0.500154498788
0.499796002069
0.499612469418
0.499629754608
0.499839811121
0.500202449307
0.500625187121
0.501071071778
0.50151480619
0.501938939517
0.502331806001
0.502686257414
0.502998404126
0.50326680383
0.503491756671
0.503674994859
0.503818955735
0.503927034093
0.50400245498
0.504048403302
0.504068395291
0.504064858585
0.504041302721
0.503998592617
0.503938831061
0.503861668243
0.503768860563
0.503660149363
0.503536265983
0.503396378315
0.503240792367
0.503068949881
0.502881264837
0.502676908788
0.502456093375
0.502218942471
0.501966582621
0.501698302648
0.501415290983
0.501117669877
0.500806836706
0.500483639966
0.500149798322
0.499807068743
0.499457592448
0.499103990653
0.498748873823
0.498395384879
0.498046768007
0.497705951704
0.497375753041
0.497057460806
0.496754201287
0.496470066095
0.496210354276
0.495980063216
0.495784521696
0.49562897387
0.495518844499
0.495459246624
0.495454136305
0.495504553202
0.495611211082
0.495776461786
0.496000736629
0.496281248579
0.496616069123
0.497003173906
0.497439257812
0.497921471863
0.498445453268
0.499007216312
0.49960186423
0.500225024423
0.500871884136
0.501538310305
0.502220164204
0.502912760594
0.503612165708
0.504315633699
0.505020993239
0.505724872524
0.506425171205
0.507119224806
0.507807874399
0.508488571192
0.50916139239
0.509832701191
0.510498881613
0.511163454382
0.511827030685
0.512489627047
0.513152851293
0.51378941938
0.514383827848
0.514973371421
0.515589387144
0.516216781182
0.516853303339
0.517492552864
0.518239929628
0.519073455591
0.519167291158
0.519157691674
0.519311845279
0.519683196158
0.52024075845
0.52050924675
0.520839116638
0.521139684111
0.521404367119
0.521638512015
0.521847200647
0.522036003939
0.522209292037
0.522370028866
0.52252123876
0.522666183319
0.522805756178
0.522938917934
0.523062239833
0.523174442802
0.52327685034
0.523370592977
0.523458550971
0.523541997486
0.52362171226
0.523698244692
0.523772033254
0.523843547148
0.523913245782
0.523981417469
0.524048242152
0.524113689828
0.524177754659
0.524240271151
0.524301143253
0.524360671114
0.524418292125
0.524473699093
0.524524910235
0.524573172081
0.524617593394
0.524656675643
0.524688750457
0.524712022322
0.524725393634
0.524728068765
0.524719354496
0.524698707844
0.524665037677
0.524616807658
0.524552287706
0.524469836254
0.524367680771
0.524244003176
0.524096762004
0.523923733955
0.523721990496
0.523487958386
0.523216279412
0.522901227343
0.52253471999
0.522105413172
0.521597800309
0.520994842095
0.520275570245
0.519423462624
0.518425428812
0.517258856297
0.515911049793
0.514385693271
0.512700822514
0.510897224413
0.509033614438
0.507053789243
0.50500914273
0.502976669247
0.501065406816
0.499568957185
0.500054177586
0.499814401168
0.499911485191
0.500200533697
0.500551758807
0.500910382501
0.501254957127
0.50157598384
0.501869717893
0.502134338967
0.502369440522
0.502574125755
0.502748895086
0.502893844633
0.50301012093
0.503098727274
0.503161434142
0.503200046502
0.503217068048
0.503214038821
0.503193566547
0.503157122652
0.503107146072
0.503043901372
0.502968906497
0.502881396236
0.502782386427
0.502671156577
0.502547699623
0.502410851173
0.502260655108
0.502096283314
0.501917352577
0.501722838255
0.501513233942
0.501287957394
0.501047427226
0.500791457266
0.500520612259
0.500234816771
0.499935051063
0.499622095212
0.499297384519
0.498962625912
0.498619976663
0.498272106367
0.497922246316
0.497573863498
0.497231417281
0.496899858966
0.496586598567
0.496296447501
0.496032098849
0.49579627295
0.495592650519
0.495424840181
0.495296444558
0.495212939831
0.495180062787
0.495199687098
0.495273088759
0.495402425507
0.495587457256
0.495824791697
0.496115125311
0.496459901997
0.496858554967
0.497310264595
0.497813707925
0.498367541375
0.498969576517
0.499617492158
0.500307839385
0.501037006537
0.501800892457
0.502594905536
0.503414024041
0.504253035471
0.505106504576
0.50597041452
0.506841536854
0.50771577176
0.508588502576
0.509457287411
0.510323075702
0.511179814463
0.512020084929
0.5128530418
0.513699432357
0.514541318897
0.515349101692
0.516157587501
0.51700835763
0.517872750781
0.518667143137
0.519387823228
0.520144621312
0.520754987966
0.521361956916
0.522003868472
0.522620658766
0.523371713033
0.52391108768
0.524495488298
0.525028998626
0.525543460562
0.525819063859
0.526000415925
0.526153763891
0.526346890172
0.526563178626
0.52678596817
0.527009491129
0.527231904677
0.527453157709
0.527673467941
0.52789426582
0.528117363362
0.528343361926
0.528569411275
0.528791550017
0.529007849698
0.529218185007
0.529424216463
0.529627838886
0.529829931288
0.530031127357
0.530231777301
0.530432274323
0.530632709837
0.530833093056
0.531033384511
0.531233666757
0.531433904264
0.531634270401
0.531834997293
0.532036714683
0.532240261502
0.532446304308
0.532654384321
0.532864082598
0.533076497401
0.533291971606
0.533510227031
0.533730408912
0.533952089596
0.534175658167
0.534402080245
0.534632552746
0.534868059748
0.535109688651
0.535358621553
0.535616052312
0.535882644643
0.53615824187
0.536442005677
0.536731963479
0.537025532746
0.537319156444
0.537609573927
0.537891811313
0.538160334953
0.538409744069
0.538635971983
0.538835285287
0.539004677265
0.539147820574
0.539257048316
0.539333287035
0.539378231443
0.539390321544
0.539362446174
0.539284270669
0.539151462357
0.538894522611
0.53860512992
0.538262074585
0.537874172301
0.537485534944
0.537076972776
0.500416008644
0.500344816792
0.500385062756
0.500506880667
0.500636163208
0.50074382751
0.500839368545
0.500930354968
0.50102128138
0.501112227682
0.501202039077
0.501288424529
0.501369151106
0.50144195386
0.501505197652
0.501557556325
0.501598472095
0.501627602108
0.501645362279
0.501652215817
0.501649118031
0.501636115666
0.501614812921
0.50158487283
0.501546749098
0.501499725937
0.501444057265
0.501378515415
0.50130273744
0.50121540822
0.501116023343
0.501003172314
0.500876548071
0.500735146488
0.500578677245
0.500406644221
0.500219515981
0.500016737008
0.499798869322
0.499566190166
0.499319590559
0.499060070735
0.498789149602
0.498508678247
0.498220935709
0.497928576293
0.497634797283
0.497343082483
0.497057366914
0.496781874632
0.496522661192
0.496286013882
0.496078766174
0.495905319709
0.495769095544
0.495672807305
0.49561872421
0.495606694537
0.495635771505
0.495707409946
0.49582421007
0.495988239265
0.496204389463
0.496476608397
0.496804236641
0.497188753073
0.497631632004
0.498133207143
0.498692168464
0.499306311337
0.499972078205
0.50068513748
0.501440415869
0.502232475552
0.503055712158
0.503904448634
0.504773160276
0.505656301371
0.50654857795
0.507444812842
0.508342326055
0.509237543261
0.510125303556
0.511001989398
0.511870485409
0.512731396967
0.513569441304
0.514380645579
0.515188025068
0.51600074338
0.516784587947
0.517511781655
0.518258383445
0.519001583281
0.519707115956
0.520377884502
0.520989060772
0.521444415511
0.521975339278
0.522699003462
0.523497757803
0.524054671842
0.524326220611
0.524616957203
0.524765620195
0.524957842322
0.525287782018
0.525778589858
0.526265163418
0.526698956917
0.527084689936
0.527434570525
0.527758662957
0.528063754675
0.528354473894
0.528633974332
0.528905234008
0.529170598789
0.529430772993
0.52968342067
0.529926050655
0.530158034604
0.530380691084
0.530596262528
0.530805868546
0.531010190928
0.531209640709
0.531404522619
0.531595094942
0.531781777925
0.531965186094
0.53214594815
0.532324503605
0.532501200014
0.532676394905
0.532850558139
0.533024334522
0.533198109057
0.533371909772
0.533544366446
0.533715189796
0.533885228867
0.534055670449
0.534226253079
0.534395572093
0.534562554994
0.534726778574
0.534888330115
0.535047182069
0.535203271405
0.535356499526
0.535506959318
0.535654586801
0.535799451238
0.535941830395
0.536082252059
0.536221439801
0.53636053175
0.53650067807
0.53664351828
0.536790682932
0.536943773237
0.537104377582
0.537274219968
0.537454517919
0.537646763679
0.53785356209
0.538075402577
0.538309189024
0.538552078438
0.538799113046
0.539040106678
0.539262132007
0.539439372004
0.539544851342
0.539560375402
0.539467958413
0.539263804129
0.538996807108
0.53882102037
0.500880737112
0.500775495444
0.500529714757
0.500401682076
0.500336460356
0.500286091481
0.500257431463
0.500252512367
0.500270595321
0.500308678082
0.500362903544
0.500428588235
0.500501865215
0.500578898898
0.500656759233
0.500732849784
0.500805403084
0.500873020438
0.500935188009
0.50099088443
0.501040481857
0.501083667613
0.501120637552
0.501150762946
0.50117445955
0.50119035288
0.501198168324
0.501196625928
0.501184985269
0.501161637259
0.501125745365
0.501076000545
0.501011579959
0.500931149327
0.500834779625
0.500721532592
0.500591464072
0.500444415998
0.500280938112
0.500101274886
0.499906566262
0.499698023916
0.49947749822
0.49924721744
0.499009875556
0.498768621329
0.498527163965
0.498289294502
0.498059428817
0.497842315919
0.497642566878
0.497463692999
0.497311371668
0.497190443526
0.497105404316
0.49706001683
0.497057753718
0.497100308374
0.497186333994
0.49731315705
0.497480220448
0.497688745731
0.497941763565
0.498243902449
0.49860079859
0.499015973678
0.499491296983
0.500027627935
0.500624485451
0.501279871345
0.501990349591
0.502750922283
0.503555236944
0.504396589938
0.505267868534
0.506161066946
0.50706909317
0.507986590795
0.50890662324
0.509822562281
0.510732190596
0.511636112034
0.51252604257
0.513392330784
0.514242792629
0.515084742244
0.51590340953
0.516664756613
0.517414496483
0.518162662956
0.5188747313
0.519533459922
0.520150643574
0.520747148778
0.521291934314
0.521835775104
0.522440210578
0.523099833597
0.523864386069
0.524591292838
0.525085749587
0.525275251191
0.525405599314
0.525588910331
0.525748444208
0.526041021473
0.526529692431
0.527157162954
0.527772706988
0.528309412251
0.528768859401
0.529169064771
0.529525974266
0.529850780954
0.530151164617
0.530432622309
0.530699500057
0.530955152403
0.531200560972
0.531434612582
0.531656187738
0.531866311653
0.532068010967
0.532263569789
0.532454107525
0.532640199325
0.532822345191
0.533001031218
0.533176792392
0.533350145373
0.533521852652
0.533692415105
0.53386201857
0.534030977093
0.534199673894
0.534368720064
0.534538558401
0.534709159518
0.534879586608
0.535048278277
0.535214700908
0.53538036594
0.535547142781
0.535715042372
0.535882974042
0.536050047297
0.536216026653
0.536381099277
0.536545540049
0.536709653251
0.536873663645
0.537037797941
0.537201948173
0.537366011747
0.537529892754
0.537693467688
0.537856458936
0.538018350922
0.5381784821
0.538336131983
0.538490866881
0.538642190038
0.538789651492
0.538933393233
0.539073994478
0.53921280291
0.539353219864
0.539497530165
0.53964773133
0.539807065922
0.539977319424
0.540156769396
0.540341428575
0.540522617814
0.540681321266
0.540810041111
0.540896953876
0.54094414497
0.54100761556
0.541217651731
0.501410496644
0.500805930744
0.500177191331
0.499940395769
0.499857049911
0.49980259063
0.499771191851
0.499762002425
0.499776356199
0.499812364911
0.499867914586
0.499939655536
0.500024343739
0.500118303885
0.500218641229
0.50032235641
0.50042749824
0.500531852853
0.500634335986
0.500733859003
0.500829949979
0.500921423096
0.501008645278
0.501090447584
0.501166400799
0.501235467312
0.501297068406
0.501349542248
0.501391989613
0.501422785566
0.501440931285
0.501444689789
0.501433420499
0.501405940338
0.501361680556
0.501299877905
0.501220816079
0.50112390036
0.501009682261
0.50087849739
0.500731399194
0.500569509355
0.500394635198
0.500208833412
0.500014719182
0.499815130602
0.499613548702
0.499413624763
0.499219289041
0.499035062102
0.498866997983
0.498719349018
0.498597381538
0.498506182903
0.498449766994
0.498431609937
0.498455536099
0.498524064664
0.498637661681
0.4987977801
0.499005568626
0.499261489325
0.499566259834
0.499920162339
0.500324784165
0.500783175946
0.501298016984
0.501871184814
0.502502681035
0.503191274577
0.503933998904
0.504726273236
0.505560934224
0.506431878778
0.507332129591
0.508252846478
0.509185091664
0.510125235772
0.511069332338
0.512004346351
0.512923703757
0.513837160196
0.514737910392
0.515607077235
0.516455659094
0.517297261318
0.518110917693
0.518876501573
0.51958534911
0.52027234741
0.520954663742
0.521579984914
0.522187165743
0.522759784976
0.523352475488
0.524051891344
0.524808369704
0.525544244318
0.526174582646
0.526564763803
0.526702658045
0.52672055439
0.526815524488
0.526998521309
0.527246850583
0.527630099834
0.528137613731
0.528706010935
0.52925255866
0.529739441387
0.530163481831
0.530534789646
0.530865146634
0.531164223815
0.53143941301
0.531696347656
0.531939463475
0.532171764106
0.532393965645
0.532605233106
0.532805155819
0.532995633575
0.53317972562
0.533359200385
0.533534586195
0.533705956417
0.533873390992
0.534037080558
0.534197360943
0.534354614101
0.534509145822
0.534661275504
0.534811448377
0.53496008534
0.535107777907
0.535255224771
0.535402782545
0.535550014195
0.535695200924
0.535836763186
0.535974308554
0.536110261398
0.536246940001
0.536384801471
0.536523159551
0.536661209473
0.53679871081
0.53693574811
0.537072572226
0.537209475021
0.537346644933
0.537484236979
0.537622419625
0.537761301842
0.537900970226
0.53804137054
0.538182471847
0.538324251187
0.538466553097
0.538609189071
0.538752246472
0.538895776785
0.539039902205
0.539185113816
0.539331884572
0.53948117649
0.539635237724
0.539795138598
0.539961257511
0.540135123943
0.540316220494
0.540501610583
0.540688024857
0.540869104269
0.541034002194
0.541180087759
0.541309699023
0.541440775625
0.541639267539
0.542019200063
0.501891227355
0.500217559719
0.49936427417
0.499335884933
0.499423388908
0.499463887258
0.499483617001
0.499501468687
0.499530790692
0.499576864805
0.499641663489
0.499723236537
0.499819757875
0.499927872515
0.500045207474
0.500168713331
0.500296474438
0.500426241958
0.50055691323
0.500686548343
0.500814844015
0.5009406938
0.501063445517
0.501182017795
0.501296216541
0.501404318718
0.501505549349
0.501598340887
0.501681575737
0.50175345469
0.501812820519
0.50185816406
0.501888474829
0.501902338243
0.501899614878
0.501879333028
0.501841481804
0.501785894184
0.5017132014
0.501623733922
0.501518817557
0.501399685265
0.501268365076
0.501127000793
0.500978312153
0.500825114304
0.500670861114
0.500518821721
0.5003728522
0.500237387462
0.500118289503
0.500019800955
0.499947704566
0.499907283785
0.499903291715
0.499939964114
0.500021196742
0.500146419737
0.500314248079
0.500523881971
0.500775488319
0.501069374087
0.501407271863
0.501790442434
0.502223470312
0.502709936607
0.503253530052
0.503856686182
0.504519378766
0.505239051293
0.50601360394
0.506837449646
0.507701846496
0.508598364356
0.50952301472
0.510465978215
0.511413479149
0.512359962271
0.513309143883
0.514251515124
0.515162287672
0.516076633533
0.516977484535
0.517850844683
0.518684550319
0.519473518001
0.520239335171
0.520974953459
0.521680038285
0.522372714645
0.523010974248
0.523639236993
0.524333902859
0.525036124011
0.525753205819
0.526452970169
0.52706868449
0.527556189197
0.527890800269
0.528041677305
0.528080355611
0.528136144022
0.52828936962
0.528524401791
0.528838327698
0.529244669546
0.529712699995
0.530199857495
0.530666388927
0.531093626732
0.531477190888
0.531820652451
0.532130281176
0.532412407959
0.532672530488
0.532915234221
0.533144262427
0.533361777318
0.533568191226
0.533762732414
0.533945596056
0.534119269323
0.534286502615
0.534448835398
0.5346066808
0.534760084262
0.534909094435
0.535053922128
0.53519493175
0.535332607278
0.535467503599
0.535600371759
0.535731829417
0.535862433718
0.535992907668
0.536123969214
0.53625575246
0.53638713252
0.536516043441
0.536640465359
0.536760489668
0.536878674413
0.536997322866
0.537117134016
0.537237574055
0.537358031653
0.537478238306
0.537598223059
0.53771815174
0.537838043755
0.537957998286
0.538078096036
0.538198427253
0.538319151224
0.538440355233
0.538562141912
0.53868456292
0.538807690325
0.538931504494
0.539056022213
0.53918147801
0.539308082329
0.539436206173
0.539566560772
0.539700005244
0.539837738135
0.539981955792
0.540133843823
0.540294074992
0.540464187757
0.540643469569
0.54082918128
0.541018836403
0.541207830625
0.541387473986
0.541557292601
0.541723326141
0.541908455362
0.542175523854
0.542613246723
0.502160531544
0.498970427598
0.498328874033
0.498825972218
0.499140034467
0.499279092317
0.499351642086
0.499406534078
0.499468906166
0.499545763616
0.499640402612
0.499751192808
0.499876837646
0.500014114965
0.500161169213
0.500314996347
0.50047411559
0.500636018379
0.500799719642
0.500963758793
0.501127366068
0.50128898754
0.501448613611
0.501604748291
0.50175667035
0.501903181457
0.50204343495
0.502175649037
0.502298792163
0.502411134636
0.502511569701
0.502598344752
0.502670730048
0.502727557005
0.502768224816
0.502792056841
0.502799322472
0.502789615593
0.502763675086
0.502722033256
0.50266602869
0.502596917211
0.502516702665
0.502427353857
0.502331363339
0.502230993123
0.502129177725
0.502028561788
0.501931952247
0.501842745399
0.501767526088
0.501709886263
0.501676279131
0.501674058609
0.501709762373
0.501789417536
0.501916364948
0.502087457158
0.50230100968
0.502555172554
0.502848961772
0.503180078425
0.503548951975
0.503957821518
0.504414187191
0.504922176433
0.505487389318
0.506114176616
0.506802201804
0.507547385656
0.508346625735
0.50919711151
0.510086074905
0.510999446761
0.511934316723
0.512884832912
0.513836004373
0.514782002414
0.515732436526
0.516670032801
0.517585948419
0.518465857356
0.519305871437
0.520131588233
0.520932516769
0.521696803351
0.522422426996
0.523109249425
0.523793996742
0.524500689551
0.525186401716
0.525885593464
0.526588661703
0.527250995112
0.527869552687
0.528397759679
0.528807127977
0.529092804063
0.529275817186
0.529374373699
0.529462098982
0.52960595883
0.529823608704
0.530100868021
0.530435340119
0.530820189583
0.531231893551
0.531647074723
0.532046317873
0.532419209717
0.532761419432
0.533073283511
0.533357490802
0.533617739953
0.533857806434
0.534081358362
0.534291335902
0.534489423688
0.534675789428
0.534850033127
0.535013036486
0.535167297615
0.535315385299
0.535458693117
0.535597710953
0.5357325527
0.535863338191
0.535990303513
0.536113847236
0.536234487132
0.53635276879
0.536469185355
0.536584184159
0.536698345634
0.536812430093
0.536927169874
0.537042465838
0.537156812342
0.537267894284
0.537373765875
0.537475056223
0.537574295284
0.537673784312
0.537774214837
0.537875235252
0.537976450779
0.538077727834
0.538179216709
0.538280959679
0.538383054446
0.538485521227
0.53858843384
0.538691860788
0.538795856151
0.538900523576
0.539005991924
0.539112339587
0.539219650751
0.539327940033
0.539437319902
0.539548095247
0.539660594682
0.539775246273
0.539892931992
0.54001465527
0.540141667618
0.54027602423
0.540418943012
0.540571212622
0.540734324377
0.540907760703
0.541089202753
0.541277173679
0.541468909587
0.541658317932
0.541847016673
0.542043730913
0.542273686107
0.542593084866
0.543068320569
0.502105672796
0.497249544708
0.497389462962
0.498542438007
0.498992301971
0.499196439065
0.499323060721
0.499433878162
0.499552320042
0.499682898097
0.499828684643
0.499987052752
0.500157685763
0.50033746629
0.500525429675
0.500718792303
0.500916579465
0.501116599309
0.501318283756
0.501519666463
0.501720536176
0.501919523476
0.502115966537
0.50230877969
0.502497737274
0.502681147039
0.502858372635
0.503027959711
0.503188951599
0.503339713365
0.503479305367
0.503606407176
0.503720197726
0.503819538743
0.503904373007
0.503973948533
0.504028404124
0.504067773571
0.504092798876
0.504103961574
0.504102677062
0.504090114701
0.50406808089
0.504038205477
0.504002362782
0.503962084302
0.50391897449
0.503874363157
0.503829774987
0.503786980839
0.503751275101
0.503728845301
0.503727832733
0.503759976141
0.503837073654
0.503969471433
0.504157625001
0.504394769418
0.50467667394
0.504998173171
0.505352284815
0.505731463947
0.50613029571
0.506558903302
0.507025894918
0.507539216028
0.508106692412
0.508737273385
0.509434250307
0.510189424865
0.510995135853
0.511852082471
0.512749867279
0.51366193089
0.514602865951
0.515558693348
0.516506822973
0.517439583689
0.518345448857
0.519219650873
0.520083419314
0.520924643036
0.521731286456
0.522503619115
0.52323788306
0.523938311595
0.524626605377
0.525322225422
0.526027555736
0.526726747139
0.527388683371
0.528036002481
0.528632406912
0.529164562707
0.529630854345
0.530008571701
0.530293544302
0.530495837902
0.530646041274
0.530772339598
0.530924913185
0.531128008262
0.531378365295
0.531665825477
0.531985814813
0.532329852915
0.532684909409
0.533038955321
0.533381555773
0.533705824028
0.534007851308
0.534286571971
0.534542808688
0.534778533999
0.534996348125
0.535199080675
0.535389000204
0.535567323363
0.535734084888
0.53588914027
0.536033662462
0.536169979258
0.536300282937
0.536425838665
0.536547174984
0.536664458881
0.536777822136
0.536887472674
0.536993762246
0.5370971414
0.537198105589
0.537297131778
0.537394788367
0.537491757853
0.537588960699
0.537687051152
0.537785630414
0.537882952748
0.537976534502
0.538064859542
0.538148791805
0.538230737882
0.538312748149
0.538395437693
0.53847862228
0.538562039247
0.538645724109
0.538729785579
0.538814337893
0.538899428466
0.538985040564
0.539071213426
0.539157990549
0.539245463365
0.539333751141