/*--------------------------------*- C++ -*----------------------------------*\
| =========                 |                                                 |
| \\      /  F ield         | OpenFOAM: The Open Source CFD Toolbox           |
|  \\    /   O peration     | Version:  v1806                                 |
|   \\  /    A nd           | Web:      www.OpenFOAM.com                      |
|    \\/     M anipulation  |                                                 |
\*---------------------------------------------------------------------------*/
FoamFile
{
    version     2.0;
    format      ascii;
    class       volScalarField;
    location    "22";
    object      alpha;
}
// * * * * * * * * * * * * * * * * * * * * * * * * * * * * * * * * * * * * * //

dimensions      [0 0 -1 0 0 0 0];


internalField   nonuniform List<scalar> 
12225
(
0.391694097181
0.32876268995
0.349015995934
0.348741079482
0.36046898679
0.364657446302
0.370490831875
0.374418292137
0.376472385866
0.375489410804
0.370037948756
0.361493387874
0.354622403884
0.343056777712
0.320136565865
0.290045219011
0.250950303546
0.218300890339
0.222003934765
0.281134355011
0.312509399669
0.307977212864
0.316781057837
0.31904051547
0.322609353535
0.324778387756
0.325904705556
0.325326099315
0.321731204852
0.315373663122
0.308761354812
0.299046083288
0.281775594925
0.259261881346
0.234388317208
0.231792674073
0.372108133341
0.298776018086
0.317269703597
0.315353054996
0.324887340052
0.328088843241
0.332455320036
0.335339169314
0.3372770026
0.33777474117
0.33616690131
0.332341408843
0.326803878482
0.317981128398
0.30349924131
0.285157820371
0.268049389947
0.272600418296
0.304960847519
0.287334098734
0.312917717261
0.307275127241
0.315781332253
0.317421278361
0.320463062267
0.322241888376
0.323389474164
0.323506192552
0.322286574732
0.31958200183
0.315270331617
0.308425786057
0.298102105139
0.286242984448
0.278448362126
0.287650640847
0.33996535044
0.287497716637
0.311807222848
0.304960914026
0.312683950333
0.313399568658
0.315576473553
0.316461941862
0.316696612854
0.315969723317
0.31416350039
0.311202781012
0.306877264656
0.300744129971
0.292816310215
0.285288061195
0.283085973605
0.293199970255
0.325777785583
0.28386219459
0.308548650965
0.30044373006
0.30759137974
0.307606628275
0.309249514341
0.309650785705
0.309467269442
0.308446402526
0.306549125287
0.303745485898
0.299884608157
0.29485078588
0.289180920024
0.285038963995
0.28610032172
0.295685199699
0.329708406309
0.282534271813
0.306099555206
0.297144331171
0.303627590475
0.303000968966
0.304133383586
0.304097762354
0.303569922752
0.302347022938
0.300439315146
0.297858334997
0.294573706058
0.290697039456
0.287003088012
0.285368438077
0.288248474711
0.297005124908
0.327338165599
0.281077663421
0.303955683374
0.294271602224
0.300209484377
0.299067240692
0.299818009505
0.299478764491
0.298768708432
0.297502769251
0.295713446992
0.293452585784
0.290806558656
0.28803497806
0.285976460382
0.28610641157
0.289949982772
0.297861202622
0.326424916131
0.28034722435
0.302209941897
0.292034588057
0.297449276183
0.295868392574
0.296302060266
0.295753380711
0.294973790833
0.293771413906
0.292188226522
0.290322457385
0.288346995114
0.286599049354
0.28584843082
0.287199877262
0.291506476585
0.298697284135
0.325543296015
0.280027003348
0.301013459496
0.290477782492
0.295455792257
0.293515276266
0.293717636361
0.293049622371
0.292269760074
0.291178593088
0.289850550769
0.288429553071
0.287137228898
0.28631342841
0.2865969743
0.288765026882
0.293246612689
0.299766487408
0.325581768419
0.279958621841
0.30064154027
0.289781415517
0.294508465824
0.292364509155
0.292490254999
0.291802439381
0.291079745922
0.290149749234
0.289121310925
0.288142416346
0.287437661295
0.287307596668
0.288255880772
0.290802702089
0.295117058183
0.30089637525
0.329471570083
0.280078731256
0.302076045487
0.290660265942
0.295446336241
0.29321168384
0.293323982571
0.292642041166
0.292017926742
0.291250400048
0.290391761268
0.289610250312
0.289141763634
0.289273931876
0.290392859749
0.292854283062
0.296727774687
0.301717375653
0.332672252022
0.280740897102
0.30352424754
0.291715643402
0.296330975302
0.293933407856
0.293951511446
0.293199444997
0.292493499754
0.291653539191
0.290789090161
0.29007331967
0.289775649449
0.290105227387
0.291378086828
0.293805924796
0.297360338753
0.301780257604
0.336576593506
0.281567976268
0.305180424819
0.292855334377
0.297265957586
0.294528072953
0.294252397773
0.293290912768
0.292482878312
0.291645191579
0.290893802931
0.290416396446
0.290447436992
0.29113254127
0.292639011914
0.295093455868
0.298357394783
0.302283845261
0.341677331144
0.282474628038
0.307266746118
0.294241012393
0.298442602294
0.295302239124
0.294692982684
0.293483234471
0.292555601865
0.291760635897
0.291180571299
0.291011959934
0.291428583613
0.292453792485
0.294169633418
0.296602333609
0.299599004506
0.303020261281
0.347059247853
0.283444637396
0.309656386897
0.295936378892
0.30003375134
0.296548176899
0.295693207102
0.294302992424
0.29332822795
0.292586040657
0.292200854806
0.292284961661
0.292995067848
0.294230225386
0.296033084923
0.298354071499
0.301060154714
0.304054513075
0.35194913358
0.284333527312
0.312090620341
0.297805465505
0.301946204966
0.29825697535
0.297303735772
0.295862441596
0.29491928528
0.294295822737
0.29405948977
0.294332876089
0.295196586871
0.296521718005
0.298280860527
0.300444378949
0.302846623802
0.305490538644
0.356590412174
0.285019848343
0.314422787577
0.299676506783
0.304001770611
0.300251478692
0.299342813255
0.297945939192
0.297094808022
0.296589585948
0.296479207123
0.29686767071
0.297801430747
0.299119829357
0.300783463809
0.302766901197
0.304909710127
0.307245927567
0.359123261067
0.285107644489
0.315673305329
0.300749476041
0.305368459049
0.301763160015
0.301079875245
0.29988661681
0.299248648262
0.298945309623
0.299010357673
0.29952588233
0.300524453862
0.301830721791
0.303411707918
0.305253594641
0.307207163785
0.309315107636
0.353967492905
0.284518538781
0.314127144876
0.300042258935
0.305126838054
0.302177528666
0.302118929082
0.301563898851
0.301500425855
0.301707741044
0.302189785104
0.303011999427
0.304210874238
0.305624380694
0.307224196612
0.309006248678
0.310836285293
0.312747905833
0.349278271322
0.283368607465
0.312289611342
0.298822800873
0.304270363204
0.301843257178
0.302278953421
0.302186624462
0.302563725329
0.303134334094
0.303910220562
0.304933216762
0.306272497523
0.307742712755
0.309353740474
0.311082581844
0.312837505462
0.31462497233
0.347621881013
0.282583456965
0.310447438981
0.29749893306
0.303213475268
0.301246284659
0.302082888341
0.302393078096
0.303112733847
0.303972520726
0.304982767055
0.306163771091
0.307597681673
0.309121391065
0.310732672169
0.312432462085
0.314123071455
0.315849950539
0.339535691852
0.280818650848
0.308731375731
0.296281806043
0.302287142146
0.300751945671
0.301971054111
0.302642547072
0.303677136106
0.304813646143
0.306020861553
0.30736099684
0.308897881948
0.310489552344
0.312111367327
0.313811876283
0.315471690206
0.317134713353
0.346417280956
0.280409205718
0.306563489709
0.294642957876
0.300913711475
0.299827464002
0.301418389815
0.302458866868
0.30379886358
0.305184524698
0.306605037801
0.308100218882
0.309754143972
0.311420047689
0.313115341036
0.314851083461
0.316541684248
0.318199263066
0.319749524867
0.278163714098
0.304991332772
0.293894822448
0.300367368009
0.299701745908
0.301618786937
0.302935665736
0.304513328374
0.306095815844
0.307670274821
0.309256388111
0.310970690545
0.312671880181
0.314368896919
0.316117194443
0.317837855998
0.319514907362
0.362118351705
0.277997342765
0.302028872422
0.291247714262
0.297990123636
0.297697742056
0.299877191939
0.301477881939
0.303305082111
0.305130570366
0.306911558295
0.308674549693
0.310527456027
0.312365300806
0.314190176711
0.316037410425
0.317832326041
0.319442207647
0.269121282576
0.275102367948
0.299548627713
0.290946498214
0.297550573058
0.297850146227
0.300339816465
0.302256747893
0.304366360323
0.306472046429
0.308547207593
0.310462586865
0.312392618743
0.314299405305
0.316134232998
0.317989061904
0.31986099338
0.321901847197
0.412543822242
0.279135371772
0.291997146861
0.284974711119
0.291573480726
0.292000174768
0.294402812252
0.296155553585
0.298042653882
0.299917689913
0.301650646585
0.303267060583
0.304953566208
0.306628720215
0.30828461344
0.310067214427
0.311949488961
0.313469261812
0.152062306562
0.260704837959
0.284702788686
0.278659978237
0.284796715619
0.285866341316
0.288802420665
0.291449539615
0.294460719201
0.297716309941
0.301106196346
0.304283404944
0.307503004006
0.310856315368
0.31426100403
0.317731513975
0.321315575737
0.324789976016
0.329275494759
0.296685084426
0.301425643424
0.299786314926
0.30731158992
0.308284617777
0.310853072493
0.312839696148
0.31485770683
0.316630378841
0.318060899956
0.31939647606
0.32079279584
0.321869811717
0.322631616007
0.323270548923
0.323595325199
0.324339122389
0.476040510794
0.476400413862
0.476586517261
0.476568372887
0.476354525214
0.475979264367
0.475545324833
0.475086163607
0.474628374265
0.474190424658
0.473784280141
0.473416885512
0.473091538084
0.472809101239
0.472568714789
0.47236836029
0.472205432438
0.47207661379
0.471978843676
0.471909200073
0.471864465377
0.471842518682
0.471840182609
0.471856853495
0.47189075348
0.471942426114
0.472010370837
0.472094991954
0.472195798464
0.472313725125
0.472448648331
0.472601198794
0.472771103949
0.472959244646
0.473165504432
0.473389820231
0.473631112764
0.473890163984
0.474165827641
0.474458068017
0.474765513775
0.47508742218
0.475422090346
0.475767870478
0.476122617722
0.476483789229
0.476848769729
0.477214425645
0.47757748627
0.477934986984
0.478284062627
0.478623319961
0.478949620938
0.479258735979
0.479545300481
0.479804183984
0.480029993494
0.480217335188
0.48036069213
0.48045480543
0.480495607189
0.480481881959
0.48041268255
0.480285025134
0.480097958736
0.479854591027
0.479556987247
0.479207259242
0.478808712478
0.478364121867
0.477877743558
0.477353430568
0.476795932893
0.476209467929
0.475598683569
0.474967544695
0.474319998891
0.473660580804
0.472993070187
0.472320087459
0.471643664604
0.470967082034
0.470292380417
0.469622250786
0.46895591766
0.46829603769
0.467642702337
0.466989644358
0.466340599057
0.465692014177
0.465043133702
0.464393781924
0.463741802108
0.463113545497
0.462523537084
0.461933954811
0.461313169093
0.460675924338
0.460024103689
0.459363679234
0.458589294253
0.457722124129
0.457581292763
0.45753517816
0.457319383663
0.45688017986
0.456250942271
0.455906579019
0.455503749735
0.455140774183
0.454843843509
0.454587911895
0.454367804949
0.45416187791
0.453977249843
0.453805459046
0.453644477087
0.453489957594
0.453341302554
0.453199793771
0.453068374197
0.452948374448
0.452838533085
0.452737800263
0.452643382684
0.45255404411
0.452469058309
0.452387934993
0.452310320981
0.452235825923
0.452164089527
0.45209490374
0.452028091149
0.451963633741
0.451901469698
0.451841684211
0.451784292063
0.451728957511
0.451676145305
0.451625990843
0.451580214958
0.451537405798
0.45149837281
0.451464631244
0.451437881065
0.451419935562
0.451411909262
0.451414610232
0.451428744652
0.451454861354
0.451494051746
0.451547841457
0.451617950984
0.451706013244
0.451813797748
0.451943120777
0.452096030408
0.452274766105
0.452482284048
0.452722173609
0.452999767764
0.453320748199
0.453693132724
0.454128165446
0.454641208569
0.45524913782
0.455972800593
0.45682874045
0.457830192486
0.458999913994
0.460350907163
0.461879778318
0.463569097838
0.465377119955
0.467243960142
0.46922544729
0.471271045988
0.473303134884
0.475212772652
0.476696041984
0.476142477555
0.476375657613
0.476274436405
0.47598789518
0.475639928967
0.475283898875
0.474941246788
0.474622250058
0.474331412244
0.474070890652
0.473840989287
0.473642290395
0.473473883121
0.473335365869
0.473225350627
0.473142732278
0.47308568952
0.473052439542
0.473040529929
0.473048491797
0.47307381152
0.473115081231
0.473169988229
0.473238351424
0.473318799416
0.473412189082
0.473517681833
0.473636122264
0.473767729753
0.473913820053
0.474074571552
0.474250970852
0.474443606646
0.474653666419
0.474880818566
0.475125777053
0.475388236936
0.475668487109
0.475966018992
0.476280977217
0.476612385735
0.476959489191
0.477320803371
0.477694594884
0.478078606325
0.478470075225
0.478865623382
0.479261631521
0.479653453334
0.480035903059
0.480401379246
0.480744828794
0.481063345669
0.481353948463
0.481612733717
0.481835823247
0.482019402315
0.48215775155
0.4822449281
0.48227882893
0.482257988994
0.482180152687
0.482045709266
0.481858657402
0.481617967775
0.481321030671
0.480967672677
0.480558249088
0.480093709815
0.479575087934
0.47900431152
0.478383506006
0.477715997351
0.477005348545
0.476255665869
0.475471607298
0.474658286085
0.473821031188
0.472965360263
0.47209530283
0.47121396133
0.470325172177
0.469433101714
0.468539602049
0.467643002363
0.466748560523
0.465862954449
0.464976592001
0.464068667527
0.463157536208
0.462273777288
0.461384152107
0.460449034281
0.45949889425
0.458618821101
0.457814086573
0.456976589528
0.456288317264
0.455606444403
0.45489265616
0.454206752383
0.453390567821
0.452786205348
0.45213473286
0.451534063788
0.450955422798
0.450611226971
0.450346783804
0.450111033834
0.449866881681
0.44961932906
0.449363054382
0.449100904185
0.448836386863
0.448577923135
0.448321100248
0.448066205722
0.447811258628
0.447556027282
0.447303396336
0.447057069699
0.446818917822
0.446589046481
0.446365823836
0.446147348117
0.445932686876
0.445721122392
0.445512205732
0.44530543833
0.445100628348
0.444897682505
0.444696568815
0.444497143
0.444299273885
0.444102560902
0.443906629101
0.443710851357
0.44351444784
0.443316693886
0.443117849834
0.442918077382
0.442716098953
0.442511507791
0.442304600316
0.442096255239
0.441886907162
0.441676162927
0.441463037864
0.441246311895
0.441024972008
0.440797906734
0.440563908899
0.440321765182
0.440070785686
0.4398111055
0.439543551896
0.439270108494
0.438993379005
0.438716941689
0.438444077664
0.438179776964
0.437929580582
0.437698880582
0.437491717828
0.437311784214
0.437162053413
0.437038992889
0.43695034054
0.436895325886
0.436872327985
0.436882992913
0.436934164539
0.437035451074
0.437189199096
0.43746463737
0.437770493826
0.438131143999
0.438538223824
0.43894994318
0.439381697953
0.475773699586
0.475848915746
0.475814227351
0.475699186648
0.475577608047
0.475477631832
0.47539007567
0.475308469685
0.475229083283
0.475151781019
0.475077112914
0.475006678463
0.474942120148
0.474885338803
0.474837739997
0.474800552469
0.474774284297
0.47475927639
0.474755138202
0.474761431935
0.474777262424
0.474802624212
0.474835991382
0.474877745956
0.474927529153
0.474986103264
0.475053308432
0.475130424822
0.475217916546
0.475317154516
0.475428734978
0.475554124299
0.475693706698
0.475848525124
0.47601892355
0.476205431661
0.476407597685
0.476625998709
0.476860072926
0.477109549885
0.477373509893
0.477650941316
0.477940268207
0.478239599424
0.478546569069
0.478858445673
0.479171927669
0.479483412705
0.479788848585
0.48008388647
0.480362348542
0.480617817123
0.480843375297
0.481034498534
0.481187671026
0.481300068698
0.481369346044
0.481395568607
0.481379616379
0.481319973707
0.481213965406
0.481059429689
0.48085097916
0.480584869251
0.480262859671
0.479884206045
0.479447782134
0.47895350506
0.478402976526
0.477798701694
0.477144486189
0.476444834335
0.475704889011
0.474930064401
0.474125848518
0.473297706308
0.472450876101
0.471590556507
0.470721623211
0.469848757509
0.468974059466
0.468100432143
0.467232261067
0.46637229823
0.465516708488
0.464663838322
0.463827821482
0.46301144744
0.462190784629
0.461355947818
0.46054047763
0.459771860986
0.458974834789
0.458173227561
0.457402658971
0.456661867119
0.455977583911
0.455447788502
0.454844548467
0.454053904619
0.453194657839
0.45257994689
0.452251136128
0.451909071914
0.451718921617
0.451480431969
0.451087342272
0.450522975494
0.449984107663
0.4495148951
0.44908025926
0.448677313739
0.448304878404
0.447960084112
0.447638597554
0.447332524129
0.447038587498
0.446753404428
0.446475747669
0.446207385383
0.445950381789
0.445705191878
0.445470456815
0.445243965421
0.445024595225
0.444811616706
0.44460453332
0.444402944343
0.444206502212
0.444014708157
0.443826864454
0.443642262463
0.443460433003
0.443281077052
0.443103941089
0.442928707301
0.442754819799
0.442581901907
0.442409798802
0.442239616553
0.442071407128
0.441904158375
0.441736677641
0.441569305159
0.441403548757
0.441240574388
0.44108088963
0.44092449338
0.440771506327
0.440622089263
0.440476430359
0.440334512612
0.440196458358
0.440062242146
0.439931612328
0.43980405326
0.43967883994
0.439554819515
0.439430800674
0.439305084183
0.439175963707
0.439041730302
0.438900645695
0.43875081914
0.438590863361
0.43841915063
0.438233061507
0.438032207868
0.437819831003
0.437598983869
0.437374776987
0.437157129835
0.436958261905
0.436802254887
0.436715396109
0.436714727376
0.43681899476
0.437035222687
0.437319025783
0.43751772383
0.475305313643
0.475424172385
0.475685607892
0.475826256753
0.475902979569
0.47596260743
0.475999291648
0.476013375415
0.476007071739
0.475983458235
0.47594569795
0.475897707281
0.475842765489
0.475784367228
0.47572525377
0.475667937255
0.475614151281
0.475565277519
0.475521839925
0.475484864049
0.475454012099
0.475429605579
0.475411499176
0.47540034566
0.475395785374
0.475399225765
0.475411007939
0.475432455007
0.47546437525
0.475508426095
0.475565509295
0.47563696842
0.475723669924
0.475826971229
0.475946812563
0.476084121826
0.476238830981
0.476411065139
0.476600225009
0.47680601511
0.477027220082
0.477262554408
0.477510067492
0.47776743557
0.478031849799
0.478300049708
0.478568208417
0.478832431933
0.479088207487
0.479330688984
0.479555213178
0.479758217225
0.479933999487
0.480077709686
0.480184879018
0.48025176452
0.480274947598
0.480252786077
0.480186696195
0.480079406521
0.479931589103
0.479742164449
0.479508440034
0.479225062007
0.478885523376
0.478485819153
0.478023872067
0.477498590316
0.476910243134
0.476260710184
0.475553402412
0.47479339336
0.473987196145
0.473141743364
0.47226441008
0.471363491748
0.470446364918
0.469518647693
0.468587481139
0.467659617837
0.466737308179
0.465819872132
0.46491534252
0.464032970097
0.463164473546
0.462301962034
0.461459477554
0.460670191218
0.459888006755
0.459102530398
0.458347768697
0.457640413774
0.456968273891
0.456310407216
0.455697947449
0.455081157651
0.454400648414
0.453664336315
0.452825439548
0.452027593681
0.451465547547
0.451212654298
0.451029967862
0.450808833097
0.450620076817
0.450300257389
0.449774227898
0.44910724868
0.448459639975
0.44787654122
0.447351429234
0.446886085188
0.446473120476
0.446102501539
0.445764222985
0.44544919542
0.445152384316
0.444869674325
0.444599781281
0.44434356218
0.444101991572
0.443874028825
0.443656710126
0.443447785753
0.443246100422
0.443050965367
0.442861729753
0.442677741489
0.44249830597
0.442322761965
0.442150216709
0.441980092951
0.441812177969
0.441646153459
0.441481625772
0.441317901216
0.4411544095
0.440990999978
0.440828428421
0.440667964612
0.440509870915
0.440352475782
0.440193895488
0.440034178206
0.439874489036
0.439715781734
0.439558346565
0.43940205376
0.439246689156
0.439092008854
0.43893784523
0.438784022179
0.438630686874
0.438477977496
0.438326022799
0.438174970348
0.438025107159
0.437876953177
0.437731161152
0.437588429195
0.437449145944
0.437313731594
0.43718251044
0.437055183808
0.436931003332
0.436808487236
0.436684208676
0.436555993295
0.436422066211
0.436279586226
0.436127084545
0.43596620676
0.435800534874
0.435637472313
0.435495038213
0.435379213863
0.435299964026
0.435258545038
0.435203690457
0.435007266257
0.474763661742
0.47542764156
0.47608261596
0.47632299783
0.476408421735
0.476464350291
0.476497828372
0.476511982462
0.476506467396
0.476482691923
0.476441762002
0.476386143909
0.476318483772
0.476242115653
0.476159756711
0.476074317751
0.475987720815
0.475902161388
0.475818739694
0.475738540161
0.475662063819
0.475590504068
0.475523527841
0.475462315401
0.47540733574
0.475359647001
0.475319865103
0.475289679144
0.475270026309
0.47526255724
0.475268295316
0.475288992099
0.475325292249
0.475378355112
0.475448725036
0.475537111718
0.475643162013
0.475767381588
0.475909118791
0.476067914406
0.476242576113
0.476431827618
0.476633689823
0.47684592323
0.477065719257
0.477290043886
0.477515226823
0.477737427133
0.477952551027
0.478155939429
0.478341419089
0.478504644722
0.478640299134
0.478743258181
0.478809498316
0.478835549412
0.478817614146
0.478753190292
0.47864184948
0.478482171026
0.478273035588
0.478013906627
0.477704628951
0.477346130365
0.476937508587
0.476476221513
0.475959909734
0.475386883792
0.474757201563
0.474072027838
0.473334146479
0.472547872867
0.471720034629
0.470856389056
0.469963575807
0.469050116927
0.468124665922
0.46719062013
0.466251695502
0.465320635791
0.46440368067
0.463490713236
0.462587989372
0.461713653448
0.460856003291
0.460000733119
0.45916796312
0.458377170739
0.457636628212
0.45691157208
0.456184959338
0.455508645288
0.454843946193
0.454207411911
0.453545408353
0.452772811445
0.451940669669
0.451127671647
0.45041909352
0.449950675218
0.44973755462
0.449652905962
0.449505535237
0.44928702964
0.449020158887
0.448619722236
0.448086484545
0.447491945456
0.446911633211
0.44636973387
0.445879746776
0.445447282988
0.445065785492
0.444725719098
0.444417572363
0.444133335217
0.443867544534
0.443616178269
0.443377760254
0.443152461252
0.442940197499
0.442738768786
0.442544970555
0.442356939534
0.442174061059
0.441996172012
0.441823112053
0.441654624997
0.441490331473
0.441329834109
0.441172850617
0.441019082959
0.440868082656
0.44071944089
0.440572596051
0.440426898814
0.440282017424
0.440138336464
0.439997421557
0.439860585281
0.439727975198
0.439597057586
0.439465525624
0.439332987899
0.439200204176
0.439068049854
0.43893683515
0.438806543556
0.43867699028
0.438547942685
0.438419265535
0.438290845976
0.43816254376
0.438034263642
0.437905933758
0.437777612407
0.437649317844
0.437521038781
0.437392885619
0.437264991874
0.437137192445
0.437009322558
0.436881108234
0.436751873092
0.43662094256
0.4364871778
0.436348239568
0.436203100609
0.436051549931
0.435892437494
0.435726616529
0.435557060483
0.435386912455
0.435221548278
0.43507109994
0.43493698241
0.434814212656
0.434686732049
0.434492355659
0.434118612782
0.47427446361
0.476111370253
0.476970678059
0.476966165405
0.476861671466
0.4768134234
0.476791607122
0.476776512907
0.476754351777
0.476718815587
0.476666907204
0.476599858771
0.476519054895
0.476427593406
0.476327703
0.476222338531
0.476113367109
0.476002989119
0.47589228896
0.475783177206
0.47567595533
0.475571710469
0.47547110291
0.4753752098
0.475284236074
0.475199910206
0.475123023769
0.475055157107
0.474997439748
0.474951680344
0.474919037451
0.474901004163
0.474898564774
0.47491308784
0.47494464616
0.474994115991
0.475061407574
0.475146550979
0.475248769936
0.475367563674
0.475501429433
0.475648935375
0.475807852349
0.475975822146
0.476149919998
0.476327125354
0.47650380282
0.476676524193
0.476841309758
0.476993634063
0.477127601427
0.477238976292
0.477322016726
0.477371527481
0.477382866215
0.477351929943
0.477274970418
0.477152694069
0.476986683828
0.47677792873
0.476526517353
0.476232348214
0.475893495674
0.475508115973
0.475071241892
0.474579353311
0.474028893586
0.47341768666
0.472746106488
0.472017106718
0.47123318528
0.47040027728
0.469527392849
0.468623144548
0.467691626415
0.466742676266
0.465790010248
0.464839107388
0.463886172752
0.462940529644
0.462026621335
0.461109078882
0.460204343502
0.459325566511
0.458483853845
0.457683113504
0.456900774061
0.45614283521
0.455408904046
0.454680719614
0.453999862377
0.453322326361
0.452572781716
0.45181063437
0.451029731461
0.450262746758
0.449576379311
0.449014598905
0.448601748804
0.448371470508
0.448257279279
0.448135238971
0.447933866614
0.447674785573
0.447347868065
0.446921880918
0.446427016869
0.445909085453
0.445400835549
0.444918629186
0.444477476622
0.444081978362
0.443727950828
0.443408654135
0.44311707363
0.442847103202
0.442594093032
0.442355107423
0.442129213448
0.44191685767
0.441717715874
0.441529365429
0.441349192244
0.44117578163
0.441008773995
0.440848117807
0.44069369853
0.440545200948
0.440402126453
0.44026384416
0.440129626714
0.439998543556
0.439869841416
0.43974287858
0.439616931979
0.439491263544
0.439365657627
0.43924114391
0.439119604042
0.439002783669
0.438890401142
0.43877981746
0.438668749437
0.438556549641
0.438443809817
0.438331198404
0.438219046244
0.438107390081
0.437996129491
0.437885301845
0.437774857879
0.437664754687
0.437554928399
0.437445229046
0.437335568468
0.437225836496
0.43711597206
0.437005876134
0.436895531188
0.43678486716
0.43667358192
0.436561366088
0.43644772378
0.436331782838
0.436212514665
0.436088562872
0.435957646615
0.435818590358
0.435670839993
0.435513131902
0.435346446024
0.435173552189
0.434996893198
0.434820262563
0.434652061686
0.434492223354
0.434332656478
0.434151108437
0.433887584492
0.433454225735
0.474023658479
0.477521902255
0.478089217407
0.477505678097
0.47716069247
0.477010227476
0.476934754847
0.47688100119
0.476823368968
0.476754069926
0.476669185606
0.476569931029
0.476457313459
0.476334354953
0.476202764375
0.476065423964
0.475923725137
0.475780092761
0.47563545647
0.475491218372
0.475348114979
0.475207665184
0.47506985915
0.47493616998
0.474807309101
0.474684463683
0.474568471449
0.474461106509
0.474363389578
0.474277033868
0.474203119195
0.474143361619
0.47409843812
0.474069437512
0.474056874369
0.474061305303
0.474082328888
0.474120188936
0.474173980135
0.474242971676
0.474325625862
0.474420463744
0.474525262282
0.474637819886
0.474755426804
0.474875609244
0.47499525449
0.475111562924
0.47522162221
0.475321982535
0.475406057022
0.47547030161
0.475508365962
0.475513036572
0.475477930534
0.475397188032
0.475267586171
0.475092414252
0.474873456817
0.474612662936
0.474311077659
0.473971434692
0.473594034935
0.47317635927
0.472711188347
0.472194526257
0.471620843018
0.470985832248
0.470289851956
0.469536995782
0.468730399009
0.467872927588
0.466977380862
0.466057865844
0.465117378029
0.464161836268
0.463206248038
0.46225647889
0.461302986931
0.460362921037
0.459444926866
0.458562935146
0.457720261062
0.456890617974
0.45608331572
0.455308821354
0.454567801996
0.4538592445
0.453145892058
0.452403589863
0.451675307075
0.450927809493
0.450171947252
0.449452991265
0.448774867889
0.448183269345
0.447705502446
0.447346435725
0.447086355191
0.446911849653
0.446755855882
0.446561234307
0.446316715731
0.446029488091
0.445680676797
0.445267451528
0.444820116968
0.444365411998
0.443920891633
0.443498773001
0.4431092744
0.442754929876
0.442433596437
0.442141314056
0.441873680441
0.441626384012
0.441396025391
0.441180458532
0.440979116147
0.440792062092
0.440618164159
0.440454762002
0.440299145763
0.440149765292
0.440005952609
0.439867414578
0.439733863739
0.43960492254
0.439480079415
0.439358735532
0.439240307372
0.439124327507
0.439010425763
0.438898104186
0.438786663096
0.438675424527
0.438564439937
0.438455127513
0.438349583615
0.43824948759
0.43815406458
0.438060730002
0.43796721954
0.437872899606
0.437778185138
0.437683527902
0.437589120128
0.437494872411
0.437400798153
0.437306849312
0.437213043738
0.437119335655
0.437025673947
0.436932011464
0.43683823411
0.436744194307
0.436649790292
0.436554910869
0.436459502222
0.436363395964
0.43626621148
0.436167522661
0.436066776914
0.435962944128
0.435854869068
0.435741163008
0.435619700255
0.435489267343
0.43534914074
0.435197989901
0.435036492003
0.434866928066
0.434690693359
0.4345097575
0.434330241576
0.434150399637
0.433960427669
0.433734985684
0.433419833539
0.43294938146
0.474140382923
0.4794479562
0.479094094487
0.477810886404
0.477329268516
0.477112999849
0.476981947647
0.47686834591
0.476750591568
0.476623574099
0.476483879161
0.476333789361
0.476173290601
0.476005254773
0.475830432201
0.475651431012
0.47546908307
0.475285459112
0.475101032423
0.474917690956
0.474735587079
0.474556038206
0.474379666282
0.474207523398
0.474039802785
0.473878168752
0.473723228411
0.473576406758
0.473438624069
0.473311475031
0.473195850501
0.473093005391
0.473003689005
0.472928946114
0.472868730539
0.472823662984
0.472793473747
0.47277796592
0.472776236301
0.472787618004
0.472810516857
0.472843567032
0.472884778178
0.472932330953
0.47298418575
0.473038661259
0.473094043426
0.473148932143
0.473201781423
0.473250848074
0.473290926789
0.473315976302
0.473318049985
0.473285642563
0.473207192674
0.473072552077
0.472881337214
0.472640354416
0.472353839359
0.472027004957
0.471666713225
0.471280515309
0.47087328553
0.47043475684
0.469956619871
0.469431137672
0.468850815907
0.468207103402
0.467497092914
0.466729280989
0.465911555433
0.465043405374
0.464135320765
0.463213853912
0.462264590689
0.461301587517
0.460347492706
0.459410122644
0.458501115425
0.457625290228
0.456761451149
0.455921270758
0.455115954712
0.454344020323
0.453607553943
0.45290047983
0.452199475567
0.451483918121
0.450750745446
0.450015594456
0.449310072453
0.448613494351
0.447963580567
0.447373614887
0.446845627865
0.446401642038
0.446046388081
0.445772553921
0.445553377689
0.445366905833
0.445171136832
0.444947780577
0.444693418845
0.444399608717
0.444055439119
0.443672181801
0.443273562719
0.442875689724
0.442489521267
0.442123250673
0.441782672351
0.441469190806
0.44118192931
0.4409187748
0.440676909381
0.44045318737
0.440244999683
0.44005070666
0.439869874921
0.439702311149
0.439546641582
0.439400441034
0.439261491977
0.43912851917
0.43900099687
0.438878751793
0.438761645672
0.438649445972
0.438541766941
0.438438102701
0.4383379021
0.438240636293
0.438145685128
0.438052303398
0.437959523081
0.437866623289
0.437773893095
0.437682967978
0.437596103583
0.437514612086
0.437437517772
0.437362384666
0.437287201313
0.437211412762
0.437135266926
0.437059084058
0.436982886016
0.436906619759
0.436830221225
0.436753685629
0.436677059348
0.436600321136
0.436523431946
0.436446297273
0.436368781956
0.436290705693
0.436211909386
0.436132209097