/*--------------------------------*- C++ -*----------------------------------*\
| =========                 |                                                 |
| \\      /  F ield         | OpenFOAM: The Open Source CFD Toolbox           |
|  \\    /   O peration     | Version:  v1806                                 |
|   \\  /    A nd           | Web:      www.OpenFOAM.com                      |
|    \\/     M anipulation  |                                                 |
\*---------------------------------------------------------------------------*/
FoamFile
{
    version     2.0;
    format      ascii;
    class       volScalarField;
    location    "22";
    object      pa;
}
// * * * * * * * * * * * * * * * * * * * * * * * * * * * * * * * * * * * * * //

dimensions      [0 2 -2 0 0 0 0];


internalField   nonuniform List<scalar> 
12225
(
121.514743502
121.027240414
121.643429979
121.909100639
122.393886212
122.685110429
122.845997971
122.885430748
122.958263802
123.284535764
124.022342542
125.092428473
126.042136518
126.540018078
127.845263959
133.818890702
146.268310223
150.463929515
141.415288466
134.490756926
134.48969949
134.95047543
135.360328449
135.721257279
136.024544366
136.384299225
136.947099292
137.879760464
139.214162013
140.707793707
141.845384649
142.536125943
144.411550061
150.705749064
160.172167115
157.074855469
115.338421129
126.573961337
127.077706952
127.058360934
127.033494572
126.899911332
126.72808062
126.644675019
126.82104624
127.411991748
128.416997427
129.561283696
130.392446468
130.999958782
133.011964281
138.779244966
146.098656097
144.357612775
138.171967647
130.483110114
130.947049286
131.054954829
131.157346217
131.097114949
130.984588913
130.927468825
131.080995283
131.565248728
132.337524188
133.110443991
133.519187351
133.739726584
135.01821798
138.4251043
141.399609616
138.346222124
120.286259588
127.554083102
128.284583934
128.388102174
128.5233618
128.541520932
128.55345443
128.649391581
128.966570303
129.594762933
130.479159164
131.38559647
132.106629856
132.911613378
134.61623935
137.260871694
138.405631841
135.404358246
135.91387223
129.491875173
129.097999331
129.333445625
129.379508056
129.371310891
129.345065185
129.391976939
129.605104709
130.031858528
130.6020993
131.148757218
131.617213372
132.336985617
133.798700547
135.579128366
135.832366698
133.436843756
123.670104045
127.963176516
128.56487968
128.634823952
128.772855042
128.842032193
128.943114435
129.126559375
129.454165684
129.925229462
130.449867865
130.903086861
131.304403757
131.935196989
133.015284045
134.018233773
133.780118366
131.930121355
130.43465529
128.481904145
128.558865267
128.635247636
128.7025837
128.742072448
128.828312783
129.007634676
129.318360078
129.737849584
130.179821227
130.561523343
130.92924077
131.465843695
132.195872249
132.650593416
132.179623777
130.727625723
127.825035002
128.290335144
128.450797633
128.512821102
128.585721056
128.638542998
128.738210124
128.91802952
129.19896788
129.549730334
129.901811364
130.210341392
130.524165966
130.935130203
131.368044065
131.472471072
130.918657631
129.753324349
128.371875077
128.206856118
128.350914394
128.398911473
128.469461061
128.530456267
128.637952118
128.811267191
129.056906921
129.341314685
129.614451468
129.855556853
130.099807797
130.373537264
130.572511536
130.465392897
129.901726162
128.947307298
128.216824558
128.149573652
128.259515441
128.301771352
128.364752355
128.428350062
128.533296945
128.689525065
128.893294443
129.114236283
129.317841379
129.494813165
129.66165481
129.806800065
129.834715005
129.607129812
129.066274069
128.270297347
128.141895781
128.084336021
128.172260119
128.208000558
128.263446452
128.324604327
128.420342656
128.554043526
128.71707569
128.883952838
129.030494844
129.150324736
129.245994284
129.290882047
129.211758279
128.927805557
128.421759184
127.740278226
128.072479373
128.030461192
128.092530812
128.121875835
128.167433051
128.221999363
128.303496612
128.410962878
128.533443841
128.650375266
128.744520725
128.809903592
128.838486073
128.802770238
128.650171162
128.338969068
127.870545015
127.281082461
127.983242244
127.968792517
128.005908621
128.027192308
128.058327653
128.100851458
128.160911627
128.236214949
128.314174158
128.379556227
128.419677637
128.427256066
128.391012724
128.286687332
128.08335304
127.762260961
127.335018401
126.828071334
127.884454419
127.895924946
127.90881846
127.916638156
127.929476299
127.951625859
127.98438261
128.021609472
128.053695837
128.067247707
128.054438342
128.006185848
127.91321977
127.758296783
127.526040644
127.210962563
126.827011701
126.393900493
127.789230718
127.81722015
127.798151535
127.788524155
127.774828628
127.771224902
127.769022928
127.76625836
127.75087324
127.716181886
127.652635988
127.556222201
127.417769941
127.230468998
126.9863322
126.687625651
126.346054868
125.976453607
127.808834833
127.784676065
127.729683982
127.695305623
127.651131524
127.615185742
127.576681982
127.532926062
127.475028571
127.396450223
127.292077592
127.157586627
126.990260247
126.786549892
126.545378901
126.269355101
125.969583759
125.657780541
127.120353032
127.407599351
127.362893374
127.297687946
127.216629468
127.145789276
127.071407225
126.990465486
126.895722414
126.782096152
126.646827741
126.488068835
126.305895529
126.099910633
125.870634828
125.620958934
125.357800026
125.082183692
129.547913071
128.590774139
128.175122304
128.006497714
127.883116206
127.778013821
127.670958557
127.555815432
127.427542806
127.282213998
127.119006007
126.93793458
126.74087802
126.529030908
126.302792231
126.065208998
125.825101114
125.603597492
122.67455773
125.200132934
125.779822351
125.828130721
125.763222112
125.687026339
125.597612343
125.500309194
125.38849321
125.264110841
125.123919403
124.972073026
124.807393119
124.634272783
124.450499825
124.260804944
124.063812441
123.837789617
134.121986062
129.430984403
128.210467741
128.020442479
127.905937059
127.789525553
127.658523745
127.510095207
127.34881252
127.172550338
126.985241866
126.787658912
126.584875144
126.375883902
126.162022262
125.939388769
125.717091833
125.54079351
115.911318869
123.962528627
125.773693857
125.81242602
125.737624706
125.639389623
125.525173969
125.401757621
125.267037522
125.121477275
124.965611152
124.799489444
124.625868092
124.444722518
124.258048236
124.070579735
123.889520658
123.666124943
142.717226529
130.447923063
127.769743802
127.784419971
127.702304196
127.630523554
127.524821555
127.409307987
127.283606496
127.151154443
127.010091356
126.863521987
126.710975972
126.555712206
126.393522392
126.221451826
126.035755538
125.914461315
104.484108826
122.426531738
126.025182473
125.747823836
125.675444372
125.508211857
125.345064767
125.157609783
124.958500816
124.750108427
124.536953263
124.322223299
124.10901267
123.89701671
123.687500781
123.486550897
123.304657523
123.055759927
154.191931408
132.263631264
128.027988855
128.464496996
128.344745459
128.309035718
128.197103218
128.087478056
127.967105927
127.847557252
127.72898971
127.611987127
127.494256578
127.37166441
127.23957923
127.090658225
126.919647785
126.840510356
100.512543343
122.205451946
125.785547186
125.309983523
125.254832524
125.054551307
124.888174581
124.691318418
124.491125711
124.286370906
124.079813303
123.867628121
123.646377014
123.411211723
123.162741583
122.917035913
122.704914293
122.407545751
149.288821705
130.744755097
129.25383508
129.50884643
129.378960268
129.27422894
129.130187009
128.985323833
128.832702596
128.68404722
128.539213366
128.395927441
128.257341229
128.124336491
128.004483024
127.906705881
127.821629695
127.855773991
105.286017202
123.660053309
124.512433903
124.402226572
124.253266983
124.125935442
123.990322665
123.845271016
123.694785579
123.545015771
123.395018061
123.243182649
123.092316986
122.941537395
122.787718745
122.627696153
122.455824604
122.101435193
143.216356782
133.244710314
132.288882361
132.231568223
132.049414785
131.895774534
131.727190018
131.549884825
131.362362028
131.168776306
130.96651799
130.754678863
130.537255963
130.311314049
130.065403325
129.778171916
129.403615554
129.123488693
119.674883274
119.017304055
119.011855699
118.899379935
118.9418836
118.939742272
118.946131162
118.940952122
118.928596428
118.908009814
118.877625578
118.839993378
118.803322564
118.772065254
118.741543785
118.716118184
118.757575226
118.851133044
118.844938648
118.836261742
118.822643828
118.809011756
118.803327659
118.808347224
118.824567168
118.85230839
118.893812118
118.952627021
119.029410312
119.123983538
119.231827909
119.348343832
119.466954375
119.583316712
119.693358507
119.796036231
119.890692398
119.979090334
120.062587742
120.143903772
120.224569377
120.307008604
120.39201309
120.480936346
120.573979485
120.671398662
120.772821793
120.877493031
120.985026633
121.093828758
121.20373148
121.312586339
121.420526511
121.525014931
121.626620261
121.72302929
121.814900182
121.900393102
121.980202415
122.053224332
122.119930329
122.180233851
122.234184677
122.282916154
122.325834774
122.365052891
122.399614133
122.432136841
122.461271793
122.489780433
122.516019817
122.542147521
122.567086116
122.592405178
122.617011212
122.641667485
122.66569663
122.689040404
122.710924324
122.730843865
122.749203914
122.766910906
122.785215047
122.804419152
122.823542265
122.843419503
122.863395972
122.885625039
122.909024801
122.935979031
122.964619606
122.997364336
123.03182741
123.070122778
123.109911952
123.153295361
123.198579418
123.248452806
123.301094828
123.359243412
123.421332254
123.490500166
123.564377525
123.645869559
123.733117557
123.82940776
123.935357915
124.055586435
124.19481557
124.347944506
124.509224595
124.673412494
124.838363074
125.001313713
125.161847749
125.319061144
125.474228831
125.627068523
125.778135028
125.926125411
126.067426377
126.197040304
126.308017027
126.404511854
126.490684521
126.58080346
126.685292111
126.806795862
126.923173866
127.036578614
127.164020068
127.294013119
127.361452271
127.399606666
127.395301001
127.427065482
127.476890939
127.537861443
127.666738546
127.913798177
128.245424119
128.64326376
129.094570149
129.595816143
130.14185839
130.734310416
131.370391134
132.054485493
132.785370664
133.56999978
134.408866129
135.312181311
136.283559086
137.337167749
138.480113212
139.728033712
141.089356205
142.576722949
144.198185931
145.960437384
147.866153097
149.915837712
152.109795108
154.443657411
156.913506443
159.50846178
162.218452906
165.023007334
167.903004051
170.824130151
173.754925497
176.641428958
179.434819659
182.052334438
184.4194693
186.411518124
187.917364729
188.755277008
188.768133802
187.705288775
185.35922054
181.401511765
175.572994358
167.463156321
156.76227365
142.964361842
125.696389226
104.361478687
78.549280346
47.5810340699
10.9328108234
-32.1982774426
-82.3642272794
-140.570220796
-207.950092603
-286.16691452
-376.259937524
-478.547241279
118.857950266
118.836556418
118.818115112
118.797530774
118.775810635
118.758174137
118.752002083
118.764523302
118.797993166
118.853714806
118.930334886
119.025814001
119.135529496
119.255489836
119.381039406
119.509472973
119.638339689
119.767108445
119.895267392
120.023633515
120.152461271
120.283004693
120.415499814
120.550803966
120.688772045
120.829712423
120.972987504
121.118257854
121.264615119
121.411043992
121.556553481
121.699630914
121.839444648
121.974028311
122.102671851
122.223344251
122.335522436
122.437294527
122.528318688
122.607050413
122.673189246
122.72579227
122.764571923
122.78935931
122.79986386
122.796794961
122.779869878
122.75048339
122.708341598
122.65541411
122.591526554
122.518432181
122.436064366
122.34605
122.248543021
122.144805001
122.035061631
121.920107286
121.800590905
121.677774002
121.552860001
121.425818156
121.296018505
121.161880943
121.023225327
120.881793052
120.739127176
120.596410199
120.454267938
120.314299427
120.177246594
120.045028029
119.918192629
119.798465167
119.686153265
119.582505417
119.48740472
119.402017539
119.326476328
119.261876904
119.208036939
119.166076276
119.135914988
119.118711536
119.114044986
119.123460396
119.147609424
119.189543668
119.252510134
119.345639409
119.473990934
119.637121146
119.830132196
120.049256136
120.29151101
120.55360831
120.831302674
121.119464281
121.41308072
121.70694631
121.996497783
122.276907735
122.545452016
122.801196306
123.048965681
123.301606532
123.584496196
123.915916991
124.28618442
124.689520333
125.127651749
125.579760019
126.037070876
126.46969984
126.836978625
127.154193592
127.429358394
127.660430668
127.91109665
128.158663692
128.416605756
128.756278722
129.159970269
129.612054797
130.103472206
130.6296752
131.188729982
131.780468682
132.40553596
133.066150034
133.764991874
134.50690245
135.297109892
136.143933014
137.056055644
138.04550978
139.123185557
140.302363816
141.594241747
143.011313086
144.562612623
146.254625866
148.089430987
150.068452802
152.190882314
154.453182931
156.849284291
159.369906959
162.00227947
164.728608034
167.526206956
170.365016825
173.208794285
176.009958818
178.713072152
181.244360383
183.520101421
185.427662044
186.843309809
187.60119676
187.527976285
186.393986884
183.97167119
179.958899945
174.072745207
165.935043387
155.205872641
141.407455803
124.123636918
102.787163639
76.954000798
45.9674757674
9.2749790595
-33.8431089108
-83.847009293
-141.602627385
-208.255069781
-285.852290682
-375.25000845
-477.562365125
118.907254878
118.836986513
118.75623383
118.666637085
118.575964431
118.503486031
118.459560697
118.44372173
118.451550584
118.48006603
118.524961811
118.582036438
118.645450806
118.710969675
118.774684251
118.834937795
118.890504678
118.941608866
118.988309763
119.031472753
119.071584772
119.109523069
119.145761668
119.181128572
119.215926632
119.250700253
119.285659363
119.321026224
119.35685088
119.39298793
119.429433365
119.465699829
119.501764489
119.536891357
119.571137518
119.603547558
119.634313855
119.662562261
119.688479688
119.711402054
119.731558063
119.748636801
119.762847038
119.774373213
119.783384959
119.790611495
119.796141177
119.801089427
119.805525034
119.810654915
119.816476596
119.824154453
119.833513459
119.845402787
119.859762501
119.877035968
119.897004951
119.919559813
119.944141424
119.969975921
119.997316448
120.026696396
120.059378506
120.095861916
120.135411307
120.177082416
120.220851413
120.266971292
120.315120962
120.365288268
120.417030233
120.470446247
120.525066492
120.580986427
120.637609404
120.694766203
120.751840581
120.808719162
120.865058594
120.920841626
120.975683231
121.029606108
121.082309814
121.133668609
121.183094192
121.230595832
121.276395376
121.321379294
121.369480228
121.427228975
121.501562546
121.592666096
121.698180418
121.8189238
121.955572939
122.11039767
122.282640292
122.471048619
122.671506449
122.879627362
123.08719462
123.285720943
123.46872557
123.62867764
123.764651781
123.892179271
124.040363723
124.211828231
124.392979808
124.616121172
124.915106951
125.250141451
125.603827568
125.931149488
126.233679493
126.518718877
126.841135406
127.125072739
127.384283287
127.663556383
127.957861991
128.295497685
128.682305179
129.11467533
129.59085959
130.107669097
130.665677087
131.263361174
131.903081189
132.584908636
133.313519734
134.09133412
134.92571787
135.821613516
136.78889899
137.835214385
138.972465762
140.21060621
141.561891168
143.036471462
144.643607352
146.388316901
148.273087142
150.299938756
152.469657346
154.778944932
157.221932157
159.789375029
162.469214566
165.243629162
168.091005432
170.980993567
173.878764128
176.736094257
179.499296702
182.093585288
184.437167672
186.415842363
187.907601854
188.744564042
188.75427201
187.704339688
185.366846949
181.439341154
175.639083411
167.590449712
156.948755383
143.243056906
126.051561593
104.801127662
78.9848320831
47.906409873
10.9634232241
-32.560115597
-83.2126420858
-141.82975668
-209.154157577
-286.182750512
-373.403784446
-471.598871508
118.942270408
118.662470012
118.513305388
118.417758452
118.335700918
118.286603101
118.275849365
118.292725964
118.326879592
118.374612528
118.432805059
118.49876919
118.568087213
118.637964308
118.705766522
118.770843971
118.832605663
118.891475746
118.947602965
119.001496222
119.05333917
119.103580766
119.152444257
119.200210544
119.247144949
119.293488738
119.33939014
119.384967781
119.430289242
119.475284882
119.519886789
119.563822566
119.606993789
119.648877091
119.689325862
119.72776366
119.764036859
119.797507054
119.828134373
119.855384517
119.879251719
119.899466982
119.916073538
119.929160174
119.93880347
119.945460467
119.949223068
119.950787865
119.950140829
119.948137295
119.944706969
119.940534144
119.935519616
119.930237962
119.924480682
119.918587757
119.912326726
119.905801056
119.899166292
119.892092297
119.883827848
119.873229509
119.859476528
119.842500991
119.823356282
119.802296015
119.779729853
119.756435119
119.733381438
119.711660379
119.692165027
119.675979062
119.663821664
119.656491207
119.654461458
119.658216558
119.667959652
119.684057887
119.706775443
119.736428907
119.773268066
119.817641144
119.869827402
119.930077535
119.9985015
120.0752944
120.160787605
120.255905988
120.362732708
120.487790264
120.634145892
120.799550634
120.980047759
121.172987572
121.378463137
121.596862917
121.829340903
122.075940532
122.336596649
122.608443145
122.885939638
123.162786468
123.429325218
123.672530814
123.890168115
124.09776903
124.293491443
124.455719655
124.587520625
124.747662346
124.950800496
125.17394759
125.411163675
125.652365962
125.930287237
126.250563582
126.631494006
127.011998625
127.37787403
127.750655356
128.133800739
128.543714478
128.988317414
129.468630976
129.984374315
130.534382245
131.118823718
131.737447265
132.392031309
133.08408895
133.817982636
134.597642449
135.430212564
136.321987611
137.282619387
138.321029574
139.449516248
140.679714495
142.02386963
143.492719816
145.095163607
146.836208883
148.716915986
150.73997931
152.906654019
155.21427614
157.655770329
160.222691869
162.901781545
165.67657481
168.523765697
171.415031245
174.313063942
177.172685535
179.936635901
182.534548373
184.879558366
186.863571789
188.35744468
189.201272586
189.212227102
188.167679431
185.825675276
181.89816815
176.086021129
168.032824921
157.376361882
143.678713057
126.501764069
105.29541168
79.4748285468
48.34263225
11.2150288317
-32.6840169829
-84.0892139832
-143.842635586
-212.244869847
-288.908462449
-374.04526569
-467.474085797
118.886706143
118.252620315
118.14353052
118.164290348
118.167149617
118.180768186
118.213563382
118.253517887
118.293768351
118.336044659
118.381542213
118.430542055
118.480767713
118.530939023
118.579368783
118.625774305
118.669595328
118.711002932
118.749817808
118.786164762
118.820064048
118.851492605
118.880574978
118.907343319
118.93198604
118.95452499
118.975234829
118.994157261
119.011503941
119.027312134
119.041721555
119.054735038
119.066368511
119.07662009
119.085491729
119.092858154
119.098785732
119.103163986
119.106068792
119.107443609
119.107460454
119.106189036
119.10387285
119.100777578
119.097195433
119.093585369
119.090224061
119.087676126
119.086180197
119.086260733
119.088041293
119.092071982
119.098326605
119.107231869
119.118702852
119.132992638
119.14983243
119.169194248
119.19080793
119.215086893
119.242213613
119.272599677
119.306026692
119.341347076
119.377706635
119.414803857
119.452486258
119.490653275
119.529233806
119.568274143
119.607768614
119.647825362
119.688436702
119.729759625
119.771766135
119.814599176
119.858320133
119.903142893
119.94924508
119.996918601
120.046416862
120.098062862
120.152169708
120.209019969
120.268905566
120.33217994
120.399690301
120.472529994
120.554503695
120.651128575
120.768121246
120.903280641
121.05337855
121.215909024
121.390692054
121.577468157
121.776762888
121.9885326
122.214019772
122.453381737
122.706733482
122.973330653
123.244344529
123.514999948
123.793260985
124.081571123
124.343321764
124.551552349
124.725231349
124.899420333
125.06025291
125.219771616
125.386501875
125.579232881
125.843762518
126.181093276
126.576640345
126.976787329
127.365577688
127.753574041
128.146550682
128.557386169
128.992370834
129.457045513
129.951892916
130.480110066
131.041157378
131.638515063
132.272212102
132.947323145
133.665509069
134.434198377
135.257376934
136.144887052
137.103159497
138.144234568
139.277792644
140.517206443
141.872669805
143.354951857
144.971498807
146.725913485
148.618918113
150.652734285
152.830140236
155.147779921
157.599541643
160.175865112
162.864875783
165.648876143
168.506222229
171.407126223
174.316215561
177.186631908
179.963280458
182.573904138
184.933835616
186.932942441
188.444065178
189.304984157
189.334172415
188.306183136
185.979464992
182.062779952
176.25667146
168.200993908
157.534030447
143.816673718
126.613378355
105.369481622
79.48916164
48.2645948324
10.9957908111
-33.125028529
-84.8921896269
-145.139306654
-213.98999947
-290.588088504
-374.937240579
-466.39408473
118.74099602
117.637454211
117.738884472
117.979514438
118.091573672
118.161069835
118.219370217
118.265120307
118.300263768
118.331958967
118.364096729
118.398411944
118.433872179
118.470041585
118.50575883
118.54082468
118.5746045
118.607005056
118.637721355
118.666613883
118.693544018
118.718372402
118.741156572
118.761713244
118.780265006
118.796716334
118.81130493
118.824012909
118.835059095
118.844498456
118.85244296
118.859005125
118.864238081
118.868237633
118.870989484
118.872649353
118.873175859
118.872687736
118.871239455
118.868959548
118.865967501
118.862455352
118.858624988
118.854751315
118.851095952
118.847994436
118.845722331
118.844607195
118.844832801
118.846707299
118.850313419
118.855866939
118.863366741
118.873022804
118.88467946
118.898452818
118.914030084
118.931468704
118.950317328
118.970177242
118.990232344
119.00995861
119.029433819
119.049245115
119.069504584
119.090337865
119.112104592
119.135285162
119.160471763
119.188239889
119.219064972
119.253285152
119.29099972
119.332157492
119.376559508
119.423990706
119.474167796
119.526958632
119.582258637
119.640146579
119.700764183
119.764434346
119.831544827
119.902552696
119.977975635
120.058218701
120.144145034
120.236940593
120.339284413
120.457940414
120.595999508
120.752536485
120.923225639
121.106113651
121.299744047
121.503387315
121.715165859
121.933841482
122.158809331
122.390170919
122.628006488
122.870360169
123.116175512
123.375381898
123.663067695
123.965060761
124.250895787
124.51384143
124.759211733
124.973891963
125.147864389
125.295858314
125.432798481
125.61143157
125.876616749
126.216329586
126.605382719
127.005231287
127.404173182
127.805858263
128.215756792
128.641451895
129.088732573
129.562025607
130.063951918
130.597088533
131.162882104
131.763727012
132.401331319
133.079349667
133.801018926
134.572336143
135.398803825
136.288894906
137.250460935
138.294537457
139.432251004
140.676153291
142.036855222
143.524361402
145.145449228
146.903133498
148.798031263
150.833604748
153.012816749
155.332173065
157.785330872
160.363177258
163.053395865
165.838954204
168.697519953
171.600324017
174.510908538
177.383961409
180.162711668
182.777244615
185.140249615
187.145010122
188.660294193
189.528755642
189.562811057
188.543675
186.220715818
182.310129613
176.498394478
168.433210709
157.733534907
143.968131178
126.678685529
105.327668132
79.3194877628
47.9804864265
10.6171861824
-33.5255963713
-85.2141142851
-145.235097169
-213.864937753
-290.655114276
-375.685053537
-468.537654119
118.505692269
116.896800135
117.396310159
117.879189029
118.058861965
118.149105535
118.210090258
118.251761566
118.280521112
118.30433573
118.326966602
118.350226354
118.373734188
118.397570848
118.42103617
118.44407544
118.466168349
118.487204526
118.506848107
118.524935406
118.541367872
118.555926207
118.568683808
118.579485611
118.588517468
118.59566328
118.601195102
118.605083238
118.607569245
118.608719863
118.608710097
118.607690012
118.605710717
118.603020031
118.599618544
118.595735836
118.591386415
118.586821413
118.582053499
118.577330421
118.572732833
118.568506295
118.564797825
118.561862039
118.559902714
118.559169539
118.559881395
118.562248143
118.566466355
118.572670363
118.580976018
118.591533784
118.604368012
118.619633059
118.637288227
118.657482335
118.680022355
118.705081709
118.732635742
118.76292513
118.795834952
118.83123449
118.868276323
118.906402641
118.945043349
118.983615129
119.021578685
119.058775176
119.095459733
119.132208138
119.169808978
119.20900307
119.250425916
119.294489289
119.341397764
119.391168007
119.443734492
119.498925865
119.556596883
119.616619466
119.678941796
119.743631173
119.810840046
119.880913125
119.954140183
120.030930115
120.112041334
120.198480969
120.294204849
120.404667483
120.535565375
120.68540752
120.850832427
121.030739359
121.224808555
121.432869024
121.653294462
121.883931606
122.120996569
122.357736779
122.587573771
122.804973164
123.0151362
123.235818524
123.483297979
123.752962549
124.044435221
124.359438835
124.678290769
124.957483356
125.172421101
125.338627058
125.489589979
125.684895356
125.956231523
126.289356595
126.663439932
127.053070482
127.450747458
127.855454288
128.271794808
128.702733387
129.154375982
129.628879053
130.131238806
130.662193684
131.225972253
131.822707099
132.457109122
133.130140771
133.848344498
134.614650885
135.437933919
136.323609237
137.282901822
138.324914887
139.463339014
140.709129155
142.073708608
143.565725051
145.191035432
146.951875448
148.849102569
150.887593305
153.069277966
155.390571427
157.844767176
160.423526221
163.114044832
165.899963843
168.75854144
171.661594721
174.572395795
177.446061363
180.225749819
182.841746123
185.206964597
187.21452231
188.733672613
189.606509511
189.646061234
188.632679063
186.315380824
182.407886758
176.592450115
168.512472354
157.776933112
143.948306117
126.55345711
105.062539078
78.8976534108
47.4233944842
9.97744265272
-34.1203280511
-85.5564460369
-145.07941705
-213.235926525
-290.35052256
-376.787747065
-472.658305099
118.175541481
116.140724705
117.168563034
117.820928379
118.002757406
118.089369117
118.146185644
118.187827656
118.217510453
118.241381644
118.262200599
118.281721765
118.300136028
118.317941627
118.33489621
118.351155993
118.366441602
118.380738773
118.393882264
118.405779063
118.416389585
118.425611157
118.433557082
118.440098723
118.445459502
118.449556915
118.452624004
118.454637249
118.455799725
118.456163398
118.455836289
118.454948462
118.453541456
118.451786894
118.449660189
118.447409427
118.444969722
118.44258779
118.440238383
118.438160889
118.436363598
118.435073747
118.434348688
118.434397084
118.435325746
118.437317187
118.440512997
118.445054347
118.451067515
118.458665605
118.467939266
118.478972449
118.491798507
118.50652251
118.523080704
118.541594612
118.561918516
118.584237213
118.608366427
118.634161241
118.661232001
118.690119285
118.721173698
118.754723419
118.790559917
118.828276023
118.867179284
118.90676825
118.946902912
118.987833968
119.030086316
119.074203297
119.120666955
119.169734403
119.221572547
119.276162356
119.333423866
119.39320355
119.455353163
119.519730673
119.586302431
119.655166013
119.726528739
119.800980719
119.878395526
119.959668926
120.043929593
120.133500167
120.229822187
120.341380246
120.472354031
120.622124005
120.787594983
120.967730105
121.163497563
121.375752635
121.603853632
121.84344184
122.086623116
122.320466061
122.531415123
122.716622364
122.886734465
123.061312398
123.259377337
123.507004979
123.821214013
124.187332607
124.561608233
124.893768774
125.155068527
125.360024794
125.548117864
125.770809313
126.048667814
126.374138179
126.733550962
127.112927526
127.506224455
127.912086936
128.331755472
128.76739327
129.222271298
129.699144647
130.201342879
130.731098069
131.291479895
131.884510379
132.513904784
133.182597763
133.896098377
134.659172286
135.479611387
136.364454194
137.324129018
138.369277951
139.512582357
140.765133876
142.137369916
143.637031367
145.268764938
147.034100733
148.93579799
150.979048388
153.164670788
155.488646308
157.944837257
160.524676783
163.21587875
166.001673211
168.859985806
171.762068068
174.672123532
177.544509428
180.323606852
182.938612727
185.304010707
187.311353626
188.831835754
189.70524985
189.746912226
188.73382273
186.417048737
182.504401078
176.677904846
168.571552534
157.790608217
143.884473385
126.373809171
104.725577661
78.3825156997
46.7360490665
9.16149765817
-34.9558453987
-86.2226449511
-145.352718947
-213.121785386
-290.500412114
-378.210654584
-476.829527803
117.761368836
115.475502613
117.034457171
117.735784295
117.883374041
117.967425775
118.024935246
118.074026987
118.110295119
118.139474806
118.163461636
118.184316008
118.202692584
118.219388281
118.234526506
118.24844903
118.261127179
118.272707127
118.283180953
118.292599226
118.301052522
118.308516988
118.315153615
118.320920494
118.326012593
118.33036889
118.334193546
118.337440568
118.340260612
118.342641873
118.344663142
118.346363816
118.347737111
118.348909494
118.349838953
118.350679231
118.351384243
118.352145645
118.352918264
118.353907317
118.355100664
118.356688627
118.358692043
118.36128206
118.364523226
118.368571585
118.373533642
118.379552845
118.386768849
118.395322054
118.405360989
118.417061326
118.430542121
118.445979952
118.463408896
118.482987146
118.504648297
118.528683901
118.555134498
118.583722081
118.613590463
118.644808539
118.677764852
118.7131197
118.750775436
118.790184502
118.830373902
118.870790463
118.911352541
118.952589613
118.995240871
119.0400577
119.087564501
119.138091159
119.191677537
119.24834203
119.307715968
119.369737591
119.433737871
119.499798291
119.567184739
119.636477752
119.707581935
119.781352391
119.858428222
119.938196076
120.021463192
120.10748588
120.200547357
120.307278925
120.434154324
120.580412948
120.742922391
120.921077585
121.115106344
121.325492851
121.550553087
121.784002766
122.013711587
122.225452158
122.408671163
122.567366358
122.715874666
122.87532625
123.069439693
123.3309046
123.671848617
124.068037514
124.469710492
124.829714532
125.122858237
125.364576862
125.589626026