/*--------------------------------*- C++ -*----------------------------------*\
| =========                 |                                                 |
| \\      /  F ield         | OpenFOAM: The Open Source CFD Toolbox           |
|  \\    /   O peration     | Version:  v1806                                 |
|   \\  /    A nd           | Web:      www.OpenFOAM.com                      |
|    \\/     M anipulation  |                                                 |
\*---------------------------------------------------------------------------*/
FoamFile
{
    version     2.0;
    format      ascii;
    class       surfaceScalarField;
    location    "22";
    object      phia;
}
// * * * * * * * * * * * * * * * * * * * * * * * * * * * * * * * * * * * * * //

dimensions      [0 3 -1 0 0 0 0];
oriented        oriented;


internalField   nonuniform List<scalar> 
24170
(
2.03861042298e-07
1.20792482405e-07
2.84181469081e-07
-7.52589919336e-08
2.7003621683e-07
1.60760824733e-08
2.79909429814e-07
-1.1255552281e-08
2.85170485002e-07
-6.54808256387e-09
2.93138698399e-07
-9.6661212619e-09
3.02104715235e-07
-1.08086646437e-08
3.13328106975e-07
-1.23554456882e-08
3.25974274794e-07
-1.38437003699e-08
3.40606890532e-07
-1.4917242419e-08
3.56709954759e-07
-1.64272689259e-08
3.76597560751e-07
-1.97347785837e-08
4.05601054091e-07
-2.88603413961e-08
4.50964182071e-07
-4.5033604281e-08
5.0996490813e-07
-5.86796271534e-08
5.57955429269e-07
-4.75925176896e-08
6.17092880865e-07
-5.87372917199e-08
-5.4665451586e-07
1.16404335416e-06
7.8047169184e-07
-3.04642109928e-07
3.83037165943e-07
3.30772036735e-07
4.58255219558e-07
-5.54776805611e-08
4.62777995385e-07
-1.58257859559e-08
4.7830080137e-07
-2.29508268889e-08
4.92448084054e-07
-2.54480319363e-08
5.08813730361e-07
-2.90877146774e-08
5.26976832647e-07
-3.19327362129e-08
5.46594878147e-07
-3.46273861645e-08
5.68067636134e-07
-3.6727765018e-08
5.91361861556e-07
-3.9808866167e-08
6.18625684961e-07
-4.67174446526e-08
6.5250656542e-07
-6.23978910609e-08
6.93614832071e-07
-8.57144532139e-08
7.33526566472e-07
-9.81523292716e-08
7.67183567831e-07
-8.0784010389e-08
8.56059625816e-07
-1.4714459435e-07
-6.6501927067e-07
9.7478407645e-07
-1.29685503287e-07
1.9107933767e-07
4.48380146489e-07
-2.47234012839e-07
3.68711603782e-07
2.36911061395e-08
3.75575109201e-07
-2.47291791229e-08
3.74091608678e-07
-2.31996500782e-08
3.77394661751e-07
-3.04021395712e-08
3.80545988914e-07
-3.37498495411e-08
3.85725986684e-07
-3.80437434669e-08
3.92214889063e-07
-4.19531036378e-08
4.00893204168e-07
-4.5742610968e-08
4.12305149503e-07
-5.15335248459e-08
4.2887220963e-07
-6.33451857209e-08
4.52466675533e-07
-8.60082203161e-08
4.81784568839e-07
-1.14941544511e-07
5.13203171913e-07
-1.29458250549e-07
5.64783079624e-07
-1.3221023574e-07
6.79168529139e-07
-2.61360902307e-07
-6.86300014462e-07
7.00535217113e-07
8.46822095317e-07
-2.56077578498e-07
3.54152199473e-07
2.49511291089e-07
4.56347397801e-07
-7.73898432989e-08
4.45203502841e-07
-1.48084599269e-08
4.57089546624e-07
-3.69097603739e-08
4.61891798461e-07
-3.73084219762e-08
4.69643423444e-07
-4.35227088383e-08
4.77414692885e-07
-4.73278199816e-08
4.8585155491e-07
-5.1506111993e-08
4.95126616139e-07
-5.55761288685e-08
5.05831605567e-07
-6.25194962935e-08
5.1918089571e-07
-7.67097925977e-08
5.34578511476e-07
-1.01299863488e-07
5.48455326058e-07
-1.2862566686e-07
5.62157461237e-07
-1.42932715485e-07
5.99241472441e-07
-1.69045605937e-07
6.61328329195e-07
-3.23184201076e-07
-6.31800270754e-07
6.07073627413e-07
2.39783421805e-08
1.36313033514e-07
5.12609533882e-07
-2.41758838485e-07
4.16309506945e-07
1.68860194796e-08
4.36317444877e-07
-3.70011359229e-08
4.36592162908e-07
-3.90107272983e-08
4.44714324092e-07
-4.69102434502e-08
4.52006281135e-07
-5.20697061489e-08
4.61333591765e-07
-5.74627049941e-08
4.71999043643e-07
-6.28427880641e-08
4.84948376752e-07
-6.89170155406e-08
5.00886571825e-07
-7.87843955542e-08
5.20294881258e-07
-9.62875739836e-08
5.41076554457e-07
-1.2217680983e-07
5.59926695114e-07
-1.4749306168e-07
5.81993797524e-07
-1.64978972495e-07
6.22427073094e-07
-2.09416277851e-07
6.53400121439e-07
-3.54068941481e-07
-5.61320640505e-07
5.82944816398e-07
8.1437819991e-07
-2.26310432714e-07
4.20890586334e-07
1.51611566896e-07
4.77025693599e-07
-4.01834934135e-08
4.82165876267e-07
-4.39834350917e-08
4.87780176816e-07
-4.65942295754e-08
4.93044621952e-07
-5.41338225453e-08
4.99001784144e-07
-5.96921295445e-08
5.05758485536e-07
-6.55156415709e-08
5.13482828971e-07
-7.149490428e-08
5.23027471392e-07
-7.90839109744e-08
5.35193261603e-07
-9.13311910909e-08
5.49892612484e-07
-1.11193673527e-07
5.64962254431e-07
-1.37319623518e-07
5.79520468337e-07
-1.62045295125e-07
6.00735694317e-07
-1.86134684389e-07
6.33263431377e-07
-2.41856319159e-07
6.42254777503e-07
-3.62944360602e-07
-4.98583592104e-07
5.79690285491e-07
2.24094386378e-07
2.71451405293e-08
5.13354013492e-07
-1.41792937384e-07
5.00562278623e-07
-3.0122441003e-08
5.02891110449e-07
-4.84387393729e-08
5.09794169456e-07
-5.50368900303e-08
5.16713162337e-07
-6.22408522069e-08
5.24407735721e-07
-6.82646248726e-08
5.3288925542e-07
-7.46362845999e-08
5.42357404245e-07
-8.14461750811e-08
5.53387153529e-07
-9.04881500641e-08
5.66214987281e-07
-1.0444341283e-07
5.79904114518e-07
-1.25087702444e-07
5.92471044778e-07
-1.50021635259e-07
6.04791253834e-07
-1.74448360117e-07
6.22706161677e-07
-2.04088753994e-07
6.43015270201e-07
-2.62158174761e-07
6.37162463485e-07
-3.5702241315e-07
-4.46823215644e-07
5.85271173215e-07
6.45187651798e-07
-1.04089166208e-07
5.19260784345e-07
-1.89814817568e-08
5.32012814263e-07
-4.5235852305e-08
5.39763138055e-07
-5.82240410148e-08
5.44725023983e-07
-6.17876812348e-08
5.50954657453e-07
-6.99697213699e-08
5.57657114883e-07
-7.6205501067e-08
5.6539072244e-07
-8.32947021931e-08
5.74327245614e-07
-9.1107649433e-08
5.84921884539e-07
-1.01589310823e-07
5.96920385733e-07
-1.16821912026e-07
6.08991887562e-07
-1.37406362875e-07
6.19714012971e-07
-1.60908362006e-07
6.30554246741e-07
-1.8537998728e-07
6.44268325435e-07
-2.17851918297e-07
6.53721557321e-07
-2.71602939635e-07
6.39709207322e-07
-3.43054964526e-07
-4.03640582167e-07
5.96560982561e-07
5.18354207816e-07
-7.30018535557e-08
5.66004546703e-07
-7.09039938386e-08
5.70047421713e-07
-5.21407130665e-08
5.7503001781e-07
-6.51247441671e-08
5.80769689449e-07
-6.8814327567e-08
5.86775028492e-07
-7.68624470246e-08
5.93319970282e-07
-8.3374955154e-08
6.00661071892e-07
-9.10928238486e-08
6.09101969673e-07
-9.99014969793e-08
6.1884179976e-07
-1.11618108316e-07
6.29345958987e-07
-1.27544083405e-07
6.39324477204e-07
-1.47570098532e-07
6.48066727535e-07
-1.69789401682e-07
6.56799619834e-07
-1.94222778826e-07
6.65549948218e-07
-2.26670165894e-07
6.66704347009e-07
-2.72791871651e-07
6.49056933583e-07
-3.25402232712e-07
-3.67156922293e-07
6.12382653696e-07
6.07313249846e-07
-9.11243149663e-08
6.01964285109e-07
-6.99002674037e-08
6.08637397193e-07
-6.17884392543e-08
6.13603316827e-07
-7.23025592057e-08
6.19058091367e-07
-7.59179507541e-08
6.24758233595e-07
-8.38883588235e-08
6.3097703529e-07
-9.0590335908e-08
6.3788447412e-07
-9.88021612813e-08
6.4571773938e-07
-1.08323364973e-07
6.54398032057e-07
-1.20744120475e-07
6.632000872e-07
-1.36690220917e-07
6.71084057058e-07
-1.55716777388e-07
6.77773044732e-07
-1.76637103738e-07
6.83787235261e-07
-2.00367132794e-07
6.87547107486e-07
-2.30493411712e-07
6.82856858944e-07
-2.68129994476e-07
6.63834601225e-07
-3.06483005726e-07
-3.35397808247e-07
6.32041601393e-07
6.43521494933e-07
-1.02035678081e-07
6.45899821333e-07
-7.63182697082e-08
6.50514962835e-07
-6.93177374851e-08
6.55071972604e-07
-7.87975985814e-08
6.6008917593e-07
-8.23128057163e-08
6.65335628893e-07
-9.00541231911e-08
6.71042139934e-07
-9.70100281994e-08
6.77337653706e-07
-1.05600754721e-07
6.84297219894e-07
-1.15701341187e-07
6.91649040027e-07
-1.28401948947e-07
6.98607989928e-07
-1.43912675118e-07
7.04431399504e-07
-1.61699268453e-07
7.0893442355e-07
-1.81309552039e-07
7.11929486826e-07
-2.03448411561e-07
7.11260003029e-07
-2.29907365765e-07
7.0262995238e-07
-2.59530167236e-07
6.83365493461e-07
-2.87232162254e-07
-3.07352779874e-07
6.551534218e-07
5.79109443817e-07
-1.1299324386e-07
5.80361726081e-07
-8.20257065277e-08
5.83513435684e-07
-7.56668302401e-08
5.86858188026e-07
-8.43411683362e-08
5.90670206601e-07
-8.77265301332e-08
5.94630326924e-07
-9.51318103888e-08
5.98942985417e-07
-1.02173346177e-07
6.03629293284e-07
-1.10900086789e-07
6.08657579261e-07
-1.21186732651e-07
6.1368332781e-07
-1.3375862318e-07
6.18100696476e-07
-1.48591722238e-07
6.21417590874e-07
-1.65311497597e-07
6.23514178582e-07
-1.83410103095e-07
6.23723440038e-07
-2.03834988754e-07
6.20457855478e-07
-2.26634268176e-07
6.11295495734e-07
-2.50456320731e-07
5.95282258193e-07
-2.71332437384e-07
-2.85920908792e-07
5.73726525239e-07
7.05585103341e-07
-1.22259851042e-07
7.06196393133e-07
-8.58930667718e-08
7.09138588898e-07
-8.10864649359e-08
7.12309370092e-07
-8.94512443955e-08
7.16093967841e-07
-9.28621467235e-08
7.19977507433e-07
-1.00100207798e-07
7.24205975648e-07
-1.07165260189e-07
7.28678389655e-07
-1.15997812176e-07
7.33276696454e-07
-1.26225731325e-07
7.3753040376e-07
-1.38397760768e-07
7.40802351322e-07
-1.52272695136e-07
7.42806547472e-07
-1.67436009177e-07
7.43024367625e-07
-1.83887396026e-07
7.40843331095e-07
-2.01596774304e-07
7.345030244e-07
-2.20453559323e-07
7.22612553871e-07
-2.3855172084e-07
7.0469085057e-07
-2.53589437159e-07
-2.63411112814e-07
6.82117370905e-07
8.58037294922e-07
-1.30943235605e-07
8.58710562648e-07
-8.94841234781e-08
8.61255319096e-07
-8.58337978971e-08
8.63991129714e-07
-9.33865138256e-08
8.67302141949e-07
-9.7356480419e-08
8.70762010596e-07
-1.04123284061e-07
8.74390171524e-07
-1.11439558387e-07
8.78132535838e-07
-1.20026438182e-07
8.81629398988e-07
-1.30092401069e-07
8.84400952584e-07
-1.41406788216e-07
8.85851767032e-07
-1.5408958506e-07
8.85644985129e-07
-1.67455694756e-07
8.83319458027e-07
-1.81633249004e-07
8.7790141283e-07
-1.96275898889e-07
8.68299102929e-07
-2.10821437433e-07
8.53517804003e-07
-2.2387099719e-07
8.33848237721e-07
-2.33926567172e-07
-2.39989746387e-07
8.10222006754e-07
1.0428676912e-06
-1.36482739367e-07
1.04339828248e-06
-9.23702813436e-08
1.0453240442e-06
-8.93333236632e-08
1.04688282249e-06
-9.62978401666e-08
1.04936872685e-06
-1.00193720777e-07
1.05154582169e-06
-1.06924761787e-07
1.05403924602e-06
-1.13864432443e-07
1.0560817967e-06
-1.2234302654e-07
1.05775756714e-06
-1.31571923104e-07
1.05799120875e-06
-1.42061363691e-07
1.05686105488e-06
-1.52916998274e-07
1.05348379891e-06
-1.64417554778e-07
1.04779284315e-06
-1.75824097709e-07
1.03862448888e-06
-1.87227184143e-07
1.02554460506e-06
-1.97612109282e-07
1.00798716517e-06
-2.06357746186e-07
9.86506225987e-07
-2.12407498698e-07
-2.15439261169e-07
9.61989546382e-07
1.26833463243e-06
-1.39350770107e-07
1.26792239234e-06
-9.39752157386e-08
1.2684650486e-06
-9.12553219468e-08
1.26840989077e-06
-9.68521471017e-08
1.26879189891e-06
-1.01126723521e-07
1.26913837816e-06
-1.07155229337e-07
1.26908299075e-06
-1.13950800733e-07
1.26874653139e-06
-1.21588202682e-07
1.26707789377e-06
-1.30070083578e-07
1.26426309771e-06
-1.38914489001e-07
1.25912205106e-06
-1.48147640042e-07
1.25213629017e-06
-1.57149234006e-07
1.24206557907e-06
-1.65964106653e-07
1.2291216645e-06
-1.7397349675e-07
1.2123191089e-06
-1.80906932739e-07
1.19229829351e-06
-1.86050419453e-07
1.16899546806e-06
-1.89198976463e-07
-1.90185740948e-07
1.14397740363e-06
1.55588302173e-06
-1.51190392363e-07
1.53974121269e-06
-7.87991927676e-08
1.53717574153e-06
-8.95626518946e-08
1.53446753441e-06
-9.46160000087e-08
1.53167826743e-06
-9.85498991437e-08
1.52848743177e-06
-1.03975889426e-07
1.5248431086e-06
-1.10139829337e-07
1.52030585492e-06
-1.16878868946e-07
1.51451204609e-06
-1.24009482553e-07
1.50685240334e-06
-1.31242617562e-07
1.49724239491e-06
-1.38361023129e-07
1.485176048e-06
-1.45071442673e-07
1.47059854254e-06
-1.51177661361e-07
1.4530564794e-06
-1.56380374647e-07
1.43276961059e-06
-1.60402203693e-07
1.40975093401e-06
-1.6296979282e-07
1.38463451749e-06
-1.63884350146e-07
-1.62777023666e-07
1.35722513549e-06
1.79889378647e-06
-6.77817535062e-08
1.86334077604e-06
-1.44281588751e-07
1.8659257716e-06
-9.31543403032e-08
1.85845467897e-06
-8.74834431922e-08
1.85050522378e-06
-9.0723423113e-08
1.84237498003e-06
-9.57980992483e-08
1.83387126558e-06
-1.01406790943e-07
1.82421452831e-06
-1.07094906187e-07
1.81332013777e-06
-1.12799711581e-07
1.80044815664e-06
-1.18295057314e-07
1.78579496385e-06
-1.23426029548e-07
1.7687674632e-06
-1.27984136336e-07
1.74966173808e-06
-1.31812460186e-07
1.72809849741e-06
-1.34757243717e-07
1.70458188213e-06
-1.36655699991e-07
1.67907217585e-06
-1.37415434011e-07
1.65252106244e-06
-1.37128477601e-07
-1.36498108668e-07
1.62625620213e-06
2.61021633598e-06
-3.83762974051e-07
2.32993838493e-06
1.33069364398e-07
2.26381281643e-06
-2.77288044212e-08
2.23856690007e-06
-6.34573443476e-08
2.22241773263e-06
-7.45203641687e-08
2.20741431214e-06
-8.09867845661e-08
2.19257967027e-06
-8.60281082693e-08
2.17629463268e-06
-9.06582976331e-08
2.15887649206e-06
-9.48535437177e-08
2.13949773311e-06
-9.87474657364e-08
2.11862922441e-06
-1.02134760429e-07
2.09583484281e-06
-1.05049710008e-07
2.07166439182e-06
-1.07314876492e-07
2.04594346838e-06
-1.08942376068e-07
2.01934932377e-06
-1.09832056499e-07
1.99215513189e-06
-1.1016660652e-07
1.96489229043e-06
-1.09740736524e-07
-1.07427830988e-07
1.93586208457e-06
1.0417664408e-06
2.4950906185e-07
1.56210269488e-06
-3.90590964282e-07
1.62769245144e-06
-9.77181408776e-08
1.62709049182e-06
-6.45109889263e-08
1.61771168565e-06
-6.64437498345e-08
1.6066856592e-06
-7.0060235248e-08
1.59419256128e-06
-7.37821670759e-08
1.58068167368e-06
-7.69109512721e-08
1.5657984024e-06
-7.9887441486e-08
1.54983745732e-06
-8.24710725922e-08
1.53254439505e-06
-8.47042874901e-08
1.51421761976e-06
-8.63540774392e-08
1.49446451578e-06
-8.74979580923e-08
1.47384574632e-06
-8.79500318404e-08
1.45172011971e-06
-8.7738519624e-08
1.4283323839e-06
-8.64573327494e-08
1.40281493428e-06
-8.43717382246e-08
-8.34061922174e-08
1.37900441542e-06
2.38257811822e-06
-6.71239044433e-07
1.50511250371e-06
4.83005727637e-07
1.42410517758e-06
-1.6852239815e-08
1.41783094285e-06
-6.08509848091e-08
1.4124790859e-06
-6.20148496538e-08
1.40435610967e-06
-6.35583416986e-08
1.39536799182e-06
-6.49199690941e-08
1.38485734607e-06
-6.69663244342e-08
1.37384609419e-06
-6.892203317e-08
1.36211497931e-06
-7.0866868444e-08
1.35015153221e-06
-7.25932507704e-08
1.33774145155e-06
-7.39639885081e-08
1.32539471147e-06
-7.48784189614e-08
1.31277535567e-06
-7.53517658364e-08
1.3007522566e-06
-7.54295917034e-08
1.28973561923e-06
-7.55566653152e-08
1.28139234035e-06
-7.5811572714e-08
-7.33819879366e-08
1.27110292264e-06
-1.09520934276e-07
7.10576439671e-07
1.19522701044e-06
-8.21048421461e-07
1.24320331432e-06
-6.75305976275e-08
1.22477215523e-06
-4.24475753848e-08
1.20974248061e-06
-4.78957590172e-08
1.19657561109e-06
-4.99733480435e-08
1.18229262411e-06
-5.13176853656e-08
1.16718152583e-06
-5.22835041028e-08
1.15133536688e-06
-5.33364300262e-08
1.13462721912e-06
-5.44511626259e-08
1.11739265329e-06
-5.53282046433e-08
1.09954856403e-06
-5.6153599058e-08
1.08146229456e-06
-5.66195194534e-08
1.06303775245e-06
-5.68770983648e-08
1.04442620146e-06
-5.66441307239e-08
1.02458780008e-06
-5.57058034171e-08
1.00250554424e-06
-5.36897117562e-08
-5.53521689501e-08
9.84483073676e-07
2.91733143503e-06
-1.09386196773e-06
1.07831138039e-06
1.01975427051e-06
1.08639981165e-06
-7.22770002286e-08
1.10283888714e-06
-5.81233070049e-08
1.1074060435e-06
-5.1407136264e-08
1.10461289753e-06
-4.73900744932e-08
1.10097001013e-06
-4.74611514993e-08
1.09672638849e-06
-4.79903902548e-08
1.09192184596e-06
-4.86931414685e-08
1.08688036242e-06
-4.92104388613e-08
1.08111248075e-06
-4.96448650492e-08
1.07491868237e-06
-4.97276399338e-08
1.06789102512e-06
-4.96273377899e-08
1.06042568959e-06
-4.90559651652e-08
1.05200258837e-06
-4.82972138047e-08
1.04422804597e-06
-4.7644609875e-08
1.03808830117e-06
-4.77146096028e-08
-4.1382623339e-08
1.02435060951e-06
-1.34669155823e-06
1.22194435722e-06
1.04374479774e-06
-1.36699429234e-06
9.45916872725e-07
2.68762097648e-08
9.19007624328e-07
-2.8723459143e-08
8.97357638358e-07
-2.82869770568e-08
8.85155656692e-07
-3.36306406282e-08
8.70779386778e-07
-3.24800096156e-08
8.5606982404e-07
-3.29302448964e-08
8.41089756332e-07
-3.33827705986e-08
8.26094823978e-07
-3.41169766695e-08
8.11429712255e-07
-3.47540809973e-08
7.97111081725e-07
-3.52522794276e-08
7.83460816736e-07
-3.56515012237e-08
7.70589312652e-07
-3.6048889791e-08
7.5872549486e-07
-3.62324109661e-08
7.4660737167e-07
-3.54317123739e-08
7.3176130464e-07
-3.28061840888e-08
-3.81592215767e-08
7.28619288168e-07
3.31805057174e-06
-1.24890973823e-06
6.3800307109e-07
1.31796009093e-06
8.68441449765e-07
-1.9923279957e-07
8.67393338533e-07
-2.47229753832e-08
8.82372705972e-07
-4.14609241595e-08
8.76775963679e-07
-2.70715048799e-08
8.74797329427e-07
-2.94786295667e-08
8.71038086048e-07
-2.85463988784e-08
8.66911118872e-07
-2.8893759533e-08
8.62213371924e-07
-2.90423727201e-08
8.57000900455e-07
-2.92309063739e-08
8.51314184364e-07
-2.92718864562e-08
8.45117003146e-07
-2.9208728602e-08
8.38271304537e-07
-2.89633218771e-08
8.30802345307e-07
-2.85662738148e-08
8.24290674203e-07
-2.8853306441e-08
8.22747017933e-07
-3.09768119614e-08
-2.18332791286e-08
8.06404473084e-07
-1.44876372548e-06
9.37873056351e-07
1.05620651305e-06
-1.18204786102e-06
6.63544441954e-07
1.96831715486e-07
6.99466229321e-07
-5.76609937283e-08
6.63782366019e-07
-3.25497721208e-09
6.61181521358e-07
-2.28612455876e-08
6.49186487442e-07
-1.65443626328e-08
6.39688826021e-07
-1.84428507577e-08
6.29405334924e-07
-1.81809792848e-08
6.19398356568e-07
-1.86942671686e-08
6.0944673439e-07
-1.89570745966e-08
5.99500312572e-07
-1.89906090492e-08
5.89642478918e-07
-1.90568301772e-08
5.79930826657e-07
-1.90243599548e-08
5.70410862009e-07
-1.8877293935e-08
5.59572897799e-07
-1.78468810375e-08
5.42823034529e-07
-1.40626570911e-08
-2.37350291165e-08
5.44980246166e-07
2.38082505177e-06
-7.99621445562e-07
3.54418959202e-07
8.49254610099e-07
7.45438531644e-07
-1.90650450637e-07
6.80210060757e-07
1.30167290267e-08
7.03741901707e-07
-2.65505346614e-08
6.9093371276e-07
-8.90605823874e-09
6.89614560252e-07
-1.42579871314e-08
6.84192681659e-07
-1.24139206016e-08
6.79471649063e-07
-1.30512333901e-08
6.74138743791e-07
-1.30135182148e-08
6.6879868593e-07
-1.30562279182e-08
6.63078757223e-07
-1.31330696608e-08
6.57444654303e-07
-1.32053008718e-08
6.51972944012e-07
-1.33453136461e-08
6.46742930013e-07
-1.34933868261e-08
6.43502659976e-07
-1.44770868181e-08
6.48840078461e-07
-1.92341181676e-08
-8.8852417902e-09
6.34279751898e-07
-8.28692089449e-07
5.90543886307e-07
7.73002319648e-07
-7.47317627342e-07
4.80956083603e-07
1.06098534858e-07
5.23094773777e-07
-2.38648282487e-08
4.97663607897e-07
4.5998926258e-10
4.97295239541e-07
-7.51511848452e-09
4.89287010296e-07
-5.24996274294e-09
4.83679660982e-07
-6.17966835138e-09
4.77295719051e-07
-6.26135822936e-09
4.71405841703e-07
-6.60398456087e-09
4.6565406689e-07
-6.83833357159e-09
4.59988565334e-07
-7.18707404413e-09
4.54529979216e-07
-7.57207551158e-09
4.49313593159e-07
-7.94056550729e-09
4.44186561221e-07
-8.22775482593e-09
4.3740130852e-07
-7.58734407155e-09
4.20125809644e-07
-1.72562335798e-09
-1.47304161989e-08
4.26164295943e-07
1.32508894808e-06
-2.44100946781e-07
4.56012964826e-07
1.27665101278e-07
6.06336112929e-07
-3.87100720202e-08
5.79934118843e-07
8.54687934656e-09
5.86435114511e-07
-4.00577927843e-09
5.80811255674e-07
-6.46837689569e-10
5.7866826489e-07
-1.99059392453e-09
5.74912223252e-07
-1.69515327495e-09
5.71103428894e-07
-1.92380908583e-09
5.6694583149e-07
-1.84236302703e-09
5.62505300012e-07
-1.80463555941e-09
5.57518489758e-07
-1.8807528319e-09
5.52077857975e-07
-1.91317516107e-09
5.46106083942e-07
-1.76111822021e-09
5.39265335027e-07
-1.23539948388e-09
5.33306510455e-07
-1.46874716219e-09
5.38299667092e-07
-6.50668508604e-09
1.2130550977e-08
5.11714223313e-07
1.7661909344e-07
3.04720162324e-07
2.66582371982e-07
2.75334263718e-07
2.71457587093e-07
2.70941311474e-07
2.69043451015e-07
2.67416643171e-07
2.65576236833e-07
2.63831026429e-07
2.62083160898e-07
2.60240268505e-07
2.58367883186e-07
2.56639814904e-07
2.55434676569e-07
2.54014054315e-07
2.47577342327e-07
2.59737804615e-07
5.00218848855e-08
-6.54776391896e-08
3.67483443332e-08
-3.2798736721e-10
-4.83324371948e-09
2.55985822109e-08
-4.62648741186e-08
2.84969589043e-08
-9.19625396784e-08
3.4426416088e-08
-1.2950218007e-07
3.19802890096e-08
-1.61449157895e-07
2.63088696275e-08
-1.8577496271e-07
2.06568598932e-08
-2.05591345528e-07
1.57015558935e-08
-2.20657241904e-07
1.18364230491e-08
-2.32832813813e-07
9.02093744411e-09
-2.42852664604e-07
7.15582231654e-09
-2.51277427514e-07
6.04678515968e-09
-2.5912036074e-07
5.46763307473e-09
-2.66115883838e-07
5.24450546733e-09
-2.73144188178e-07
5.17451284468e-09
-2.79640889973e-07
5.17736485525e-09
-2.86197116001e-07
5.14163049743e-09
-2.92326029183e-07
5.06176975413e-09
-2.98405865071e-07
4.89810148198e-09
-3.04107642362e-07
4.69264944867e-09
-3.09640975973e-07
4.42618972088e-09
-3.14898617886e-07
4.13815544511e-09
-3.19926411827e-07
3.83415363216e-09
-3.24691025277e-07
3.53247181066e-09
-3.29272363482e-07
3.22688608811e-09
-3.33578087028e-07
2.94483595051e-09
-3.3774478447e-07
2.67124205898e-09
-3.41569066669e-07
2.42477750823e-09
-3.45319381179e-07
2.18159004963e-09
-3.48623911107e-07
1.97046703782e-09
-3.51903950498e-07
1.7508346891e-09
-3.54659515396e-07
1.55374262343e-09
-3.57405693791e-07
1.33958367251e-09
-3.59528705703e-07
1.15009914398e-09
-3.61641836284e-07
9.20324488742e-10
-3.63134318606e-07
7.05389232291e-10
-3.64529132093e-07
4.51503014887e-10
-3.65322685679e-07
2.0112483732e-10
-3.65920628988e-07
-9.19767218347e-11
-3.65968487172e-07
-3.87545222533e-10
-3.65696708102e-07
-7.20720452175e-10
-3.64961984325e-07
-1.06553167794e-09
-3.63776455548e-07
-1.43843415822e-09
-3.6224947809e-07
-1.83453443593e-09
-3.6014459793e-07
-2.24296084417e-09
-3.57800311518e-07
-2.68848922238e-09
-3.54815232953e-07
-3.13486337999e-09
-3.5167427427e-07
-3.61679834118e-09
-3.47859262918e-07
-4.0839636291e-09
-3.43948731736e-07
-4.59314418485e-09
-3.3937611248e-07
-5.06116938653e-09
-3.34696369434e-07
-5.5577902157e-09
-3.2945061793e-07
-6.01604079211e-09
-3.2409445726e-07
-6.48869658163e-09
-3.18207259837e-07
-6.90076773995e-09
-3.12157745765e-07
-7.31255988063e-09
-3.05644384914e-07
-7.6727540609e-09
-2.98882560175e-07
-8.07424303847e-09
-2.91578501209e-07
-8.48289697098e-09
-2.83938196436e-07
-8.85902796427e-09
-2.75827240535e-07
-9.17231814785e-09
-2.67454138241e-07
-9.44506722376e-09
-2.5866557185e-07
-9.62730774857e-09
-2.4977541133e-07
-9.78656690151e-09
-2.40483249069e-07
-9.86814742407e-09
-2.31253633559e-07
-9.9808748295e-09
-2.21602340213e-07
-1.00284593758e-08
-2.12189603814e-07
-1.0144863341e-08
-2.02331839761e-07
-1.01840003623e-08
-1.92846178005e-07
-1.03228406835e-08
-1.82878434218e-07
-1.03707936129e-08
-1.73374359987e-07
-1.05381298497e-08
-1.63351381861e-07
-1.05804867644e-08
-1.53789058058e-07
-1.07485070099e-08
-1.43702664521e-07
-1.07740616882e-08
-1.34081710149e-07
-1.09055684031e-08
-1.24060769215e-07
-1.08996398666e-08
-1.14636805552e-07
-1.10069999266e-08
-1.0478706803e-07
-1.09175157294e-08
-9.55787892413e-08
-1.09175828685e-08
-8.60538480604e-08
-1.07261313966e-08
-7.7344170515e-08
-1.06511469928e-08
-6.82304368338e-08
-1.0334607158e-08
-5.99303713609e-08
-1.01681545762e-08
-5.13639795237e-08
-9.84627824804e-09
-4.37332011833e-08
-9.77760324478e-09
-3.63530018279e-08
-9.65203900333e-09
-3.03925162322e-08
-9.73874444855e-09
-2.56802457745e-08
-1.01600031082e-08
-2.05537267011e-08
-1.06503391918e-08
-1.45634207144e-08
-1.13659542562e-08
-7.6106793649e-09
-1.22526874235e-08
8.17509106184e-11
-1.34025843163e-08
8.86134812868e-09
-1.47528181101e-08
1.87027030157e-08
-1.6375298739e-08
3.01037753328e-08
-1.81935675064e-08
4.30975647774e-08
-2.02740423993e-08
5.81675786911e-08
-2.25159930628e-08
7.54044811719e-08
-2.49594712494e-08
9.58071347605e-08
-2.80119359167e-08
1.21379487924e-07
-3.20955618156e-08
1.53507118067e-07
-3.8133150547e-08
1.95047447964e-07
-4.56554731706e-08
2.45744092558e-07
-5.58821840935e-08
3.05951746362e-07
-6.47526930992e-08
3.66669377277e-07
-6.84557945672e-08
4.23082516429e-07
-6.46156748759e-08
4.63260913191e-07
-5.30408679771e-08
4.84267550885e-07
-3.52196987335e-08
4.84376182194e-07
-2.09605255422e-08
4.94479828352e-07
-3.45188659229e-08
5.50317325114e-07
-9.08264823562e-08
6.60002305049e-07
-1.51886579971e-07
6.81735704263e-07
-8.10281635387e-08
6.02196243812e-07
2.75647268117e-09
1.86453000387e-07
3.07582247821e-07
-2.77633782995e-07
3.31640097817e-07
-6.33556305074e-07
1.97078824214e-07
-8.70898005755e-07
1.14346338644e-07
-8.93672160563e-07
-5.31009570696e-08
-8.89043521584e-07
-5.89245118004e-08
-8.85250368894e-07
-5.20774664795e-08
-8.85112445492e-07
-4.32320307554e-08
-8.94909296857e-07
-3.70091416293e-08
-9.09923414115e-07
-2.99945329372e-08
-9.34828786246e-07
-2.54243974102e-08
-9.64471424329e-07
-1.94978231261e-08
-1.00445921121e-06
-1.58416389939e-08
-1.04987534735e-06
-1.04473585112e-08
-1.1075752364e-06
-7.37923967844e-09
-1.17290063864e-06
-2.28853034848e-09
-1.25413560821e-06
3.42120894539e-10
-1.34723617445e-06
4.98366525771e-09
-1.46083040877e-06
7.11968611547e-09
-1.59135387507e-06
1.03589544711e-08
-1.74314485326e-06
1.15628760548e-08
-1.90870095799e-06
1.22427031584e-08
-2.08215177017e-06
1.3075507461e-08
-2.25857355536e-06
1.29166392182e-08
-2.43558444675e-06
1.51680598174e-08
-2.61924816402e-06
1.77197598501e-08
-2.80758497885e-06
2.39913500585e-08
-3.00517258401e-06
2.74200212703e-08
-3.20366186958e-06
3.37969395081e-08
-3.4086838271e-06
3.57277929633e-08
-3.60862455253e-06
4.23418150314e-08
-3.81037087057e-06
4.35245225533e-08
-3.99679086951e-06
5.127212513e-08
-4.17596734212e-06
5.15171834985e-08
-4.32297307524e-06
6.07281949007e-08
-4.44896844378e-06
5.91464009123e-08
-4.51776578331e-06
6.98328487076e-08
-4.54568900403e-06
6.47636645698e-08
-4.47914663367e-06
7.62798853857e-08
-4.34125045475e-06
6.48842161893e-08
-4.05245605028e-06
7.55800423637e-08
-3.64546162387e-06
5.37343821448e-08
-3.00606964113e-06
6.13719866846e-08
-2.18380243795e-06
2.46308195475e-08
-1.0223239463e-06
2.72340050288e-08
3.9982547448e-07
-2.86216743775e-08
2.28935204476e-06
-3.30352351259e-08
4.52576777618e-06
-1.12557039424e-07
7.37953328167e-06
-1.27849546901e-07
1.06837903291e-05
-2.40710300575e-07
1.47887870938e-05
-2.7584150441e-07
1.94702128547e-05
-4.23872298132e-07
2.51575729098e-05
-4.70310611889e-07
3.15447529642e-05
-6.23303513816e-07
3.91282996373e-05
-6.41685190916e-07
4.75206745134e-05
-7.48738623714e-07
5.72495722866e-05
-6.70934674892e-07
6.8007938629e-05
-8.15411515468e-07
8.05961298014e-05
-1.0005242558e-06
9.49976133087e-05
-1.73023818997e-06
0.000112561883164
-3.04512968284e-06
0.000133223569087
-5.02085379497e-06
0.000158092331433
-7.56043010168e-06
-9.3564488322e-06
0.000185388683058
4.63309763226e-08
-1.238909151e-07
2.33696195217e-08
1.54442995253e-08
-1.59169308265e-08
6.0073805658e-08
-4.52055645487e-08
5.48596957808e-08
-5.20249548577e-08
3.85858859776e-08
-4.57054577535e-08
2.37388661893e-08
-3.44688514665e-08
1.27671228868e-08
-2.14027874451e-08
5.69788288223e-09
-9.76396656539e-09
1.90016823546e-09
-4.31631739271e-10
4.99679341345e-10
5.91507357625e-09
6.75442581489e-10
9.35661507224e-09
1.78837495514e-09
1.03174980165e-08
3.38481192671e-09
8.97422691769e-09
5.13254187111e-09
6.0316284452e-09
6.81311765081e-09
1.56938764648e-09
8.26865809436e-09
-3.77092452216e-09
9.41985313482e-09
-9.96347418826e-09
1.02263630607e-08
-1.65364153651e-08
1.06985091263e-08
-2.34232887369e-08
1.08615414891e-08
-3.03692318558e-08
1.07449521187e-08
-3.72558857131e-08
1.04093543945e-08
-4.39381244572e-08
9.88622769691e-09
-5.03011013259e-08
9.2191414779e-09
-5.62578516187e-08
8.43706079911e-09
-6.16898200174e-08
7.57676945249e-09
-6.65313068915e-08
6.6462297643e-09
-7.07291615096e-08
5.67113022872e-09
-7.41482312884e-08
4.66218127007e-09
-7.68307724393e-08
3.62810459084e-09
-7.85858767782e-08
2.57669177897e-09
-7.95729510286e-08
1.50796960838e-09
-7.95095444105e-08
4.40874345712e-10
-7.8638960149e-08
-6.40849058449e-10
-7.66802451651e-08
-1.72295484655e-09
-7.39025965352e-08
-2.81321089472e-09
-7.00414267151e-08
-3.90372927594e-09
-6.53621276159e-08
-5.00733289914e-09
-5.96501779652e-08
-6.11026991535e-09
-5.31042599252e-08
-7.22296906726e-09
-4.56094683415e-08
-8.34129606575e-09
-3.72691638301e-08
-9.46790721071e-09
-2.80834057495e-08
-1.06054771201e-08
-1.80464868099e-08
-1.1749495948e-08
-7.28158932436e-09
-1.29095312781e-08
4.32535761376e-09
-1.4072795201e-08
1.65558772059e-08
-1.5251481689e-08
2.96076735576e-08
-1.64277927119e-08
4.31753137361e-08
-1.76212175414e-08
5.74963398081e-08
-1.87957997802e-08
7.22858170286e-08
-1.99653520501e-08
8.77569678409e-08
-2.11078911545e-08
1.03636206543e-07
-2.2227518763e-08
1.20100111841e-07
-2.32953861951e-08
1.36941578195e-07
-2.43168815056e-08
1.54295734647e-07
-2.52621268918e-08
1.7199877366e-07
-2.61286641849e-08
1.90069818907e-07
-2.6870023868e-08
2.08256601097e-07
-2.74101634313e-08
2.26701027293e-07
-2.80483727054e-08
2.45443560741e-07
-2.86761224343e-08
2.64360678545e-07
-2.90973751742e-08
2.83375246753e-07
-2.93987806825e-08
3.02510566489e-07
-2.95951152765e-08
3.21658291399e-07
-2.97034607596e-08
3.40829733231e-07
-2.96936010491e-08
3.59795635833e-07
-2.95925036965e-08
3.7861604986e-07
-2.93910837586e-08
3.96989488581e-07
-2.91434470526e-08
4.15055005701e-07
-2.88122820866e-08
4.32461573104e-07
-2.84500879017e-08
4.49402755461e-07
-2.79948647167e-08
4.65497290394e-07
-2.75032985683e-08
4.80956492392e-07
-2.69041008548e-08
4.95442399834e-07
-2.62498214511e-08
5.09174131436e-07
-2.54741645235e-08
5.21763444003e-07
-2.46567903943e-08
5.333834267e-07
-2.37224979084e-08
5.43723588412e-07
-2.27311771596e-08
5.53046187211e-07