/*--------------------------------*- C++ -*----------------------------------*\
| =========                 |                                                 |
| \\      /  F ield         | OpenFOAM: The Open Source CFD Toolbox           |
|  \\    /   O peration     | Version:  v1806                                 |
|   \\  /    A nd           | Web:      www.OpenFOAM.com                      |
|    \\/     M anipulation  |                                                 |
\*---------------------------------------------------------------------------*/
FoamFile
{
    version     2.0;
    format      ascii;
    class       volScalarField;
    location    "22";
    object      rho;
}
// * * * * * * * * * * * * * * * * * * * * * * * * * * * * * * * * * * * * * //

dimensions      [0 0 0 0 0 0 0];


internalField   nonuniform List<scalar> 
12225
(
0.585377036285
0.649871952089
0.629029862589
0.629312224974
0.617279990718
0.612989443918
0.607019653176
0.603004136599
0.600905199336
0.601909530327
0.607482885828
0.616230300983
0.623274879372
0.635153846095
0.658773686803
0.689943312656
0.730712453296
0.764999119193
0.761099368159
0.699208499624
0.6666569513
0.671346841607
0.662240427142
0.659905822414
0.656220370726
0.653981706996
0.652819603557
0.653416561747
0.657126976972
0.663695147202
0.670535119373
0.680600823154
0.69854122581
0.722018928031
0.748077625444
0.750804241892
0.605365722422
0.680880900966
0.6617354429
0.663716451249
0.653869281964
0.650566793251
0.646065883079
0.643095332308
0.641100170079
0.640587827126
0.642243021125
0.646183252998
0.65189204386
0.661000316231
0.675984682304
0.695023061152
0.712842907252
0.708096840015
0.674470451838
0.692760536449
0.666234628167
0.672073726179
0.663273728868
0.661578809763
0.658436487662
0.656599725308
0.655415098635
0.655294627657
0.656553591671
0.659346478668
0.663801968996
0.670882475827
0.681579863155
0.693894772137
0.702004446756
0.69243152945
0.638333528413
0.692590473025
0.667383291425
0.674470382947
0.666476409351
0.66573629199
0.663485492546
0.662570238981
0.662327700497
0.663078995308
0.664946320561
0.66800861254
0.672485685959
0.678840158218
0.687065304605
0.694887631923
0.69717790545
0.686666963957
0.652950543387
0.696370487585
0.670755292355
0.679151593604
0.671746290807
0.671730503583
0.670029852385
0.669614554373
0.66980448153
0.6708611345
0.672825476
0.675729541736
0.679731303753
0.684953319209
0.690841275996
0.695146655403
0.694043090759
0.684087357145
0.648896923769
0.697751854646
0.673291043312
0.682573394849
0.675851694798
0.676500992842
0.675327655357
0.67536455993
0.675911446134
0.677178688465
0.67915617084
0.681832716728
0.685240906153
0.689266203646
0.693104603461
0.694804054778
0.691810209141
0.68271781365
0.651340965871
0.699267496859
0.675511760187
0.685554483684
0.679394457129
0.680578881964
0.679800358925
0.680152131005
0.680888481827
0.682201553128
0.68405804431
0.686404698402
0.689152443865
0.692032084913
0.694171865942
0.694036759391
0.690042250942
0.681829742179
0.652282950309
0.700027701055
0.677320758836
0.687877030972
0.682257044904
0.683897256745
0.683447264011
0.684016604489
0.684825654756
0.686073709278
0.68771748579
0.689655307829
0.691707825206
0.693524608913
0.694304977971
0.692900049445
0.688425482314
0.680962556727
0.653192468265
0.700361005006
0.678560950063
0.689493957511
0.684325424232
0.68633961511
0.686129536613
0.686823061308
0.687632819571
0.688766022353
0.690145550043
0.691622031201
0.692965168893
0.693821536928
0.693526766054
0.691273421897
0.686618538793
0.679853782051
0.653152775206
0.700432182999
0.678946514607
0.690217375273
0.685308622608
0.687534431742
0.687403859546
0.68811811377
0.688868689348
0.689834721216
0.690903212426
0.691920428836
0.692652893543
0.692788083039
0.69180251258
0.689156449717
0.6846769642
0.678682327002
0.649141083847
0.700307162297
0.677459532315
0.689304401573
0.684335237421
0.686654802624
0.686538212707
0.687246251803
0.687894333127
0.688691441736
0.68958331498
0.690395204484
0.690881961096
0.6907446341
0.689582173885
0.687025877417
0.68300556081
0.677831284183
0.645842371465
0.699617972861
0.675958772128
0.688208252841
0.683417261841
0.68590554428
0.685886751374
0.686667509294
0.687400490293
0.688272750033
0.689170588578
0.689914120011
0.690223365736
0.689880972561
0.688558825424
0.686037883276
0.682349306655
0.67776610682
0.641821213776
0.698757264531
0.6742430059
0.687024785842
0.682447217364
0.685288271192
0.68557441813
0.686572545917
0.687411519276
0.688281419352
0.689061823228
0.689557724199
0.689525479759
0.688813853543
0.687249397192
0.684701459666
0.68131507367
0.677244165147
0.636572438666
0.697813907248
0.672082403937
0.685586236323
0.68122669834
0.684484779599
0.68511710455
0.686372879797
0.687336005809
0.688161527196
0.688763967716
0.688939095985
0.688506380046
0.687441721229
0.685660329351
0.683135709349
0.680027448319
0.676481001187
0.631039934582
0.696804811554
0.669608757617
0.683826708636
0.679576662595
0.683191899393
0.684079047671
0.685521900449
0.686533805153
0.687304399602
0.687704372217
0.687617034059
0.686879703184
0.685597433419
0.683726360232
0.681318520536
0.678512543614
0.675409367712
0.626018216418
0.695880271134
0.667090129756
0.681887557837
0.677594105617
0.681419228346
0.682408026184
0.683903432006
0.684882224635
0.685529342614
0.685774663023
0.685490881192
0.68459442684
0.68321935191
0.681394454542
0.679150920859
0.676660935659
0.673921795536
0.621256194416
0.695166533314
0.6646782218
0.679947084004
0.675464011278
0.679350917042
0.680293108921
0.681741846823
0.68262477193
0.683148935573
0.683263459519
0.682860418612
0.681891743083
0.680524345519
0.67879938076
0.67674355145
0.67452342315
0.672103959383
0.618659252899
0.695075236806
0.663385395905
0.678834615921
0.674048241094
0.677783828453
0.678492100521
0.679729221023
0.680390757767
0.680705331263
0.680637872446
0.680103271892
0.679067902553
0.677713801089
0.676075380918
0.674167216162
0.672144095485
0.669961964031
0.623946824636
0.695687859547
0.664983912652
0.679567841513
0.674298512074
0.677354352362
0.677415086327
0.677990366769
0.678056159519
0.677841270559
0.677341649594
0.676489562522
0.675247373798
0.673783170303
0.672126459624
0.670281637266
0.668387803851
0.666410260169
0.628760497625
0.69688389822
0.666884292347
0.680832382665
0.675185743095
0.677700808338
0.677249235032
0.677344925331
0.676954106484
0.676362794805
0.675558862577
0.674499073441
0.673111942313
0.671589613676
0.669921979866
0.668132972495
0.66631758864
0.664469175387
0.630461891074
0.6977006836
0.668790149464
0.682205532635
0.676280787391
0.678319596963
0.677452440128
0.677130957889
0.676385177563
0.675494315716
0.674447746372
0.673224539921
0.671739766238
0.670162461085
0.668495011072
0.666736531635
0.66498812464
0.663202799611
0.638775603527
0.699537051739
0.670566150625
0.683468279843
0.67724074827
0.678832055645
0.677568350441
0.67687242102
0.675800359551
0.67462293366
0.67337254133
0.671984818194
0.67039380285
0.668746572616
0.667068668585
0.665309915739
0.663593810978
0.661874941929
0.631699561544
0.699963189774
0.672810601113
0.685169026791
0.678664354999
0.679790555641
0.67814119494
0.67706277656
0.675674237308
0.674238759193
0.672767576769
0.671219500984
0.669507588399
0.667783832364
0.666030237786
0.6642354003
0.662487821944
0.660774934482
0.659173442868
0.70230083282
0.674438873555
0.685945599092
0.679230763783
0.679920913097
0.677933473335
0.676568663846
0.674934038016
0.673294915903
0.671664609081
0.670022738066
0.668248739605
0.666488893603
0.66473394276
0.662926564287
0.661148353749
0.659415782622
0.615590011054
0.702474072413
0.67750842448
0.688694231246
0.681696015858
0.681999300269
0.679738993477
0.678079527545
0.676185864414
0.674294646057
0.672450175963
0.670624971573
0.668707352044
0.666806000826
0.664918737053
0.663009031139
0.661154067711
0.659490877426
0.711724698873
0.705489457773
0.680079686097
0.689007089375
0.682151963675
0.681841210838
0.679259328793
0.677272248821
0.675086291363
0.672905294701
0.670756786442
0.668774475134
0.666777744034
0.664805795394
0.662908952955
0.660992118983
0.659058309319
0.656950792662
0.564181235626
0.701289174498
0.687915912338
0.695213470729
0.688355894434
0.687912767953
0.685418288128
0.683599281568
0.681641528599
0.679697002093
0.677900449967
0.676225262103
0.674477994244
0.672743053047
0.671028614246
0.669183603351
0.667236121661
0.665664218395
0.835236897707
0.720511097086
0.695496246864
0.701784114865
0.695398569176
0.694286356272
0.691234565366
0.688484615535
0.685358182019
0.681980039481
0.678464815133
0.675172231918
0.671837789535
0.668367079228
0.664845501791
0.661258235276
0.657556128883
0.65396974926
0.649343231018
0.683049852764
0.678133676072
0.679833222887
0.672035973134
0.671028609757
0.668370434545
0.666315322867
0.664228552589
0.66239615393
0.660917893319
0.659538116182
0.658095966884
0.656983868117
0.656197388814
0.65553785022
0.655202631158
0.654434997534
0.50015031363
0.499789594661
0.499603079087
0.499621263356
0.499835585961
0.500211701371
0.500646662691
0.501106944331
0.501565890913
0.502004985155
0.502412223997
0.502780635752
0.503106905477
0.503390159414
0.503631253339
0.503832205953
0.50399562586
0.50412483715
0.504222907392
0.504292765898
0.504337639125
0.504359653923
0.504361997251
0.504345274617
0.504311269569
0.504259437214
0.504191283251
0.504106402775
0.504005289089
0.503887005555
0.503751677306
0.503598673084
0.503428267796
0.503239579739
0.503032727668
0.502807776984
0.502565812273
0.502306051815
0.502029647549
0.501736637914
0.501428400521
0.501105682632
0.500770193924
0.500423588522
0.500068018384
0.499706033819
0.499340257039
0.498973828925
0.498610026888
0.498251820751
0.497902079893
0.497562198384
0.497235317832
0.496925672518
0.496638632745
0.496379333376
0.496153171591
0.495965545029
0.495821974633
0.495727723337
0.495686862277
0.49570060742
0.495769907771
0.495897753805
0.496085102227
0.496328846851
0.496626926929
0.496977236293
0.497376474076
0.497821871375
0.498309175486
0.498834537159
0.499393207572
0.499980970383
0.500593176369
0.501225859248
0.501875068439
0.502536262907
0.503205656508
0.503880624042
0.504559129272
0.505237882403
0.505914835901
0.506587288521
0.507256016834
0.507918352694
0.508574201848
0.509229854384
0.509881559367
0.51053288279
0.511184583844
0.51183683916
0.512491815711
0.513123037242
0.513715899096
0.514308399547
0.514932330066
0.515572880026
0.516228162227
0.516892177222
0.51767087913
0.518543020304
0.518684672639
0.518731056893
0.518948118667
0.519389929417
0.520022966598
0.520369441515
0.520774769945
0.521140024144
0.521438837716
0.521696405865
0.521917930354
0.52212519206
0.522311023693
0.522483940266
0.522645982327
0.522801524059
0.522951166882
0.523093619917
0.523225919873
0.523346726409
0.523457308693
0.523558723038
0.523653781189
0.523743727457
0.523829292772
0.523910970561
0.523989116247
0.524064122705
0.524136352574
0.524206015227
0.524273289202
0.524338192545
0.524400787416
0.524460987949
0.524518779174
0.524574499098
0.524627679659
0.524678184436
0.524724280476
0.524767389408
0.524806696033
0.524840674377
0.524867612429
0.524885684045
0.52489376677
0.52489104681
0.524876813041
0.524850512867
0.524811047407
0.524756880641
0.524686280496
0.524597603331
0.524489068242
0.524358847593
0.524204880785
0.52402491507
0.523815976755
0.523574455592
0.523294987224
0.522971858152
0.522597005755
0.522159123801
0.52164276735
0.521030977579
0.520302812092
0.519441676579
0.518434324557
0.517257955966
0.515899613026
0.514362847541
0.512665327467
0.510849135713
0.508974518494
0.506985508106
0.504932932444
0.502894706536
0.500980022314
0.49949331489
0.500048113194
0.499814406239
0.499915854891
0.500203050601
0.500551832723
0.500908721616
0.501252223145
0.501572030873
0.501863625073
0.502124837957
0.502355360156
0.502554603775
0.502723478652
0.502862384584
0.502972711147
0.503055564813
0.503112770806
0.50314611622
0.503158060068
0.50315007531
0.503124682875
0.503083294909
0.503028231087
0.502959673439
0.502878997769
0.50278534535
0.502679557805
0.502560788937
0.502428819649
0.50228233162
0.502121147199
0.501944278529
0.501751136967
0.501540533777
0.5013128035
0.501067232633
0.500804129363
0.500523206745
0.500224977401
0.499909299322
0.499577153845
0.499229301058
0.498867231352
0.498492684502
0.498107924901
0.497715722339
0.497319462639
0.496922772096
0.496530304599
0.496147252938
0.495781227651
0.495437285363
0.495118331664
0.49482734724
0.494568235722
0.4943448752
0.494161080265
0.494022572602
0.493935298102
0.493901359573
0.493922222657
0.494000146157
0.494134742908
0.494322013844
0.494562995197
0.494860307451
0.495214133828
0.495624129954
0.496089357631
0.49660879679
0.497180532101
0.497802451276
0.498471239595
0.499183344427
0.499934667819
0.500720557387
0.501535902255
0.502375372628
0.503233446443
0.504106090949
0.504990200924
0.505881932679
0.506777108852
0.507673872133
0.508573900649
0.509471916706
0.510361212916
0.51125141936
0.512163437698
0.513078836458
0.513966886943
0.514860983714
0.515800965737
0.516756220254
0.517641185566
0.51845052383
0.519292944318
0.519985363791
0.520671435195
0.521389714369
0.522080026049
0.522901573786
0.523509990217
0.52416591147
0.524770754835
0.525353482786
0.525700140288
0.525966490254
0.526203951492
0.526449887199
0.526699259946
0.526957431327
0.527221534815
0.527488036498
0.527748452208
0.528007227445
0.528264072242
0.528520982545
0.528778191849
0.529032792977
0.529281052486
0.529521084221
0.529752780438
0.529977784935
0.530198013926
0.530414406801
0.530627686639
0.530838305663
0.531046766211
0.531253261447
0.531457885194
0.531660669484
0.53186175959
0.532061287594
0.532259657267
0.532457246608
0.532654687994
0.532852767908
0.533052217312
0.533252773778
0.53345427433
0.533658007779
0.533864384698
0.534073106374
0.534283286613
0.534494487136
0.534707104724
0.534922133033
0.535140803406
0.535364138463
0.535593260355
0.535829388026
0.536073746866
0.536327034277
0.536589115207
0.536859155981
0.537135155607
0.53741448676
0.53769353778
0.537968996218
0.53823582364
0.538488424359
0.538721352069
0.538930524026
0.539112209494
0.539263402866
0.539387668694
0.539477191155
0.539532746537
0.539555970653
0.539545200808
0.539493526086
0.539391245242
0.539235991702
0.538957867742
0.538649046203
0.538284923011
0.537873953282
0.53745833229
0.537022521233
0.500417745697
0.500342353134
0.500377122749
0.500492434458
0.50061430222
0.500714518335
0.500802286167
0.500884090758
0.500963671587
0.501041164333
0.501116017515
0.501186627527
0.501251347591
0.501308271859
0.50135599095
0.501393272755
0.501419607682
0.501434653787
0.501438802515
0.501432492753
0.50141662198
0.501391195754
0.501357743993
0.501315883865
0.501265975254
0.501207254189
0.501139881225
0.501062573356
0.500974865769
0.50087538473
0.500763533218
0.500637842146
0.50049792738
0.500342744669
0.500171950601
0.499985015811
0.499782394805
0.499563511049
0.499328929589
0.499078923547
0.498814416705
0.498536424904
0.49824652929
0.497946626533
0.497639088559
0.497326652993
0.497012627899
0.496700621833
0.496394693053
0.496099195979
0.495820315778
0.495564476628
0.495338601639
0.495147217563
0.494993841064
0.494881296544
0.494811929888
0.49478567376
0.494801646391
0.49486136578
0.494967512114
0.495122252897
0.495330987265
0.495597471592
0.495919952336
0.496299185361
0.496736311065
0.497231426934
0.497782944708
0.498388372076
0.499043914103
0.499745075206
0.500486718602
0.501263433631
0.502069733179
0.502900150453
0.503749442878
0.504612404574
0.505484150373
0.506359986987
0.507237808688
0.508114702274
0.508986264223
0.509849728419
0.510708942537
0.511565565388
0.512405396287
0.513225624289
0.514050290323
0.514889332255
0.515709039315
0.516481766405
0.517283174926
0.518089312873
0.518864353255
0.519609551788
0.520297999347
0.520831080832
0.521438128269
0.522233868418
0.523098790191
0.523717648325
0.52404870731
0.524393132473
0.524584604949
0.524824762745
0.525220625882
0.525789026615
0.526331803436
0.526804465299
0.527242334129
0.527648309456
0.528023573034
0.528371009514
0.52869498031
0.529003437397
0.529299680185
0.529587116667
0.529866982444
0.530137493942
0.530396568809
0.530643746667
0.530880395783
0.531108744092
0.531329922261
0.531544664964
0.531753472099
0.531956747044
0.532154839646
0.53234825231
0.53253768817
0.53272386148
0.532907245093
0.533088140312
0.533266802589
0.533443552264
0.533618949871
0.533793375241
0.533966984456
0.534138661631
0.534308354153
0.534477082953
0.534646051203
0.534814915655
0.534982154955
0.535146592512
0.535307715903
0.535465525936
0.535619900527
0.535770677119
0.535917665509
0.53606088254
0.536200204443
0.536335656595
0.536467492672
0.536596232827
0.536722608574
0.536847783339
0.53697295948
0.537099852148
0.537230183831
0.537365679822
0.537508095212
0.537659339224
0.537820813081
0.537994160978
0.538182028609
0.538384809381
0.538599232429
0.538822216611
0.539048602703
0.539268374612
0.539469191982
0.539626733643
0.539714448895
0.539715124227
0.539609828875
0.53939147587
0.539104897299
0.538904265344
0.500887254507
0.500768106848
0.500506045369
0.500365065155
0.500288163184
0.500228396865
0.500191627802
0.50017751153
0.500183829749
0.500207497804
0.50024534554
0.500293447747
0.500348517774
0.500407052971
0.500466305707
0.500523757904
0.500577671774
0.500626662232
0.500670203925
0.5007072687
0.500738195025
0.500762660512
0.500780810734
0.500791991274
0.500796562615
0.500793113883
0.50078130316
0.500759804194
0.500727806872
0.500683649975
0.500626429902
0.500554800311
0.500467893294
0.500364349005
0.500244228342
0.500106602412
0.499951540786
0.499778919616
0.499589341242
0.499383103619
0.499161426636
0.498925600428
0.498677581437
0.498419699734
0.498154771013
0.497886062905
0.497617409827
0.497352712645
0.497096491285
0.496853598702
0.496628703888
0.496425373041
0.496249314163
0.496105382206
0.495998050071
0.495931064075
0.495907846365
0.495930040989
0.495996230153
0.496103682776
0.4962517283
0.496441451371
0.496675553446
0.49695940337
0.497299527637
0.497699949518
0.498162764073
0.498689081812
0.499278652025
0.499929612105
0.500638565762
0.501400450044
0.502208757304
0.503056556552
0.503936469514
0.504840190317
0.505760329779
0.506691258435
0.507625814278
0.508557220231
0.509483214993
0.510404478587
0.511312940039
0.512199299323
0.513071866026
0.513938563015
0.51478527376
0.515578643236
0.516364992222
0.517154768985
0.517913774699
0.51862520652
0.519301309517
0.51996313932
0.520579363533
0.521200017356
0.521884874777
0.522625992052
0.523470490706
0.524273790109
0.524839751641
0.525094426485
0.525278407587
0.525501118099
0.525691226863
0.526013353548
0.526543220833
0.527215142891
0.527867632968
0.528455196053
0.528984384538
0.52945338556
0.52986963061
0.530243221538
0.530584235888
0.53090183107
0.531201078848
0.531486125562
0.531758263791
0.532016627339
0.532260231403
0.532490123394
0.532709290602
0.532920000681
0.533123417842
0.53332023596
0.533511110779
0.533696699427
0.533877702029
0.534054785149
0.53422884903
0.534400475733
0.534569879632
0.534737381651
0.534903378782
0.535068570802
0.535233533065
0.535398417557
0.535562461641
0.535724383896
0.535883919366
0.536042754699
0.536202790881
0.536363979404
0.536525144487
0.536685323512
0.536844223419
0.537001975075
0.537158794547
0.537314927946
0.537470544418
0.537625821688
0.537780611156
0.53793477328
0.538088178022
0.538240676334
0.538391978361
0.538541559043
0.538688759169
0.538832873654
0.538973509829
0.53911024312
0.539242745759
0.539371319027
0.539496718357
0.539620439897
0.539745944208
0.539875427302
0.540010681969
0.540154578132
0.540308599954
0.540471086251
0.54063841982
0.54080312308
0.540946994532
0.541063990601
0.541144043653
0.541185882915
0.541241294612
0.541439718519
0.501430257269
0.500764629281
0.500108111732
0.499867184103
0.499781568917
0.499725515881
0.499691963575
0.499677778167
0.499683305432
0.499707133557
0.499748154373
0.499803896493
0.499871708309
0.49994824868
0.500030794637
0.500116428978
0.500203225368
0.50028898327
0.500372599828
0.500452987953
0.50052964528
0.500601375392
0.500668511958
0.500729871689
0.500784984255
0.500832788742
0.50087266753
0.50090292721
0.500922628136
0.500930115501
0.500924363368
0.500903615935
0.500867227148
0.500814035172
0.500743494853
0.500654895493
0.50054859199
0.500424078562
0.500282009675
0.500122847023
0.499947787178
0.499758110866
0.499555803101
0.49934310965
0.499122846268
0.498898054185
0.498672411685
0.498449767407
0.49823422268
0.498030444542
0.49784461636
0.497681089463
0.497545188551
0.497442044764
0.497375686846
0.497349589657
0.497367556642
0.497432094939
0.497543635408
0.497703604336
0.49791312759
0.498172748676
0.498482630527
0.498841852335
0.499251328431
0.499713618314
0.50023110081
0.500805485789
0.501436733898
0.502123697725
0.502863607412
0.503652157122
0.504482519752
0.505348938847
0.506244769548
0.507161473793
0.508090375919
0.509028071434
0.509970833529
0.510905865608
0.511826895545
0.512744080448
0.513651131846
0.514529808446
0.515391859145
0.516251658425
0.517088973497
0.517884205279
0.51862901416
0.519358349633
0.520089352377
0.520769843833
0.521438734379
0.522079362238
0.522745705931
0.523523474762
0.524361315684
0.525180010593
0.525893657801
0.526365480247
0.526580163661
0.526665435478
0.526813894401
0.527034021169
0.527302884419
0.527706336556
0.528243637801
0.528842772261
0.52942763568
0.529973843607
0.530467775326
0.530903759148
0.53128839181
0.531631276573
0.53194199642
0.532228623282
0.532496662708
0.532750168231
0.532990626584
0.533217863744
0.533431962487
0.533635140572
0.533830629305
0.534020307455
0.534204794476
0.534384254384
0.534558848428
0.534728834594
0.534894595197
0.53505653078
0.535214925818
0.535370080726
0.535522447758
0.535672439211
0.535820621615
0.535967650083
0.536113859318
0.53625886113
0.536401075337
0.53653917698
0.536673016804
0.536805151796
0.53693791019
0.537071687108
0.53720571573
0.537339112436
0.537471564032
0.537603087112
0.537733868149
0.537864141942
0.537994044977
0.53812369116
0.538253222064
0.538382733842
0.538512299051
0.538641858828
0.538771394744
0.538900918194
0.539030317701
0.539159458436
0.539288507096
0.539417630066
0.539547104026
0.539677612052
0.539809835462
0.539944924513
0.54008524192
0.540231825596
0.540384889165
0.540545594764
0.540713081277
0.540884345891
0.541056214047
0.541223255359
0.541375234154
0.541510719709
0.541634744791
0.541763531985
0.541959906652
0.542337512333
0.50192072371
0.500079291573
0.499218088419
0.499222610658
0.499327327621
0.499375679369
0.499397542675
0.499412669481
0.49943487854
0.499470491781
0.499522513149
0.499589708283
0.499670690101
0.499762354508
0.499862468361
0.499968070592
0.500077290149
0.500187921793
0.500298878689
0.500408245791
0.50051572081
0.500620213896
0.500721062991
0.500817188121
0.500908383593
0.500992916415
0.501069992736
0.501138027946
0.501195889341
0.501241763391
0.501274488315
0.501292567006
0.501295012542
0.501280452898
0.501248815235
0.501199221411
0.501131761919
0.501046407301
0.500943936606
0.500824852824
0.500690663457
0.500542804905
0.500383512702
0.500215151555
0.500040653774
0.499863047305
0.499685975903
0.499512875188
0.499347733031
0.49919508372
0.499060834184
0.498949227348
0.498866015502
0.498816403175
0.498805041245
0.498836040861
0.498913158761
0.499035689073
0.499202048687
0.499411250599
0.499663211157
0.49995803823
0.500297669164
0.500683960843
0.501121903134
0.501615038165
0.502166947677
0.502779832358
0.503453338493
0.504184526675
0.504970915
0.505806573062
0.506682482236
0.507590017998
0.508525086692
0.509477824985
0.510434467769
0.511389513729
0.512346774452
0.513296882918
0.514215269941
0.51513747034
0.516046957065
0.516930499713
0.517776916251
0.518582257958
0.519369212147
0.520131734123
0.520870208598
0.521603003238
0.522288263398
0.522970269474
0.523724862267
0.524492253616
0.525278645667
0.526051136082
0.526742526685
0.527308486058
0.527724446062
0.527956473271
0.528071535551
0.528194509562
0.528397428857
0.528658511658
0.528987973535
0.52941730704
0.529916102478
0.530438199154
0.530950586792
0.531436764963
0.531881590508
0.532280413583
0.532637442923
0.532959467699
0.533253556681
0.533525864317
0.533781077646
0.534022155648
0.534250037541
0.534464271087
0.534665181725
0.53485521221
0.535036998912
0.535211968407
0.535380482858
0.535542593642
0.535698415749
0.535848266713
0.535992649196
0.536132199428
0.536267651077
0.536399942977
0.536529835137
0.536657975047
0.536785092381
0.53691193202
0.537038711611
0.537164391806
0.537287073185
0.537404993435
0.537518436547
0.537630066222
0.5377421872
0.537855453104
0.537969266619
0.538082952954
0.53819617809
0.538308904902
0.538421234746
0.538533129867
0.538644639975
0.538755808369
0.538866699517
0.538977464828
0.539088193314
0.539198996219
0.539309935215
0.539421110308
0.539532539216
0.539644292706
0.539756675914
0.539870001322
0.539984769795
0.540101862256
0.540222317708
0.540347506323
0.540479732125
0.540620182982
0.540769419243
0.540928718036
0.541097090402
0.541271739219
0.541450197389
0.541628632956
0.541798558239
0.541960040319
0.542121253087
0.542304679747
0.542570941936
0.543008832914
0.502172196852
0.498665722778
0.498097293545
0.498681979701
0.499027673972
0.499178455169
0.499254088036
0.499307956483
0.499365712392
0.499435161001
0.499520229777
0.499619701785
0.499732568342
0.49985580147
0.499987689152
0.500125343183
0.500267369366
0.500411337487
0.500556315858
0.500700899081
0.500844348819
0.500985142348
0.501123289316
0.501257312707
0.501386498974
0.501509657551
0.501625948125
0.50173359151
0.501831563783
0.501918146668
0.501992256923
0.502052173384
0.502097216777
0.502126294989
0.5021388918
0.502134448988
0.502113369096
0.502075407863
0.502021473373
0.50195229886
0.501869426668
0.501774340255
0.501669269087
0.50155642101
0.501438513178
0.50131802597
0.501198080064
0.501081481982
0.500971150995
0.500870544933
0.50078626607
0.500721866222
0.500683710253
0.50067902842
0.500714218914
0.500795156556
0.50092507425
0.501100678162
0.50132018383
0.501581642671
0.501884013149
0.502224561249
0.502602992667
0.503021841886
0.503488359135
0.504006565161
0.504582022643
0.505219070854
0.505917372966
0.506672845232
0.50748236541
0.508343081431
0.509242167385
0.51016547645
0.511110012694
0.512069841569
0.513029892444
0.51398427084
0.514942564427
0.515887535367
0.516810483346
0.517697387209
0.518544894207
0.519379428915
0.520191618199
0.520970918873
0.521716644889
0.522429801735
0.523147882315
0.523895208592
0.52462852374
0.525381292738
0.526142594888
0.526866827374
0.52755001891
0.528146111375
0.528627556777
0.528989417067
0.529251536583
0.529427417528
0.529584645775
0.529780814095
0.530027286331
0.530316823606
0.530668461148
0.531085064971
0.531536094123
0.531994594153
0.532442863168
0.53286857686
0.533261423235
0.533618838837
0.533942978221
0.534237830195
0.534507831179
0.534757327389
0.534989745753
0.535207249386
0.535410408855
0.535599158066
0.535774637995
0.535939531992
0.536096573786
0.536247327091
0.536392465515
0.536532284444
0.536667073583
0.536797213614
0.536923220532
0.537045698475
0.537165236191
0.537282305303
0.537397279309
0.537510660729
0.537623155765
0.537735448761
0.537847487755
0.537957841026
0.538064392081
0.538165445267
0.538261782558
0.53835601311
0.538450422924
0.53854565171
0.538641280563
0.538736853365
0.538832176019
0.538927338786
0.539022328122
0.539117192531
0.53921191398
0.539306538686
0.539401118263
0.539495700318
0.539590400075
0.53968536657
0.539780702587
0.539876520443
0.539972874515
0.540069934892
0.540168086017
0.54026775831
0.540369509975
0.540474381557
0.540583540071
0.540698388476
0.540821074267
0.540952823721
0.541094368378
0.541247053098
0.541410194766
0.541581490005
0.541759530026
0.541942325614
0.542123692935
0.542305395893
0.542497340509
0.542725132527
0.543043586354
0.543519002907
0.502055160018
0.496736136712
0.497090594172
0.498376163436
0.498858748806
0.49907546635
0.499206794913
0.499320638869
0.49943864689
0.499565940968
0.499705943687
0.499856368331
0.500017229927
0.50018565091
0.500360879927
0.500540303338
0.500723087699
0.500907157563
0.501092038601
0.501275838197
0.50145840348
0.5016384135
0.50181524442
0.501987841036
0.502156009183
0.502318079604
0.502473442958
0.502620669699
0.502758836292
0.502886342831
0.503002295147
0.503105433965
0.503195007067
0.50326996596
0.503330356334
0.503375555168
0.503405832563
0.503421385742
0.503423120423
0.503411705425
0.503388739662
0.503355593093
0.503314262042
0.503266571316
0.503214566582
0.503159934112
0.503104392955
0.503049347244
0.502996347348
0.502947141341
0.502906949138
0.502881828851
0.502879749314
0.50291224831
0.502990920706
0.503125945931
0.503317713005
0.503559401714
0.503846770533
0.50417459804
0.504536008254
0.50492343269
0.505331986741
0.50577197702
0.506251749594
0.5067790799
0.507361504156
0.508007624356
0.508720382681
0.509491274972
0.510312405519
0.511184310974
0.512096478535
0.513022250358
0.51397611894
0.514943971016
0.515903045616
0.516845478572
0.517759556837
0.518640418283
0.519509369228
0.520354659218
0.521165000352
0.521941868717
0.522683149321
0.523394943808
0.524100722991
0.52482125213
0.525559621231
0.526300086696
0.527010806958
0.527712611584
0.52836748615
0.528962025579
0.529494162797
0.52994168017
0.530299787281
0.530575837311
0.530796797549
0.53098479451
0.531182171879
0.531407372185
0.531663845682
0.531960110632
0.532307177013
0.532693687024
0.533095719269
0.533497029648
0.533886563611
0.534256052923
0.534599647441
0.534915925022
0.535205765364
0.5354712963
0.535715357698
0.535941121026
0.53615121698
0.536347298469
0.53652980132
0.536698919237
0.536856037494
0.537003602879
0.537143852908
0.537278074228
0.537406797078
0.537530195974
0.53764841012
0.53776167391
0.537870376448
0.537975028153
0.538076185199
0.538174381297
0.53827024238
0.538364520688
0.53845819348
0.538551988565
0.538645614083
0.53873741871
0.53882512483
0.538907407315
0.53898525112
0.539061115757
0.539137032223
0.539213560895
0.539290451461
0.539367380544
0.539444326072
0.539521341611
0.539598491854
0.539675781639
0.53975316414
0.539830660815
0.539908311104
0.539986210454
0.540064495382
0.540143348001
0.54022292902