/*--------------------------------*- C++ -*----------------------------------*\
| =========                 |                                                 |
| \\      /  F ield         | OpenFOAM: The Open Source CFD Toolbox           |
|  \\    /   O peration     | Version:  v1806                                 |
|   \\  /    A nd           | Web:      www.OpenFOAM.com                      |
|    \\/     M anipulation  |                                                 |
\*---------------------------------------------------------------------------*/
FoamFile
{
    version     2.0;
    format      ascii;
    class       volScalarField;
    location    "22";
    object      sensitivity;
}
// * * * * * * * * * * * * * * * * * * * * * * * * * * * * * * * * * * * * * //

dimensions      [0 2 -3 0 0 0 0];


internalField   nonuniform List<scalar> 
12225
(
-5.04662801759
-9.84234702542
-7.70518691855
-8.43348866094
-8.18028824405
-8.26397250745
-8.1661918755
-8.08920721332
-8.01218948122
-8.03407403253
-8.21156094655
-8.53383937624
-8.84077699018
-8.95586812253
-9.24256182496
-11.1747831019
-15.942845547
-18.9358305493
-26.1205298747
-9.75712102868
-12.8453598248
-12.3118383179
-12.8663199532
-13.1048956562
-13.4059538947
-13.7037960819
-14.0742126373
-14.5705712908
-15.2193120723
-15.9436030347
-16.5512098017
-16.9339554501
-17.6012746953
-19.8819269975
-23.9013058563
-24.2809336344
8.60112490074
-12.2498680753
-9.5410803149
-10.5534506552
-10.2354255778
-10.3143097447
-10.2301321881
-10.2219302631
-10.2847026348
-10.5026141397
-10.8836338826
-11.3421344437
-11.7008652767
-11.9291335949
-12.5785045813
-14.6985887686
-17.9504305044
-18.4065210415
-26.3512867016
-8.23980693624
-11.709802638
-10.837269724
-11.2820697809
-11.272861921
-11.3606021687
-11.4312693237
-11.5806860338
-11.8442696343
-12.2211275574
-12.6110325957
-12.8606339037
-12.9779085238
-13.4078235216
-14.7216533314
-16.2394462075
-15.6068073083
6.78196925693
-12.5912796737
-9.02866166859
-10.4127373276
-10.0971345642
-10.2945177327
-10.3134787928
-10.4202996621
-10.5897115645
-10.8845254611
-11.2872696384
-11.7161764657
-12.0722477308
-12.4166819519
-13.0710080565
-14.1960127554
-14.9750948419
-14.0700476768
-22.2109992478
-8.99831803821
-10.6614309406
-10.2969478128
-10.5046035618
-10.5388846866
-10.5915760334
-10.6655723685
-10.7959958296
-11.008423962
-11.2826746868
-11.5554823844
-11.7857211884
-12.0759706934
-12.6488863653
-13.452474363
-13.7894271933
-12.9567891646
-3.44839671337
-10.0597669216
-9.82123765138
-10.1381086042
-10.1571190919
-10.2738879237
-10.3532385929
-10.4794635557
-10.6514456327
-10.8829680772
-11.141112027
-11.3740641029
-11.5702946309
-11.8276299885
-12.2688129512
-12.7567845208
-12.8060588805
-12.0965502672
-12.1050484212
-10.0293202853
-9.9158994131
-10.0819330941
-10.1103852956
-10.1966840158
-10.2647377945
-10.3803882325
-10.5393050519
-10.7452629249
-10.9645195306
-11.159650085
-11.3345720633
-11.5592507399
-11.8741665849
-12.1262090002
-12.0148775366
-11.419231388
-9.37864841704
-9.78470631485
-9.89322848179
-9.99656809634
-10.0412978256
-10.1196009905
-10.1904347616
-10.3001919192
-10.4438065376
-10.6183289366
-10.7953974583
-10.9520687995
-11.0990176018
-11.2764755016
-11.4757157994
-11.5660996069
-11.3776817795
-10.8785117978
-9.88160319182
-9.83335748722
-9.83010697207
-9.93950358815
-9.97532179723
-10.0491604361
-10.1181281192
-10.2199310989
-10.3459138999
-10.4896969479
-10.6290248424
-10.7511520682
-10.8659522072
-10.9893279044
-11.0913694848
-11.0769308758
-10.857958719
-10.4373292674
-9.78935510411
-9.78901047784
-9.80481789484
-9.88588951701
-9.92256846085
-9.98684352198
-10.051712385
-10.1413974849
-10.2472027828
-10.3609365031
-10.4665074404
-10.5567762186
-10.6371204176
-10.7073521702
-10.7338962602
-10.6547710227
-10.4292197776
-10.0710937706
-9.73991181058
-9.75928280132
-9.77000558097
-9.83340235999
-9.86808147939
-9.92296950412
-9.98126443762
-10.0573263111
-10.143489798
-10.2312322923
-10.3088576717
-10.3714209504
-10.420106517
-10.447206601
-10.4239746914
-10.3119024201
-10.0931696239
-9.7831312122
-9.73181364635
-9.72704867521
-9.74672276422
-9.78893768916
-9.82156526269
-9.86557937395
-9.91535979582
-9.97630740316
-10.0423343781
-10.1051692571
-10.1565376487
-10.1925668986
-10.2108624549
-10.2013800281
-10.142413434
-10.0117567431
-9.80423958826
-9.53366744425
-9.71229273841
-9.68947294121
-9.72060984041
-9.73999110157
-9.7686884192
-9.79882606246
-9.83658126872
-9.87916022251
-9.92290051864
-9.95983791675
-9.98451469462
-9.99297173152
-9.98143127749
-9.94024566645
-9.85522054188
-9.71560136964
-9.52274962087
-9.28857562001
-9.69768411695
-9.64620195905
-9.69221155431
-9.68565527333
-9.70829534615
-9.72148510717
-9.74382602388
-9.76552536652
-9.78547748438
-9.7963403948
-9.79442951694
-9.77614801276
-9.7374699001
-9.67149477547
-9.57011162638
-9.42953198338
-9.25369100298
-9.05227190731
-9.72888765064
-9.60004874645
-9.66886258499
-9.63221419968
-9.64590628469
-9.63959045267
-9.64373239512
-9.64308080704
-9.63896590862
-9.62478178671
-9.59810870176
-9.55583825337
-9.49525869209
-9.41217138356
-9.30313228503
-9.16752801666
-9.01008188974
-8.83824483559
-9.77734106888
-9.57110674921
-9.63308092584
-9.57095675862
-9.57086284403
-9.54375893026
-9.52773752903
-9.50447296587
-9.47718699626
-9.4397830616
-9.39097499127
-9.32866554104
-9.25157465628
-9.15794424847
-9.04664282199
-8.91858603308
-8.77770056082
-8.6296096711
-9.53233278106
-9.45902720363
-9.60550394658
-9.51643972706
-9.50122918292
-9.45339430826
-9.41855742509
-9.37585855661
-9.32960887509
-9.27457734733
-9.21045399648
-9.13594437909
-9.05091344217
-8.95510424227
-8.84845816628
-8.73219880431
-8.60946639585
-8.48264919045
-10.7697494252
-9.73454007533
-9.59338686984
-9.42761655572
-9.38216928757
-9.31724984752
-9.26569644518
-9.20717229727
-9.1454174784
-9.07647836375
-9.0004645251
-8.91777068326
-8.82892148349
-8.73452650856
-8.63476712469
-8.53086053409
-8.42585621389
-8.32823178757
-6.57391320003
-8.87461634814
-9.35411036943
-9.36579585606
-9.35172860947
-9.28540086172
-9.22819624719
-9.16001450814
-9.08754377858
-9.0073724278
-8.92017038697
-8.82595944942
-8.72564141181
-8.6194698778
-8.5076170195
-8.39069791901
-8.26974785523
-8.13551860313
-16.0924562337
-10.0282485494
-9.69519511105
-9.38170344609
-9.37298596734
-9.32151822053
-9.27699909806
-9.22384113636
-9.16686245351
-9.10553641898
-9.04122211551
-8.97466768201
-8.90704797815
-8.83911716516
-8.77071441413
-8.70114841088
-8.63237621142
-8.58287491949
3.07507231026
-8.96044684822
-8.96717736955
-9.36837897938
-9.23648580748
-9.1520726032
-9.05713722614
-8.95169155143
-8.84328687662
-8.72769617473
-8.60700823537
-8.48251229131
-8.35526498343
-8.22568268352
-8.09462000899
-7.96458374721
-7.83897628375
-7.70207265636
-31.3509687835
-9.11357005231
-10.5447659931
-9.45950359249
-9.73947547807
-9.66949686447
-9.67215437501
-9.64906939636
-9.62598214892
-9.59825998195
-9.56584379795
-9.52788560792
-9.48541613419
-9.43792102834
-9.3841719619
-9.32142434101
-9.24763519262
-9.1862807616
24.6506998791
-11.2503691812
-7.82578831988
-9.61953879209
-8.98916408338
-9.00627670301
-8.84253176368
-8.71609165123
-8.57612744923
-8.43718635551
-8.30012453949
-8.16709852796
-8.0392001925
-7.91793606055
-7.80380431951
-7.69956212866
-7.60924601584
-7.50560743159
-57.2796581453
-5.18307121277
-12.4628405453
-9.33855130137
-10.3456106864
-10.0610542243
-10.1318203513
-10.0839008875
-10.0610248953
-10.0246377599
-9.98673957454
-9.94440504497
-9.89767952215
-9.84418601606
-9.78264949657
-9.71074410515
-9.62683803284
-9.56746714564
45.2920298652
-17.3330184731
-5.90761879721
-10.1829670885
-8.68488948654
-8.98857934804
-8.73642371808
-8.64910734969
-8.51099162006
-8.38960817581
-8.26704753825
-8.14778169552
-8.0286110972
-7.90833162529
-7.78606864097
-7.66718280023
-7.56414712702
-7.44131821461
-57.9539004453
-1.74615374391
-13.6862094861
-9.47980260123
-10.89822367
-10.4033013293
-10.5130706668
-10.4173807976
-10.3797533193
-10.3187311517
-10.2623689646
-10.2007898356
-10.1375241657
-10.0735000745
-10.0122462129
-9.95879611123
-9.9123089482
-9.90782512083
32.3218073257
-15.922855188
-6.79085561359
-9.87543122301
-8.75981013018
-8.97713691025
-8.77450992212
-8.70421376245
-8.59163407052
-8.49580743665
-8.39908300451
-8.30685305411
-8.21805462557
-8.13347521504
-8.05105570129
-7.9689648129
-7.88350587961
-7.73163131255
-36.6615333243
-6.74636860885
-13.1423641558
-10.9248456212
-11.5906721218
-11.3353048164
-11.3632954781
-11.292117138
-11.2405484011
-11.1736761032
-11.1027337112
-11.0219271692
-10.9340018279
-10.8388495416
-10.732806922
-10.6080143705
-10.4474307066
-10.3040746392
-1.17642398403
-8.76405020214
-5.70214413479
-6.45482963262
-6.03676984792
-6.02045186099
-5.87341526094
-5.77180198947
-5.6595991322
-5.5541724487
-5.45029611489
-5.34941287299
-5.25376746262
-5.16544612376
-5.08270015598
-5.00616184865
-4.95750787992
-4.93997204364
-0.00331202639365
-0.00372251478639
0.00210412358865
0.00586971392808
-0.0202158531252
-0.0440887962925
-0.064043363324
-0.0891534406694
-0.12016466649
-0.157981756593
-0.203383385326
-0.256579044193
-0.31674124995
-0.382469889965
-0.451904796515
-0.523391283202
-0.595593269196
-0.667699491549
-0.739349307934
-0.810584381383
-0.881693884737
-0.953037854693
-1.02501997138
-1.09796498263
-1.17199894535
-1.24724180437
-1.32358922955
-1.40092719199
-1.47883035324
-1.55701648151
-1.63491360298
-1.71211825048
-1.78799822025
-1.86206634081
-1.93365895791
-2.00222600668
-2.06727201278
-2.12821415312
-2.18465377817
-2.23605378593
-2.28219239381
-2.32258474953
-2.35719658988
-2.38564825532
-2.40809669502
-2.42433623733
-2.43457966451
-2.43886150859
-2.43746889607
-2.43056900545
-2.41842509057
-2.40134651204
-2.37939294333
-2.35293499349
-2.32212761214
-2.28726279658
-2.24833180913
-2.20561446661
-2.1590940805
-2.10891519756
-2.05488036524
-1.99609398774
-1.93362442646
-1.86810892846
-1.80038028682
-1.73056396224
-1.65897931264
-1.58579675952
-1.51165348353
-1.43689154066
-1.36199942657
-1.28713246951
-1.21250164109
-1.13815435297
-1.06403600006
-0.990145855846
-0.916442598263
-0.843069334005
-0.770235351898
-0.698029360367
-0.626597970069
-0.556164135208
-0.487058324981
-0.419319373106
-0.352943130973
-0.288198738483
-0.225125993453
-0.164562840749
-0.106931365543
-0.0539483957956
-0.0043176849185
0.0451425605674
0.096495626634
0.150669916318
0.208277244084
0.269731178793
0.335170422315
0.404452662162
0.476907717346
0.550561622773
0.622490738913
0.693670941075
0.765487295671
0.834313788016
0.902485467875
0.973766647689
1.01541988524
1.0174258322
1.02383652149
0.97959346419
0.832301986112
0.68807846996
0.579639459351
0.516144239993
0.373481615696
0.165108489012
-0.0821040843399
-0.255344668
-0.347079211548
0.0163020975046
0.167676350486
0.282148679909
0.366869531219
0.438403592463
0.504985931401
0.570540877014
0.637302421108
0.706355896136
0.778568366051
0.854338746874
0.934312859501
1.0191349741
1.1104052127
1.21016294948
1.32086768233
1.44565700092
1.58726304764
1.74701851839
1.9209267861
2.10183591558
2.27989464381
2.45472575275
2.6269401601
2.80015924307
2.97660401489
3.15872168016
3.34854685539
3.54899996602
3.76214930886
3.9907922475
4.23616053536
4.50075026236
4.78499046452
5.09167985955
5.42083090467
5.77570633914
6.15524877482
6.56221578738
6.99368207109
7.4516480862
7.92928047383
8.42747130707
8.93904612847
9.46656600043
10.0020159786
10.5306597646
11.0387160442
11.5309037121
11.9809612918
12.3499628766
12.6302164984
12.8372596822
13.3391081892
13.8352902573
14.2341796382
14.8025273135
16.075709976
17.077521849
17.105841058
9.04830553799
-0.00273280495502
-0.00593310512282
-0.0377366816635
-0.0527037152976
-0.051076973828
-0.0345381205149
-0.0105835007632
0.0153353540417
0.0404958899553
0.0628343028236
0.080923247357
0.0940983635455
0.102580575355
0.106992830718
0.108215421495
0.106977977111
0.103855142223
0.0991484936785
0.0929708577557
0.0853149711076
0.0760682813135
0.0650835968935
0.0522890141018
0.03766429855
0.0213025330923
0.00337322973985
-0.0157753115353
-0.0357818296133
-0.056057887783
-0.0760512165958
-0.0950352090178
-0.112385409887
-0.12732623464
-0.139141039932
-0.147118398441
-0.15058421024
-0.148933026787
-0.141562231271
-0.128034187605
-0.107828568294
-0.0806786999525
-0.046201781328
-0.00431501007084
0.0451913552267
0.102212317492
0.166734412558
0.238503381147
0.317315663899
0.402794910959
0.494477798724
0.591988858687
0.694853777624
0.802665504915
0.914876548469
1.03109574618
1.1508088939
1.27367614118
1.39917343517
1.52673640277
1.65587191922
1.78613374398
1.91626033362
2.04677279137
2.17788010912
2.30911190682
2.43947929546
2.56801007304
2.69413144637
2.81715163215
2.93641410082
3.051133553
3.16058441555
3.26407295358
3.36097942818
3.45082028865
3.53323162785
3.60789560318
3.67448460067
3.73278645012
3.78275920643
3.82433545377
3.8574658634
3.88209078967
3.89825003454
3.90574862811
3.90401476621
3.89192235713
3.86773722661
3.82813122869
3.7693032846
3.69020892175
3.59107854984
3.47198413188
3.33281758346
3.17459441856
2.9997221831
2.81178384206
2.61449480744
2.41183551769
2.21092666747
2.02083946921
1.84417263185
1.67967442123
1.53649407936
1.41124943006
1.27348543411
1.14009021491
1.0221125547
0.853715774506
0.639100501212
0.483848173031
0.355935340041
0.225308290912
0.0547373358812
-0.124990268606
-0.28464742726
-0.294616815539
-0.290632436382
-0.311652596085
-0.212771850802
-0.188400285793
-0.175023410453
-0.172622347885
-0.171791445679
-0.1672360523
-0.156062438939
-0.136996309281
-0.109293786067
-0.072696273574
-0.0270486134398
0.0277209841755
0.0921104467387
0.167140843514
0.254465963426
0.356385361582
0.475622921279
0.615162459587
0.775984509653
0.953985294133
1.14127295235
1.32869820394
1.51306892021
1.69436622209
1.87697583228
2.06447420767
2.25922202307
2.46381344977
2.68119071357
2.91404315233
3.16502362676
3.43612271794
3.7295540213
4.04683419449
4.39056028637
4.76240310312
5.16566933289
5.60174936506
6.07403522996
6.58248501421
7.12784330663
7.70540520453
8.31466940732
8.9513494081
9.61604052995
10.3020831674
11.0081702334
11.762009907
12.570427031
13.4176125257
14.2297783644
15.0033659468
15.7080204171
16.371845809
16.3297814103
16.2275911698
16.4834386598
18.9942375191
22.6669041212
27.8001722893
32.457455012
-0.0411459029902
-0.0720625992861
-0.0593966317266
-0.0101727408336
0.058166286404
0.128207391187
0.190947473079
0.24500315717
0.290697022735
0.32860555048
0.359641774846
0.385217592614
0.407152238463
0.427120574506
0.446543607159
0.4663499263
0.487151320943
0.50923685503
0.532753364821
0.557661750195
0.583896532073
0.611320165875
0.639758430081
0.669005761464
0.698907779023
0.729246886866
0.759866495234
0.790580871704
0.821293364634
0.8518604817
0.882228198295
0.912314408895
0.942106435063
0.971560816246
1.00071171299
1.02958500919
1.05818173612
1.08658600789
1.1148133038
1.14296204688
1.17101546716
1.1990709182
1.22706127561
1.2550350607
1.28286176687
1.31050258752
1.33780077065
1.36461693111
1.39077322062
1.41609227913
1.44039276003
1.46347577363
1.48524439197
1.50549115168
1.52412469336
1.54099627461
1.55612258231
1.56950521615
1.58130503839
1.59246232183
1.60249564322
1.61108681259
1.61790215842
1.62293627117
1.62661577348
1.62941513697
1.63143768428
1.63284902004
1.6339123718
1.63501057206
1.63652332645
1.63885723162
1.64239167203
1.64749057507
1.65457141467
1.66400585796
1.67611851094
1.69115670183
1.70936289582
1.73099038656
1.75624047628
1.78527251687
1.81827165049
1.85547856481
1.89706291686
1.94289027708
1.99272620317
2.04533308892
2.09805547955
2.14762882117
2.1920028808
2.23038659031
2.26006304417
2.27716343642
2.2775255459
2.25709354455
2.21244361713
2.14179174936
2.04680272229
1.93238767721
1.80173325969
1.65677501347
1.51275168514
1.37909803934
1.23504265749
1.09334544038
0.980255439681
0.841754303277
0.652213426665
0.526902260678
0.450388744051
0.314770333379
0.132844335347
-0.0681813282099
-0.151196043873
-0.239010046549
-0.233771187975
-0.237102607086
-0.214673769284
-0.182846247019
-0.184650873492
-0.177774569154
-0.164364961816
-0.146182784024
-0.123632768377
-0.0965444627848
-0.0648420749467
-0.0282546544027
0.0133483892716
0.0602323327627
0.112564187856
0.171020797136
0.236939592306
0.312513466025
0.400752877356
0.505342167637
0.630091988765
0.77601133835
0.939511535812
1.11256760455
1.28778691158
1.46253313906
1.63737875599
1.8139845415
1.99734423975
2.19010706118
2.39455050602
2.61354238109
2.84952384185
3.10501462093
3.38166699158
3.68150873361
4.00563217916
4.35631642004
4.73467572049
5.14360603978
5.58396402769
6.05849953556
6.56635688921
7.10807999535
7.67887338527
8.27720796015
8.89541669986
9.53025666579
10.1746209219
10.827519141
11.5027722195
12.2144593218
12.964982626
13.7674535917
14.6247559982
15.4853257292
16.3324049297
16.7066796024
16.7636603557
16.6117117776
16.440766519
16.9109262997
18.9738746757
21.7046463145
-0.0949897605946
-0.0352538394474
0.0563882703306
0.149415370537
0.233948308429
0.298627857171
0.343939835364
0.376808500535
0.402505097114
0.42375206627
0.442307493249
0.459837836659
0.47803213086
0.498158258596
0.521076913606
0.54711010437
0.576335483098
0.608549206215
0.643515271379
0.68092254062
0.720486280781
0.761870543369
0.804826527421
0.849075971009
0.894373618853
0.940499667853
0.987271914171
1.03450531802
1.08205103192
1.12976964404
1.17754716132
1.22524563493
1.27276800626
1.32002627703
1.36691552058
1.41336213754
1.45930943242
1.50472151135
1.54954399675
1.5938028583
1.63745905792
1.68055753666
1.72305248261
1.7649726875
1.80624874191
1.846858765
1.88670358699
1.92573236917
1.96384086896
2.00090408871
2.03684567533
2.07156504266
2.1049832139
2.13701922863
2.16764653868
2.19688674912
2.22480804376
2.25138575096
2.2772951546
2.30216703196
2.32672225995
2.35139180852
2.37661808426
2.40230849584
2.42812958855
2.45395513615
2.47959336173
2.50470575287
2.52879411187
2.55135459515
2.57185378029
2.58978380992
2.6047096803
2.61627190892
2.62421780625
2.62839883712
2.62876270654
2.62529948657
2.61808914004
2.60726384925
2.59296541139
2.57533508277
2.55453834821
2.53076059335
2.50413482312
2.47472608352
2.44237253412
2.40677431259
2.36633950185
2.31969711648
2.26827244535
2.21424913017
2.15870925456
2.1013362456
2.04092596588
1.97568755148
1.90365581604
1.82324101063
1.73225950391
1.62655727587
1.5026983422
1.369301444
1.23451634533
1.08071802327
0.916883173999
0.790876842385
0.670667170559
0.515327142756
0.393904603616
0.379765872677
0.311429454896
0.202148468497
0.0155053345164
-0.129488364439
-0.15448240749
-0.219105535818
-0.229743422438
-0.276214990608
-0.312433128114
-0.341031436502
-0.371571514971
-0.390099497709
-0.397710022305
-0.396439119381
-0.386841869119
-0.369170940561
-0.343216923069
-0.308964984569
-0.266304796493
-0.21543970073
-0.156444039102
-0.0891543268673
-0.0125610102781
0.0751061982534
0.176685284291
0.295476030577
0.43442038497
0.593230726802
0.767315754189
0.948250499499
1.12909843696
1.30771494251
1.48709812333
1.66690762438
1.85086735596
2.04307026426
2.24596530536
2.46245271922
2.69522687343
2.94657454186
3.21839662797
3.5123382607
3.82982026206
4.17258614352
4.54222390249
4.9411030252
5.37092236146
5.83397884673
6.33066357127
6.86152218263
7.42371585976
8.01542601169
8.62869309462
9.25715775368
9.89330415169
10.5324102358
11.1798056155
11.8450366026
12.5390299394
13.3441026009
14.2936913496
15.3470670209
16.5103575466
17.4558447562
18.1843863895
18.3839602214
16.4042023194
13.4655080609
11.0007554857
7.87988551197
-0.0968071682795
0.193099239384
0.325672287651
0.371970201128
0.394978074661
0.401802957556
0.4005874405
0.399970161842
0.403527824944
0.411212822432
0.422416567682
0.436981681919
0.455223085294
0.477370117801
0.503581451052
0.533738397622
0.567687153283
0.605134187656
0.645848683165
0.689505452831
0.735874458332
0.784681546936
0.835673344901
0.888576463134
0.943148931131
0.999113432527
1.05619249538
1.11412281819
1.17262322865
1.23143076077
1.29026282028
1.3488812243
1.40702230148
1.46444304286
1.52093693163
1.57631453569
1.63039222003
1.68305136448
1.73418021967
1.78371100965
1.83156704211
1.87771771442
1.92209237652
1.96465148285
2.00529902654
2.04395628538
2.08050083472
2.11479916428
2.14669828581
2.17604500261
2.20265420806
2.22633644178
2.24692772604
2.26424991836
2.27814460682
2.28854178949
2.29541424323
2.29883563718
2.29925121204
2.29680322892
2.291117085
2.28218740992
2.27039003276
2.25640888519
2.24088368472
2.22429970881
2.20708188643
2.18966987888
2.17247301944
2.15587557416
2.14020058697
2.12572998137
2.11267106231
2.1011707698
2.09134206136
2.08323624355
2.07685459163
2.07213822545
2.06898498741
2.06723384574
2.0666768024
2.06704321666
2.06805892827
2.06942467262
2.07080634579
2.07164804333
2.07132397979
2.06841272503
2.06061675445
2.04545231467
2.02225397798
1.99154008861
1.95254098104
1.903871058
1.84472338851
1.77525819183
1.69635522409
1.60778444501
1.50704327415
1.39293619912
1.26912939902
1.13654435435
0.980596305818
0.80091087294
0.644500802872
0.509208293386
0.338519280996
0.185888122239
0.133641079514
0.143890068322
0.0855218054929
-0.00521513182622
-0.152394155945
-0.201795277056
-0.224836405197
-0.29377247941
-0.34359714352
-0.406856190404
-0.457159221713
-0.494646321982
-0.521590315828
-0.53484562575
-0.535711272528
-0.526108743444
-0.507241645863
-0.480101563145
-0.445173238103
-0.402981895796
-0.353755793537
-0.297876143684
-0.235308248715
-0.165703424064
-0.087806403727
0.00058753841488
0.1025762446
0.221859139229
0.36077350083
0.5188046292
0.69063476759
0.868518173139
1.04598439878
1.22208676947
1.40002437743
1.57943813692
1.76298947804
1.95532598527
2.15852722341
2.37543349596
2.60848940173
2.85990909321
3.13136053841
3.42447761653
3.74053626244
4.0813405697
4.44846223502
4.84435608869
5.27080726221
5.73015612179
6.22290325068
6.74965621553
7.30784768939
7.89607478464
8.50695262847
9.13430329882
9.77097136226
10.4123675438
11.0610123877
11.7226813228
12.4028850633
13.1926984137
14.1464709856
15.2335463058
16.4866207686
17.6359867648
18.7191010559
19.3425886113
17.2655168387
13.1383673417
8.59263367147
2.14386259432
-0.0101649509008
0.630816165815
0.649829464184
0.531082993279
0.449981782516
0.397394275677
0.366102295027
0.352754989179
0.353592219044
0.364085954405
0.381264677643
0.403555100717
0.430350884581
0.461271077789
0.496124254044
0.534622774541
0.576572915736
0.621686490411
0.669766632231
0.720571545154
0.77391017843
0.829540729264
0.887270788158
0.946856492723
1.00803347059
1.07053333941
1.13404000805
1.19823434556
1.26273833372
1.32720019975
1.39121459265
1.45439909464
1.51636180687
1.57676493276
1.63526463103
1.69159450981
1.74555022838
1.79698663866
1.84582532176
1.89206393221
1.9357401525
1.97693611456
2.01573955734
2.05224162477
2.08650613702
2.11856729031
2.14841646809
2.17602011561
2.20129419165
2.22412216772
2.24437898442
2.26193941693
2.27666613617
2.28839677162
2.29718443728
2.30302084878
2.30598039076
2.30654393275
2.3047225621
2.30111110442
2.29575223322
2.28893376447
2.28053420517
2.27034588203
2.25833871658
2.24446049276
2.22860965766
2.21068078554
2.19059487945
2.16836186526
2.14410035092
2.11806706692
2.0906526122
2.06236373366
2.03376018504
2.00542822479
1.97791229727
1.95164700912
1.92690846772
1.9037956544
1.88223203496
1.86195403015
1.84263558388
1.82391211779
1.80550649779
1.7871655066
1.76851307745
1.74910015308
1.72723515923
1.70138801532
1.67187064699
1.63920570359
1.60262879904
1.56043510529
1.51090228833
1.45242319277
1.3834930772
1.30234164484
1.20912669342
1.10634551561
0.991091270345
0.85465206397
0.696098445856
0.544713781754
0.412004276418
0.245453717405
0.0582474301793
-0.0518347511458
-0.0763059849472
-0.0865239907392
-0.156507461557
-0.231165991166
-0.315294625929
-0.339474512813
-0.384486029746
-0.457733871764
-0.521866949528
-0.585748478911
-0.636524362651
-0.673359040227
-0.69736694764
-0.707925870229
-0.706151821793
-0.693066738205
-0.670052313764
-0.637907038317
-0.597544511458
-0.549362204463
-0.493928799158
-0.431440454086
-0.362093191458
-0.285372837036
-0.20012817378
-0.103975489013
0.00615731979272
0.133610493564
0.279847847051
0.44325338464
0.618111179282
0.796969191172
0.974486964557
1.15036108636
1.32830019649
1.50551746799
1.68780194017
1.87843469241
2.07971977444
2.29441745606
2.52503756569
2.77369017507
3.04216258315
3.33196665047
3.64461253
3.98175285857
4.34529725954
4.73738801824
5.16018941702
5.61550716988
6.10427640329
6.6263408159
7.17986833758
7.76318932594
8.37156265234
8.99999993669
9.64414296729
10.3003013157
10.972057555
11.6607430625
12.3604624848
13.130131158
14.0204281238
15.0087036718
16.1410778329
17.1704912275
18.2348111247
19.1128354298
18.0213214247
14.8291004891
10.9212114161
4.6807040483
0.175731401851
1.2171775749
0.916867456536
0.585497208044
0.431270983428
0.355709863778
0.321075360276
0.309275405272
0.313105786226
0.326753940875
0.347231545243
0.372875640746
0.402943322649
0.436895344325
0.474426327968
0.515186155757
0.558946646736
0.605426700365
0.654430240251
0.705702885366
0.759053419631
0.814251596526
0.871060881967
0.929228122935
0.988476733952
1.04850643013
1.10896788822
1.16952097028
1.22976398925
1.2893186999
1.34776062199
1.40472302403
1.45981685606
1.51271788487
1.56315766346
1.61094360331
1.65595702608
1.69818488607
1.73769917488
1.77463904941
1.80920039123
1.84159591843
1.87203620081
1.9006869305
1.92766247732
1.9529991527
1.97666953082
1.99857197845
2.01854735769
2.03643234543
2.05200435056
2.06506609515
2.07541357372
2.08285575971
2.08731411278
2.08865352905
2.08678561936
2.0817697832
2.07387860672
2.06236341208
2.04719474665
2.02851422301
2.00670067168
1.98221222746
1.95557647192
1.92736234597
1.8981333657
1.86830760764
1.83815329965
1.80780384407
1.77733178955
1.74682611314
1.71643656619
1.6863997525
1.65703700934
1.62871669248
1.60180346854
1.57659904851
1.55326702443
1.53181372898
1.51204636318
1.49362248906
1.47612688803
1.45922839008
1.44278586366
1.42660460282
1.41060205859
1.3939660881
1.37514327804
1.35238476772
1.32545806832
1.2948945286
1.25952928859
1.21748105967
1.16716342431
1.10748923178
1.03790623354
0.958470906993
0.869533090307
0.768673450835
0.651581649043
0.528812400514
0.416593736726
0.314699647988
0.185344826371
0.0281806973133
-0.114201986583
-0.197509081913
-0.246547113754
-0.301406221764
-0.378585869887
-0.448209645666
-0.506847482533
-0.541693760263
-0.597397935223
-0.663824603197
-0.722230691684
-0.773743425928
-0.812555938089
-0.838251456358
-0.851622693658
-0.853003098055
-0.843305013326
-0.823478211938
-0.79470046374
-0.757780108886
-0.713514941258
-0.66227402602
-0.604512195933
-0.540307515812
-0.469627727816
-0.391721796323
-0.304968336806
-0.206699155416
-0.0935306511143
0.0371690863855
0.186270272069
0.350955952378
0.525679697329
0.703342872161
0.879856010833
1.05538655782
1.23308402593
1.40889848292
1.59157415267
1.78258017449
1.98442129551
2.19969945
2.43079450051
2.67973798076
2.94823938896
3.23779898692
3.54990820393
3.88629486024
4.24888868164
4.63991147006
5.06145395048
5.51530201047
6.00229951068
6.5221856617
7.07334192952
7.65431357541
8.262598729
8.89520819869
9.55068354414
10.2264585554
10.9277612512
11.6519529324
12.3842067826
13.1414104963
13.9547306069
14.804562669
15.7368637092
16.5181996078
17.3634042234
18.2803841829
18.3267859554
16.9224514003
14.9700781684
10.9691778401
0.470238753342
1.85272493926
1.0656978053
0.572246858073
0.407303549497
0.336884892795
0.308156771702
0.2965525157
0.299165210545
0.310918259722
0.329878620804
0.354369968544
0.383519545672
0.416574128573
0.453038359192
0.492432971796
0.534437387859
0.578709610137
0.625003705612
0.67305481592
0.722625543174
0.773457029835
0.825292687359
0.877853141763
0.930821182769
0.98388487434
1.03667771423
1.08884481166
1.13998491368
1.18973285429
1.23770426868
1.28356729879
1.32702912012
1.36788612758
1.40600354539
1.44136689306
1.47408007234
1.50434624841
1.53246731524
1.55879928809
1.58372405952
1.60758812033
1.63068292531
1.65319064062
1.67519328715
1.69664915858
1.71743249426
1.73734700223
1.7561503359
1.77359712973
1.78943357297
1.80343760553
1.8153817715
1.82510499337
1.83244020981
1.8372407102
1.83931196208
1.83836577839
1.83430749472
1.82702778669
1.81617352758
1.80119967737
1.78176769999
1.75780465715
1.7294954669
1.69725990627
1.66175180257
1.62366765565
1.58367216328
1.54233682789
1.50017830904
1.45766347812
1.41525586071
1.37340050669
1.33249928841
1.2929117164
1.25496077944
1.21888263768
1.18486721947
1.15297735244
1.12315896472
1.09526041861
1.06914807007
1.0450056378
1.02308537276
1.00410382723
0.988110447244
0.974733648231
0.961746315849
0.946805779142
0.930182941838
0.91117553913
0.887009739584
0.853922021382
0.809200451002
0.751676577976
0.681784125067
0.600159246445
0.50742417577
0.406835601419
0.307281777656
0.228301477838
0.158214407082
0.0774038573062
-0.0350803083379
-0.144113126754
-0.240161058707
-0.331011101219
-0.413276896428
-0.507005723811
-0.603020456489
-0.677892850212
-0.733322196278
-0.777935548271
-0.830816897551
-0.883883560216
-0.928982913381
-0.966096452817
-0.992651915217
-1.00880460134
-1.01452113604
-1.01016591033
-0.995731101994
-0.971913880975
-0.939091248532
-0.898095258969
-0.849304727942
-0.793391966556
-0.730603701281
-0.661314634633
-0.585258361103
-0.501764673984
-0.408927010413
-0.304073629697
-0.184006509829
-0.0468757559105
0.107104608132
0.27450332626
0.449636527731
0.626482793693
0.80198850908
0.977226105823
1.15175747469
1.32605661588
1.50736952611
1.69697244593
1.89742948021
2.11128082313
2.34079644883
2.58800718595
2.85454493079
3.1419808626
3.45176660999
3.78577707777
4.14593067437
4.53464874568
4.95392075839
5.40571738158
5.89072401692
6.40897884535
6.95885942523
7.53947527995
8.14951286176
8.78818926497
9.4556387244
10.1506187268
10.8783291852
11.6342125172
12.398547586
13.1566792408
13.9166532208
14.6589436068
15.4223865143
15.9850126828
16.5872000837
17.3915608426
18.1807693706
18.3134651854
18.2255839373
16.6974727646
0.854604281548
2.42031087538
1.10672723154
0.5613015077
0.424183062066
0.360391824761
0.330950064586
0.311177976183
0.306173832796