/*--------------------------------*- C++ -*----------------------------------*\
| =========                 |                                                 |
| \\      /  F ield         | OpenFOAM: The Open Source CFD Toolbox           |
|  \\    /   O peration     | Version:  v1806                                 |
|   \\  /    A nd           | Web:      www.OpenFOAM.com                      |
|    \\/     M anipulation  |                                                 |
\*---------------------------------------------------------------------------*/
FoamFile
{
    version     2.0;
    format      ascii;
    class       volVectorField;
    location    "22";
    object      Ua;
}
// * * * * * * * * * * * * * * * * * * * * * * * * * * * * * * * * * * * * * //

dimensions      [0 1 -1 0 0 0 0];


internalField   nonuniform List<vector> 
12225
(
(0.287181868084 58.6237986136 0)
(1.0096256637 13.6061614157 0)
(0.797887523572 13.3344213068 0)
(0.904307804698 13.032253876 0)
(0.898734405543 12.6926354029 0)
(0.934097464242 12.3551740451 0)
(0.947776066594 12.004586498 0)
(0.963968497253 11.6866125389 0)
(0.980046622665 11.4159981121 0)
(1.00932677736 11.1957145585 0)
(1.06101161445 10.9917005316 0)
(1.13540180783 10.7385930862 0)
(1.21060741015 10.3657880622 0)
(1.26235385698 9.87445348091 0)
(1.34507566035 9.35647642262 0)
(1.69107497036 8.79015023779 0)
(2.52565821407 7.50761885939 0)
(3.147646395 3.9680135001 0)
(3.11231039191 -51.4765970243 0)
(1.07290930643 -8.79930816088 0)
(1.3832396117 -8.58644362952 0)
(1.33246160902 -8.38369592317 0)
(1.39178614276 -8.17715017035 0)
(1.42088681337 -7.99803772551 0)
(1.45712209337 -7.81732085679 0)
(1.49444404669 -7.63210385247 0)
(1.54062618867 -7.42288384473 0)
(1.60161360071 -7.17410193599 0)
(1.68095844761 -6.87267690965 0)
(1.77090777305 -6.51471006386 0)
(1.85029870019 -6.10805703559 0)
(1.9083731346 -5.66342884859 0)
(2.00309919092 -5.16396682322 0)
(2.28513525245 -4.54875558554 0)
(2.77742887027 -3.80540887826 0)
(2.86029442984 -3.14148898861 0)
(-1.10644334726 39.3859539119 0)
(1.23727797676 4.56773610677 0)
(0.954399589813 4.44221792325 0)
(1.05809538032 4.28603953248 0)
(1.02311172625 4.1428950056 0)
(1.03085526709 3.96838521293 0)
(1.02221457928 3.77315467419 0)
(1.02219521454 3.55312575368 0)
(1.03016183937 3.31069505721 0)
(1.05487644097 3.04739015709 0)
(1.09744091194 2.76122999101 0)
(1.14933946128 2.44580515447 0)
(1.19244329372 2.09385961052 0)
(1.22402912045 1.70964784686 0)
(1.30230193436 1.31263142517 0)
(1.53902995836 0.89000470305 0)
(1.90327393214 0.287530563606 0)
(1.97589724677 -0.685981990013 0)
(2.85669019093 -27.5039659719 0)
(0.865754260614 -2.34378840786 0)
(1.21703998798 -2.26767487657 0)
(1.12786484082 -2.12470871752 0)
(1.17114529226 -1.98354759988 0)
(1.169102045 -1.82969150344 0)
(1.1766932904 -1.66446063424 0)
(1.18288774135 -1.48886808892 0)
(1.19738197193 -1.30408987724 0)
(1.22395608002 -1.11456834051 0)
(1.26271945527 -0.927825882819 0)
(1.30360311782 -0.753670356969 0)
(1.33099024662 -0.596888820555 0)
(1.34583830328 -0.446253868964 0)
(1.39431092755 -0.284878697766 0)
(1.53643126359 -0.157901489659 0)
(1.70330586312 -0.249450589798 0)
(1.64766732584 -0.700405821179 0)
(-0.770857593564 18.5685581963 0)
(1.29764204546 1.31073300985 0)
(0.924804531632 0.873838248198 0)
(1.06770406659 0.864650683442 0)
(1.03376241755 0.718774300046 0)
(1.05400164364 0.62038737317 0)
(1.05590049313 0.512950568021 0)
(1.06725323839 0.417227480399 0)
(1.08537272841 0.326618630097 0)
(1.11681491157 0.239615396117 0)
(1.1599454154 0.148761986919 0)
(1.20653891595 0.04801809682 0)
(1.24654208469 -0.0595898225244 0)
(1.28627593061 -0.152996586383 0)
(1.35893862344 -0.209202102248 0)
(1.48143825566 -0.260176675986 0)
(1.56921589357 -0.417896277118 0)
(1.48147361721 -0.713190698914 0)
(2.32999891505 -12.0932831972 0)
(0.937175133298 -0.77196489262 0)
(1.10074403267 -0.273974211476 0)
(1.06479245992 -0.374876175514 0)
(1.08399401217 -0.302188955471 0)
(1.08717508601 -0.277659324534 0)
(1.09192184911 -0.235653242872 0)
(1.09927283804 -0.193735828164 0)
(1.11268691298 -0.149055230457 0)
(1.13492495198 -0.109161233024 0)
(1.16404865292 -0.0837292476863 0)
(1.19370776002 -0.0822288182309 0)
(1.21979278564 -0.10548119314 0)
(1.25292621129 -0.141882537106 0)
(1.3161623569 -0.184307834642 0)
(1.40425482296 -0.26331609115 0)
(1.44460504735 -0.430681484443 0)
(1.36279047404 -0.64899895239 0)
(0.337290757388 6.33351100111 0)
(1.04319984049 0.308558989521 0)
(1.01364777978 0.0518849190212 0)
(1.04732848675 0.0710563079589 0)
(1.04783076802 0.0158030903547 0)
(1.05990944749 -0.016425674209 0)
(1.06792898101 -0.0473209777121 0)
(1.08114616393 -0.068840091869 0)
(1.0993191292 -0.0827177472586 0)
(1.12394764294 -0.0920428480097 0)
(1.15172003001 -0.10324057011 0)
(1.17737913722 -0.12183622916 0)
(1.19978385397 -0.147633146088 0)
(1.22904292494 -0.176064876335 0)
(1.27788382568 -0.213389349812 0)
(1.33216913323 -0.289981384077 0)
(1.34124247622 -0.428681822514 0)
(1.27095510136 -0.584214128135 0)
(1.25401770824 -2.4900418882 0)
(1.0425691774 -0.10811860998 0)
(1.02492130432 -0.0422043406895 0)
(1.04347101597 -0.0607915532445 0)
(1.04479673142 -0.0582484359891 0)
(1.05372360991 -0.0646016929529 0)
(1.06050444338 -0.0692757395994 0)
(1.07258418954 -0.0746524532376 0)
(1.08938025199 -0.0806108331064 0)
(1.11136259174 -0.0900139310122 0)
(1.13510107982 -0.106210049549 0)
(1.15676844786 -0.130538202374 0)
(1.17675849709 -0.160036675609 0)
(1.20226750339 -0.191711959101 0)
(1.23746112823 -0.233781763192 0)
(1.2664423318 -0.306804050054 0)
(1.25776246736 -0.415964030638 0)
(1.19833955533 -0.526224549098 0)
(0.965822352618 0.627276187485 0)
(1.0173912859 -0.0459787233569 0)
(1.023411136 -0.0404563768178 0)
(1.03560682713 -0.0574304233708 0)
(1.03879474055 -0.0640690319899 0)
(1.04701946973 -0.0735397640956 0)
(1.05416880342 -0.079546165724 0)
(1.06568168856 -0.0851834169261 0)
(1.08089995768 -0.0914328752827 0)
(1.09959998791 -0.101654273313 0)
(1.11888869959 -0.118547903324 0)
(1.13640506495 -0.142543205938 0)
(1.1532197427 -0.171248530957 0)
(1.17344711916 -0.20400372331 0)
(1.19613184124 -0.24807859608 0)
(1.20764756111 -0.314326770347 0)
(1.19014342204 -0.399238623339 0)
(1.14001350324 -0.479195328008 0)
(1.0195750806 -0.156164739617 0)
(1.02275397959 -0.0409776404582 0)
(1.01753911209 -0.0466917304428 0)
(1.03045356616 -0.0579708359732 0)
(1.03282799397 -0.0649676335066 0)
(1.04066628578 -0.0739925990867 0)
(1.04767160518 -0.0808740878928 0)
(1.05838050126 -0.0880621543459 0)
(1.07176195774 -0.0965286485061 0)
(1.08723042715 -0.108958316418 0)
(1.10249978227 -0.127027678609 0)
(1.1162393667 -0.150657027422 0)
(1.12942743095 -0.178446549891 0)
(1.14366330267 -0.211218378671 0)
(1.15578786466 -0.254208570418 0)
(1.15584057596 -0.311716172274 0)
(1.13453047678 -0.377701210995 0)
(1.09201153891 -0.437329642248 0)
(1.00989280842 -0.0423219404001 0)
(1.01839626212 -0.0569987288412 0)
(1.01533290709 -0.0539926972607 0)
(1.02543135333 -0.0657627772976 0)
(1.02795812749 -0.070986187343 0)
(1.03484478384 -0.0792988442489 0)
(1.04143171677 -0.0860556620785 0)
(1.0508710037 -0.0939690748727 0)
(1.06212120531 -0.103731848124 0)
(1.07439547658 -0.117355262387 0)
(1.08602536548 -0.135701606917 0)
(1.09625059881 -0.158488388337 0)
(1.10558449435 -0.185103806099 0)
(1.11396489861 -0.216722851927 0)
(1.11785127364 -0.256394901062 0)
(1.1107294077 -0.304714267606 0)
(1.08827185104 -0.35599038964 0)
(1.05183852087 -0.401188458146 0)
(1.00411399446 -0.0715081072958 0)
(1.01541786501 -0.0611820427229 0)
(1.01168490659 -0.0595385124072 0)
(1.02009278828 -0.069679475444 0)
(1.02241773245 -0.0746846851994 0)
(1.02834122131 -0.0825492302612 0)
(1.03423544246 -0.0896180085436 0)
(1.0422349765 -0.0982338266837 0)
(1.0513893787 -0.108979525887 0)
(1.06087636282 -0.123253167799 0)
(1.0694870257 -0.141477823739 0)
(1.07668021155 -0.163387332952 0)
(1.0825329923 -0.188783564192 0)
(1.08620265397 -0.218698078094 0)
(1.08465162666 -0.254404134694 0)
(1.07381145766 -0.294922230528 0)
(1.05176206639 -0.335651586103 0)
(1.02005167207 -0.371052616362 0)
(1.00268296226 -0.0748426026912 0)
(1.0120347301 -0.0641090068042 0)
(1.00916669335 -0.0618222989241 0)
(1.01548690479 -0.0713256804176 0)
(1.01764688766 -0.0762637832209 0)
(1.02246520803 -0.0840701614123 0)
(1.02747759788 -0.0916183489589 0)
(1.03389320221 -0.100949650796 0)
(1.04093034823 -0.112424411043 0)
(1.04778317143 -0.127013282498 0)
(1.05358019923 -0.144876473665 0)
(1.05788751643 -0.165814604907 0)
(1.06040375251 -0.189800314419 0)
(1.06005351126 -0.21740202508 0)
(1.05452915875 -0.248815760814 0)
(1.04147256789 -0.282548867281 0)
(1.02030874624 -0.315242369316 0)
(0.992436213617 -0.343373466122 0)
(0.999952860421 -0.092563898721 0)
(1.00804640494 -0.0681249712099 0)
(1.00629415658 -0.0666168798016 0)
(1.01037511166 -0.0751232621538 0)
(1.01218140871 -0.0802024756057 0)
(1.01561203333 -0.0878680589231 0)
(1.01940980087 -0.0958508047456 0)
(1.0239195799 -0.105608929101 0)
(1.02860535489 -0.11742835862 0)
(1.03268759986 -0.13180328614 0)
(1.03558206765 -0.148819528603 0)
(1.0368403208 -0.168242505088 0)
(1.03602461904 -0.190125562404 0)
(1.03210660183 -0.214461890839 0)
(1.0235804504 -0.240910155536 0)
(1.00928970389 -0.267951049847 0)
(0.989372088901 -0.293398860105 0)
(0.965018595605 -0.315139588704 0)
(0.997461649879 -0.0845182453558 0)
(1.003417627 -0.0675663865312 0)
(1.00304912341 -0.0667359218808 0)
(1.00459234109 -0.074608425506 0)
(1.00581611242 -0.0800671017978 0)
(1.00754042908 -0.0878320952354 0)
(1.00976408697 -0.0962600113052 0)
(1.012096639 -0.106375744359 0)
(1.01425703332 -0.118261029124 0)
(1.01551984498 -0.132187548578 0)
(1.01548804588 -0.148049540543 0)
(1.01374934738 -0.165720537235 0)
(1.00985034556 -0.185022720999 0)
(1.00307002118 -0.205765861155 0)
(0.992545388288 -0.227252200442 0)
(0.977865613429 -0.248369167499 0)
(0.959446479625 -0.267682511984 0)
(0.938253443255 -0.284065167663 0)
(0.999658703961 -0.112205404683 0)
(0.998468301103 -0.0743664153419 0)
(1.00024696509 -0.0746802330982 0)
(0.998809852947 -0.0812858655432 0)
(0.999121941799 -0.0867770327463 0)
(0.998852448454 -0.0942020372237 0)
(0.999181940173 -0.102511040967 0)
(0.999154890866 -0.112319356341 0)
(0.99872943848 -0.123561334143 0)
(0.997260778481 -0.136333067041 0)
(0.99447398912 -0.150442568384 0)
(0.990024332746 -0.165728929875 0)
(0.983598520591 -0.181930141969 0)
(0.974778535415 -0.198717829002 0)
(0.96319353374 -0.215459853243 0)
(0.948779583861 -0.231368809963 0)
(0.932038506267 -0.245625631625 0)
(0.913698388264 -0.257623155465 0)
(1.00360195678 -0.0241254938591 0)
(0.995228009093 -0.0401165116853 0)
(0.996001174096 -0.0430884000544 0)
(0.9919880307 -0.0499111170843 0)
(0.990817537472 -0.0565937713769 0)
(0.988353191051 -0.0646972225179 0)
(0.986516170711 -0.073742607441 0)
(0.984036288159 -0.083844507017 0)
(0.98106315127 -0.0950174523285 0)
(0.977002238548 -0.107113151929 0)
(0.971708765518 -0.12003390176 0)
(0.964941540911 -0.133495142864 0)
(0.956552618468 -0.147288765386 0)
(0.946381734626 -0.161002517364 0)
(0.93431398181 -0.174224771377 0)
(0.920443559774 -0.186420615999 0)
(0.90520218306 -0.197173822165 0)
(0.889111405325 -0.206160367728 0)
(0.977829495103 -0.393564919055 0)
(0.983597217933 -0.168625596301 0)
(0.99289791795 -0.162691328813 0)
(0.986196248423 -0.162763827458 0)
(0.98343182825 -0.164480746468 0)
(0.978804537007 -0.167353917442 0)
(0.974964313912 -0.171209338795 0)
(0.97039449614 -0.175908206818 0)
(0.965351236365 -0.181430722053 0)
(0.959334815424 -0.187615147992 0)
(0.952306089279 -0.194310007797 0)
(0.944112609495 -0.20125281675 0)
(0.93473307243 -0.208274503161 0)
(0.92417023468 -0.215115878995 0)
(0.912424119623 -0.221477641158 0)
(0.899623741616 -0.227088652377 0)
(0.886121689543 -0.231720378368 0)
(0.872101018137 -0.235231771648 0)
(1.1034447367 0.955874432774 0)
(1.01171567821 0.256284392892 0)
(0.990674475731 0.226541813636 0)
(0.975818644411 0.205664465522 0)
(0.969630137871 0.186615767027 0)
(0.96294267662 0.1678631882 0)
(0.957062745967 0.149366385735 0)
(0.950540360208 0.130945091764 0)
(0.94357101745 0.112637982553 0)
(0.935793568393 0.0944679846492 0)
(0.927217943893 0.0765925649702 0)
(0.917874659068 0.0591126177451 0)
(0.907815045958 0.0423242907039 0)
(0.89713657438 0.026326298634 0)
(0.885865445687 0.0113422621093 0)
(0.874130912703 -0.00251073601992 0)
(0.862275214693 -0.0150663944393 0)
(0.851101146189 -0.0263070347883 0)
(0.675033676749 -2.28269467314 0)
(0.922853150506 -0.514326489311 0)
(0.966795932112 -0.476049259973 0)
(0.970236854331 -0.460537397408 0)
(0.967349176815 -0.444045890085 0)
(0.960518891704 -0.427658240452 0)
(0.95405339478 -0.412126397434 0)
(0.946514760786 -0.397371884998 0)
(0.938417654023 -0.383655211279 0)
(0.929455912602 -0.370871360584 0)
(0.919702855459 -0.35901400945 0)
(0.909153874729 -0.348021189016 0)
(0.897901308541 -0.337940314142 0)
(0.886003584339 -0.328487153116 0)
(0.873488410949 -0.319632345906 0)
(0.860424363736 -0.311295859315 0)
(0.846950024615 -0.303567609595 0)
(0.832065695831 -0.296435395016 0)
(1.65255473766 4.56407705331 0)
(1.04266440734 0.67524241459 0)
(1.00176634344 0.577322282692 0)
(0.971146687039 0.54798066176 0)
(0.968376807623 0.507780898633 0)
(0.962615870736 0.470114946607 0)
(0.957000257694 0.433395441535 0)
(0.950568584368 0.397712139066 0)
(0.943644362701 0.363440104599 0)
(0.936233095034 0.330763505818 0)
(0.928478440305 0.299912636245 0)
(0.920453241037 0.271295522444 0)
(0.912268987355 0.245018008707 0)
(0.904038893659 0.2209718269 0)
(0.895746074981 0.199190075105 0)
(0.88732407273 0.179795862895 0)
(0.878992800838 0.162836011719 0)
(0.872569806675 0.148411202899 0)
(-0.318063278983 -8.52465889029 0)
(0.931300532677 -0.930893414931 0)
(0.926419555709 -0.753775824948 0)
(0.969663584079 -0.750044402777 0)
(0.954320092262 -0.703804936936 0)
(0.945314572554 -0.66813352752 0)
(0.934691723906 -0.632348143825 0)
(0.923068297234 -0.599166876714 0)
(0.911056230498 -0.568459359663 0)
(0.898272320082 -0.540511477533 0)
(0.884934105994 -0.515213594485 0)
(0.871176020768 -0.492609734036 0)
(0.857098315014 -0.472443249661 0)
(0.842776379487 -0.454437945706 0)
(0.828302660565 -0.438323638618 0)
(0.813937455226 -0.424005871671 0)
(0.800049625828 -0.411249265603 0)
(0.784980884305 -0.400061450146 0)
(3.23313558558 14.2686810775 0)
(0.948793462014 1.08676522095 0)
(1.09062678557 0.754377052986 0)
(0.980005709784 0.795356357707 0)
(1.00678076083 0.733121324568 0)
(0.998787104084 0.700558836367 0)
(0.997697722194 0.662736136171 0)
(0.99402089321 0.628582572362 0)
(0.990249491779 0.596128765362 0)
(0.985965318281 0.565949314875 0)
(0.981174637637 0.53791481547 0)
(0.97578500317 0.511898600524 0)
(0.96989648202 0.487980691947 0)
(0.963489309595 0.466069244205 0)
(0.956448888857 0.445914294246 0)
(0.948493137755 0.427222124732 0)
(0.939448757936 0.409721325103 0)
(0.931634206833 0.393226781573 0)
(-2.55305447372 -22.999822108 0)
(1.16748021907 -1.59415987514 0)
(0.807094246776 -1.04311437413 0)
(0.993624140569 -1.15839808765 0)
(0.926578541058 -1.07549433105 0)
(0.927798937133 -1.05381103177 0)
(0.909926816854 -1.01853961131 0)
(0.89602571986 -0.990911975582 0)
(0.880706339464 -0.964362262535 0)
(0.865505633674 -0.939825806398 0)
(0.850511207185 -0.916176153295 0)
(0.83593629804 -0.892764621539 0)
(0.821877386545 -0.86946337538 0)
(0.808510057663 -0.845993970436 0)
(0.795879452932 -0.822107716751 0)
(0.78426094356 -0.797572301947 0)
(0.774077649653 -0.772742209146 0)
(0.762505055565 -0.747816654092 0)
(5.95901288623 33.8249124495 0)
(0.54335889066 2.14714015094 0)
(1.29079635904 1.34618598178 0)
(0.969571649971 1.54173535875 0)
(1.07110023497 1.43011960664 0)
(1.04071168241 1.41494114283 0)
(1.04630303715 1.37222824205 0)
(1.03975269972 1.3394050432 0)
(1.0356893148 1.30476151032 0)
(1.0302128015 1.27136278072 0)
(1.02456487738 1.23811094756 0)
(1.01845130448 1.2050833214 0)
(1.01186329453 1.17186217876 0)
(1.00459565503 1.13804313423 0)
(0.996527335833 1.1032018015 0)
(0.987422841569 1.06711000491 0)
(0.977150162214 1.03039521963 0)
(0.969358838681 0.994022917744 0)
(-4.72055105852 -44.3843061126 0)
(1.79436398251 -2.7001256065 0)
(0.604648152251 -2.03722926535 0)
(1.0469497338 -2.17685877956 0)
(0.890281896358 -2.05292976263 0)
(0.920892517236 -2.02405085382 0)
(0.89389822299 -1.96861087822 0)
(0.884013955736 -1.92511830028 0)
(0.868909988535 -1.8802593144 0)
(0.855549754206 -1.83785608512 0)
(0.842099018882 -1.79627093966 0)
(0.829007784403 -1.75568400841 0)
(0.815930581164 -1.71584907324 0)
(0.802762842433 -1.67653676328 0)
(0.789418010655 -1.63730357514 0)
(0.776438553003 -1.59734569864 0)
(0.765103725797 -1.55557651611 0)
(0.751761271479 -1.51150005417 0)
(6.17874792663 53.7016619564 0)
(0.191735608239 3.14244959924 0)
(1.42353933276 3.02527650885 0)
(0.989787018372 2.94469161922 0)
(1.13368557174 2.85446061176 0)
(1.0812275472 2.77611745516 0)
(1.09046539127 2.69647169288 0)
(1.07864365672 2.62233720282 0)
(1.07271571233 2.5504230476 0)
(1.06436996616 2.48201988643 0)
(1.0564992869 2.41657372054 0)
(1.04813176689 2.35421682537 0)
(1.03960177279 2.29477055496 0)
(1.03101886992 2.23856589834 0)
(1.02275658732 2.18582233478 0)
(1.01531046752 2.13646217782 0)
(1.00860488299 2.08960116498 0)
(1.00609988419 2.04324977872 0)
(-3.49502653854 -62.6191429009 0)
(1.63540137672 -4.40780902869 0)
(0.685574992219 -4.56400209537 0)
(1.00550402979 -4.26746991957 0)
(0.888283675994 -4.16350020993 0)
(0.910183976981 -4.00924046792 0)
(0.888491827844 -3.8805756837 0)
(0.880615737836 -3.7513987033 0)
(0.868405005423 -3.62954491583 0)
(0.857951051983 -3.51246478856 0)
(0.84745105698 -3.40099989863 0)
(0.837442873358 -3.29525236488 0)
(0.827780448911 -3.19526860132 0)
(0.818554878784 -3.10118800703 0)
(0.809558935141 -3.01334224568 0)
(0.800590496651 -2.93286984585 0)
(0.791301172399 -2.86190015199 0)
(0.775368998131 -2.80373285182 0)
(4.24481105556 68.8293313819 0)
(0.737220244287 6.97570708945 0)
(1.39533212128 7.25616700472 0)
(1.16491081168 6.78795581888 0)
(1.23166457419 6.56478557089 0)
(1.20376644061 6.28790866152 0)
(1.20498629521 6.04254570303 0)
(1.19612084017 5.80141208045 0)
(1.18931843186 5.57265562925 0)
(1.18094632266 5.35298857968 0)
(1.17218043191 5.14263277829 0)
(1.16248502225 4.94061093454 0)
(1.15207657481 4.74681137367 0)
(1.1409129607 4.56116196338 0)
(1.12862131678 4.38378014011 0)
(1.11436278122 4.21458440546 0)
(1.09632632219 4.05420574728 0)
(1.07979002197 3.90691897874 0)
(-0.0808699636846 -68.8624817871 0)
(0.903330739358 -9.8152194253 0)
(0.584850106653 -9.75652326578 0)
(0.677870617041 -9.20542249934 0)
(0.640989853658 -8.87123003547 0)
(0.64925915581 -8.5002337127 0)
(0.642187193386 -8.15814648962 0)
(0.639858820316 -7.8232507847 0)
(0.635772606644 -7.50153000068 0)
(0.631967951121 -7.19078131948 0)
(0.627848673444 -6.89162470909 0)
(0.623563628832 -6.60349730177 0)
(0.619384214751 -6.32583652179 0)
(0.615647229189 -6.05697404673 0)
(0.612179428934 -5.79448758451 0)
(0.609083331039 -5.53603161655 0)
(0.609186732419 -5.27695045292 0)
(0.61345667974 -4.99890740142 0)
(0.0884674895403 -0.0112765800395 -6.81513710012e-18)
(0.0794207952111 0.0103467276411 0)
(0.0318288850389 0.0420924287745 0)
(-0.000940047014612 0.0920065532114 0)
(-0.0237724326981 0.150989946397 0)
(-0.0553614064243 0.165516130767 3.25016392865e-18)
(-0.0822925521232 0.169057429781 0)
(-0.104024274655 0.168621698674 0)
(-0.123465325257 0.166031483793 -1.21614238499e-18)
(-0.142269797214 0.16303706554 0)
(-0.160902140139 0.16134727681 8.33376042424e-19)
(-0.179136664883 0.162528207686 0)
(-0.196254823547 0.167588990983 6.25866168381e-19)
(-0.211637088746 0.177030106924 5.54781681384e-19)
(-0.224796240705 0.190766931977 0)
(-0.235618868425 0.208379882939 -4.50320608241e-19)
(-0.244233868454 0.229209502639 -4.11015470359e-19)
(-0.250969001941 0.252565709195 -3.7780382133e-19)
(-0.256233317354 0.27777369751 0)
(-0.260455728298 0.304285353359 0)
(-0.264024573459 0.331664299242 0)
(-0.267243914136 0.359594868812 0)
(-0.27035263753 0.387844727745 0)
(-0.273509413459 0.416271544749 0)
(-0.276787792843 0.444755797079 2.41346832346e-19)
(-0.280243881546 0.473217986817 2.2984457606e-19)
(-0.283872015904 0.501591013993 0)
(-0.287666268704 0.529814193547 -2.10286620278e-19)
(-0.291557371295 0.557818709576 -2.0195014831e-19)
(-0.295517047043 0.585529232417 -1.94424513556e-19)
(-0.299464799714 0.612872742775 0)
(-0.303363505678 0.639753867313 0)
(-0.307137630735 0.666091207736 1.75863728823e-19)
(-0.310745382446 0.691774169717 0)
(-0.314116122498 0.716715546751 0)
(-0.317203415729 0.740778376018 1.61989637313e-19)
(-0.319969060697 0.763869423387 0)
(-0.322360558429 0.78584357524 0)
(-0.324352632142 0.806592912047 0)
(-0.325896113348 0.825960373726 0)
(-0.326986325021 0.843826645268 0)
(-0.327575384809 0.86002676573 -2.8749353206e-19)
(-0.327677798619 0.874425667717 0)
(-0.327253694018 0.886857678088 0)
(-0.326336033243 0.897173935304 -2.75772986829e-19)
(-0.324902409311 0.905223136438 -2.72570649446e-19)
(-0.322985759109 0.910843957027 0)
(-0.320590946934 0.913904611184 0)
(-0.317754932229 0.914253030978 -2.64686912557e-19)
(-0.314495913186 0.911781492465 0)
(-0.310843760486 0.906338877143 2.60661992325e-19)
(-0.306832397659 0.897845600163 0)
(-0.302462968753 0.88615362428 -2.57477746474e-19)
(-0.29777594105 0.871173961713 0)
(-0.292783449838 0.85277189968 -2.55052635732e-19)
(-0.287514191074 0.830859897123 -2.54108716186e-19)
(-0.281958045337 0.805292603966 0)
(-0.276140184244 0.775957321252 0)
(-0.270047004065 0.742691390539 0)
(-0.263683528386 0.705325097826 -2.52047674287e-19)
(-0.257008948872 0.663575672537 0)
(-0.249888824186 0.616701939841 0)
(-0.242428315221 0.564674424518 0)
(-0.234677750958 0.507609697091 0)
(-0.226712783485 0.445803348752 0)
(-0.218521258632 0.379610889649 0)
(-0.210117845338 0.309346998637 0)
(-0.201501499792 0.235372054968 2.5466201102e-19)
(-0.192733615007 0.158049292475 0)
(-0.183842198052 0.0778480228441 2.56699357918e-19)
(-0.174877608268 -0.00478941911877 2.57879282579e-19)
(-0.165851234061 -0.089316466143 0)
(-0.15678407445 -0.175266036356 -2.60509834852e-19)
(-0.147678352314 -0.262062630768 0)
(-0.138523868495 -0.349254105432 2.63430003477e-19)
(-0.129318364811 -0.436285007838 0)
(-0.12005404025 -0.5227198944 -2.66565804788e-19)
(-0.110747681066 -0.608019747583 2.68197552588e-19)
(-0.101424482104 -0.69174041251 0)
(-0.0920934876641 -0.773305525435 0)
(-0.0827699081742 -0.852240599606 0)
(-0.0734780744762 -0.927934563469 0)
(-0.0642544935917 -0.999867042235 2.76938484632e-19)
(-0.0550933932626 -1.0673762695 -2.78853383709e-19)
(-0.0459779990877 -1.1299626801 5.6172658106e-19)
(-0.0369246074341 -1.18701394546 5.66010947823e-19)
(-0.027911489037 -1.23811017011 5.70641575528e-19)
(-0.0190238444716 -1.28276115849 0)
(-0.0102840665661 -1.32060852282 0)
(-0.00189760253578 -1.35136571099 0)
(0.00636107358604 -1.37475623184 5.95390502995e-19)
(0.0150053515439 -1.39110036278 0)
(0.0244149446372 -1.40116132276 0)
(0.0348345609169 -1.40615907515 6.25697569579e-19)
(0.0465003581913 -1.40760231966 0)
(0.0596697975691 -1.40738062401 -6.55090899381e-19)
(0.074622203008 -1.40758811906 0)
(0.0916696135846 -1.4106075638 6.95296890633e-19)
(0.11112735567 -1.41910710347 0)
(0.133177135456 -1.43621229761 0)
(0.157890052809 -1.46515357722 0)
(0.186153378943 -1.50914981761 8.27388423032e-19)
(0.219144635538 -1.57163511846 0)
(0.257203212772 -1.65517210788 9.3434536366e-19)
(0.302089348238 -1.75838956871 1.00314317402e-18)
(0.356352577124 -1.87496580096 0)
(0.4123332048 -1.99726720822 0)
(0.465856611143 -2.10545157873 0)
(0.531687600266 -2.17962944297 1.44896616863e-18)
(0.590567497831 -2.22523666322 0)
(0.612510503921 -2.27591258584 0)
(0.640156322298 -2.32551389367 2.13992938907e-18)
(0.701590781656 -2.34420516363 2.51105865689e-18)
(0.83035693904 -2.2955371623 0)
(0.922006424444 -2.11305841892 -3.68088351764e-18)
(0.931603299806 -1.93711571498 -4.64830894883e-18)
(0.699046545445 -1.59218250947 6.07172960469e-18)
(0.440830949564 -1.36298635708 0)
(0.15031565685 -1.4031036618 0)
(-0.289871481794 -0.638656435417 0)
(-0.284448669085 -0.182187944421 -6.75855911506e-18)
(-0.310483345527 0.0814509155014 0)
(-0.325535309356 0.26211044319 -4.12987645199e-18)
(-0.338865206835 0.391739104897 0)
(-0.35369861249 0.482587633338 0)
(-0.370654190801 0.542004980156 0)
(-0.389947420842 0.573290511436 2.77869342277e-18)
(-0.411436533467 0.579549774485 2.63452779437e-18)
(-0.43518652248 0.561721954185 0)
(-0.461125623015 0.521620550096 0)
(-0.489458895559 0.459563771233 0)
(-0.520425051647 0.377335887765 0)
(-0.55480056508 0.275605258432 0)
(-0.593562777422 0.15678516046 0)
(-0.637902715928 0.0221018087612 4.50082270135e-18)
(-0.689339122278 -0.125467123882 0)
(-0.749233542319 -0.28428806783 0)
(-0.818349614354 -0.451857061025 0)
(-0.895038114484 -0.626349853389 -4.54861584851e-18)
(-0.976164294456 -0.80461436406 -4.59505706383e-18)
(-1.05715000487 -0.983371776654 4.64583704009e-18)
(-1.13809971779 -1.16225097066 4.7082920427e-18)
(-1.21952333963 -1.34112174075 0)
(-1.30331484129 -1.52189106733 0)
(-1.39070969216 -1.70613776142 0)
(-1.48304428969 -1.89610322701 5.07054252206e-18)
(-1.5814812685 -2.09289271184 0)
(-1.68762931423 -2.29880858473 0)
(-1.80274509611 -2.51461243691 -5.45389167786e-18)
(-1.92848187836 -2.74263694402 0)
(-2.06580462584 -2.98279797338 -5.75635193418e-18)
(-2.21634067885 -3.23705369324 0)
(-2.38077324552 -3.50376345848 -6.08867022634e-18)
(-2.56100536459 -3.78428659296 0)
(-2.75762475742 -4.07514512317 0)
(-2.97290628756 -4.37753028585 0)
(-3.20699479742 -4.68604836585 0)
(-3.46202510418 -5.00208959963 0)
(-3.73721722088 -5.31797783106 0)
(-4.03436945227 -5.6358902718 0)
(-4.35053919662 -5.94437138557 0)
(-4.68686668481 -6.2429355219 -7.39673689746e-18)
(-5.04003824915 -6.51383643776 0)
(-5.4120385471 -6.75878440084 0)
(-5.79887691762 -6.95748370851 -7.22316614336e-18)
(-6.19224316322 -7.11413314968 0)
(-6.58411449207 -7.19288934558 0)
(-6.97701661589 -7.22354013003 -6.14510681543e-18)
(-7.35472745303 -7.21135373604 0)
(-7.69221670435 -7.1796363361 0)
(-7.9837213312 -6.98255379705 -3.51953911244e-18)
(-8.23787004139 -6.60049004474 2.15123240272e-18)
(-8.69522547137 -5.87750430287 -4.72328074397e-19)
(-9.16730073193 -4.93388388492 0)
(-9.6000401471 -2.94065866062 0)
(-10.1830584514 0.552940597611 1.39131628169e-17)
(-11.3117258708 5.31644586182 0)
(-12.3219166848 7.12669540495 -2.94711304882e-17)
(-12.6922051614 6.38601642461 -3.9809239953e-17)
(-7.18378013742 -0.72346963764 0)
(0.000230264350207 -0.0253848133375 2.10809616957e-17)
(0.0387639719573 0.154790998488 0)
(0.0122827273337 0.196546635065 -5.44773448996e-18)
(-0.0207501993632 0.157733862253 3.62901619002e-18)
(-0.0316844021368 0.100496013182 2.71634097259e-18)
(-0.0243590299406 0.0482547070856 -1.120411069e-18)
(-0.00979304351839 0.00739871604059 -1.90303091253e-18)
(0.00455262406478 -0.0239630214191 0)
(0.0157338383017 -0.0484646932695 7.1557560358e-19)
(0.0228175362227 -0.0681560362142 -1.25987851551e-18)
(0.0258767525838 -0.0846625661198 -1.6855871075e-18)
(0.0256057654905 -0.099099097114 1.0102585488e-18)
(0.023005171457 -0.11231416656 -1.37573712218e-18)
(0.018969159164 -0.124917423715 -4.1978820052e-19)
(0.014210520034 -0.137442814866 0)
(0.00916122338484 -0.15032048741 3.57218051448e-19)
(0.0040667226529 -0.163920304875 3.32171775656e-19)
(-0.000977486605664 -0.178496120036 3.10317238458e-19)
(-0.00595143872408 -0.19421783361 -5.80056636951e-19)
(-0.0108577676387 -0.211136379758 0)
(-0.0157190001487 -0.229237321483 -5.16123578194e-19)
(-0.0205486196265 -0.248416377819 0)
(-0.0253352866485 -0.268547332979 4.65363104957e-19)
(-0.0300521664462 -0.289456597333 0)
(-0.0346543079638 -0.310981142888 -6.37747358072e-19)
(-0.0390888335866 -0.332946643311 2.02449724608e-19)
(-0.0432783693916 -0.355197574413 3.91168579716e-19)
(-0.0471593431744 -0.377588359568 5.6631557149e-19)
(-0.0506370207009 -0.39998788787 1.82988733667e-19)
(-0.0536425224217 -0.422293415747 1.77098821998e-19)
(-0.0560855964498 -0.444395956819 0)
(-0.057910896972 -0.466227428912 3.31535751965e-19)
(-0.0590421234901 -0.487691358816 -1.62468733114e-19)
(-0.0594255922768 -0.508740259235 0)
(-0.0590105575052 -0.529283230903 0)
(-0.0577595911928 -0.549281564127 -1.51494603487e-19)
(-0.0556440307038 -0.568642291005 0)
(-0.0526382522112 -0.587318961367 0)
(-0.0487371489396 -0.605213450104 0)
(-0.0439218384546 -0.622263535457 0)
(-0.0382047967441 -0.638364721137 0)
(-0.0315773212395 -0.653433175045 -2.69341627941e-19)
(-0.0240668924374 -0.667361886056 -5.37276281485e-19)
(-0.0156766354334 -0.6800435805 0)
(-0.00644685501785 -0.691374698496 -2.60379693536e-19)
(0.00360254937137 -0.701225061726 2.63349831774e-19)
(0.0144248727277 -0.709498616644 0)
(0.025988108539 -0.716051061665 0)
(0.0382422222409 -0.720792114765 7.67893931087e-19)
(0.0511330321421 -0.723567861119 5.07243400825e-19)
(0.0646216574341 -0.724293039103 -2.55138891749e-19)
(0.078661888075 -0.722811411652 -5.0267665369e-19)
(0.0932185846467 -0.719035043601 -2.47699174679e-19)
(0.108242505728 -0.71281629631 0)
(0.123706174303 -0.704057272396 7.50595424858e-19)
(0.139569079189 -0.692605424514 2.51720274923e-19)
(0.155813305658 -0.678346336129 0)
(0.172398108976 -0.66111968997 -4.97519644225e-19)
(0.189278548432 -0.64077311037 4.97871049759e-19)
(0.206418529016 -0.616790724053 2.51969580758e-19)
(0.223779071302 -0.588463219041 0)
(0.2411914277 -0.555298928841 0)
(0.258728930063 -0.517505635537 0)
(0.27642861133 -0.475347344374 -5.00676779728e-19)
(0.294244240301 -0.429127023673 0)
(0.31206558178 -0.379145554399 5.03569294228e-19)
(0.329785267187 -0.325794942301 0)
(0.347346672173 -0.269463903822 2.51085467471e-19)
(0.364678580153 -0.210624296979 0)
(0.381712442308 -0.149662211065 2.53644246547e-19)
(0.398361199514 -0.0870469746493 2.55093673403e-19)
(0.414540588177 -0.0231226005332 0)
(0.430166505862 0.0416612394892 2.63581489609e-19)
(0.445157706307 0.10699947184 0)
(0.459446320915 0.172459704345 -2.67085050172e-19)