/*--------------------------------*- C++ -*----------------------------------*\
| =========                 |                                                 |
| \\      /  F ield         | OpenFOAM: The Open Source CFD Toolbox           |
|  \\    /   O peration     | Version:  v1806                                 |
|   \\  /    A nd           | Web:      www.OpenFOAM.com                      |
|    \\/     M anipulation  |                                                 |
\*---------------------------------------------------------------------------*/
FoamFile
{
    version     2.0;
    format      ascii;
    class       volScalarField;
    location    "2";
    object      p;
}
// * * * * * * * * * * * * * * * * * * * * * * * * * * * * * * * * * * * * * //

dimensions      [0 2 -2 0 0 0 0];


internalField   nonuniform List<scalar> 
12225
(
-2.37590533203
-2.75752114372
-3.01397415697
-3.19508982401
-3.33022868745
-3.43449426204
-3.51698077736
-3.58342126029
-3.6373759684
-3.68091309046
-3.71508616082
-3.74020867029
-3.75605057955
-3.76189462933
-3.75650586636
-3.7379845667
-3.70319044705
-3.64691406646
-2.48342971438
-2.79754781941
-3.03695542273
-3.20996555138
-3.34028194172
-3.44159378556
-3.52226445616
-3.58759498332
-3.64088531341
-3.6840500255
-3.71805310259
-3.74316273634
-3.75913121365
-3.76525112489
-3.76033540793
-3.74263172081
-3.71012212015
-3.6686865104
-2.58329170641
-2.83080828072
-3.04898884935
-3.21383831887
-3.34042700316
-3.44017267085
-3.52042398125
-3.58593785444
-3.6397203428
-3.68354106901
-3.71830596471
-3.74428523126
-3.7612749894
-3.7686614516
-3.76543815666
-3.750252241
-3.72185209453
-3.68352776801
-2.67439058826
-2.86928036778
-3.0657383463
-3.22240855257
-3.34556427863
-3.44397602454
-3.52393029244
-3.58966488806
-3.64392928199
-3.6883862151
-3.72391979787
-3.75083857238
-3.76902263774
-3.77800203662
-3.77701276256
-3.76511051639
-3.7415198313
-3.70738405495
-2.75849738857
-2.91228993394
-3.08654330776
-3.23367193586
-3.35243785774
-3.44879444969
-3.52789570822
-3.59343994318
-3.64790967586
-3.69285321545
-3.72912978205
-3.75708781655
-3.77670114142
-3.78766070814
-3.7894608929
-3.78154090074
-3.76353556623
-3.73592410851
-2.83645969597
-2.95828833046
-3.11097609306
-3.24760920645
-3.36129546562
-3.45519316604
-3.53323904612
-3.5985424632
-3.65328809744
-3.69888934327
-3.73617010275
-3.76551608516
-3.78700090517
-3.80048618726
-3.8057280154
-3.80252737209
-3.79093597508
-3.77163001585
-2.90899866711
-3.00608873371
-3.13869039971
-3.26429734758
-3.37231689437
-3.46335884542
-3.54010969593
-3.60505352806
-3.66005438049
-3.70637746388
-3.74480620727
-3.77576464704
-3.79943128422
-3.81584284468
-3.82500949348
-3.82706429467
-3.82244985927
-3.81220120973
-2.9767341049
-3.05474324056
-3.16922470984
-3.28368573026
-3.38558644628
-3.473413146
-3.54864156149
-3.613116079
-3.66836537555
-3.71549652434
-3.75524718383
-3.78807758366
-3.81426958695
-3.83402793815
-3.84759466017
-3.85538868867
-3.85817289034
-3.85722824951
-3.04018977449
-3.10350869514
-3.20205691947
-3.30563222514
-3.40113836384
-3.48545802831
-3.55896554191
-3.62287564219
-3.67837527185
-3.72640496366
-3.76765022836
-3.80260094219
-3.83163338507
-3.85510262439
-3.87344772494
-3.88731167779
-3.89767907688
-3.90593394718
-3.09978478294
-3.15180112582
-3.23663381275
-3.32990328069
-3.4189379367
-3.49955162908
-3.571182704
-3.63445402552
-3.69021476466
-3.73923413858
-3.78213843166
-3.81943717007
-3.85158535297
-3.87906179117
-3.90245801744
-3.92257238408
-3.94051462416
-3.95761904327
-3.15584963471
-3.19915989208
-3.27239125923
-3.3561736613
-3.43886186717
-3.51568586714
-3.58534693811
-3.64793891413
-3.70398797833
-3.75409162593
-3.79880839935
-3.83865443449
-3.87414143954
-3.90583928728
-3.93444183881
-3.96083348758
-3.9861556909
-4.01161342755
-3.20428605509
-3.24144917808
-3.30580852057
-3.3817670034
-3.45890104192
-3.53227162712
-3.60009541952
-3.66205501397
-3.71840363466
-3.76958261216
-3.81608144047
-3.85840647819
-3.89709754075
-3.93277221679
-3.9661731302
-3.99820493522
-4.02998091678
-4.06251941425
-3.24986832221
-3.28216059981
-3.33908025334
-3.40809882577
-3.48007511614
-3.55013521663
-3.61616938915
-3.67752391542
-3.7342082284
-3.78651516278
-3.83486028326
-3.87972369595
-3.92165440263
-3.96128974881
-3.99938052247
-4.03681451255
-4.07462718701
-4.1136613713
-3.29862553504
-3.32663199978
-3.37666837511
-3.43891226089
-3.50561716204
-3.57218523262
-3.63630919214
-3.69705092983
-3.75418546189
-3.80785032794
-3.85836645382
-3.90617564191
-3.95180395257
-3.99587657941
-4.03911356332
-4.08233280245
-4.12645758705
-4.17208242814
-3.34956981225
-3.37399548821
-3.41801429398
-3.47403331029
-3.53568119759
-3.5988018786
-3.66103921025
-3.72124617196
-3.77899489808
-3.83426098993
-3.88726880049
-3.93837852292
-3.9880746961
-4.03691657552
-4.0855537828
-4.13468075239
-4.18506012053
-4.23702695962
-3.40105876032
-3.42268555255
-3.46182783284
-3.51259286671
-3.56982593626
-3.62989618796
-3.69051971539
-3.75043399645
-3.80904399879
-3.86618654022
-3.92195461513
-3.97662633496
-4.0305791575
-4.08428852146
-4.13826140125
-4.19305635936
-4.24922144821
-4.30685432165
-3.45037987758
-3.47005649163
-3.50571576031
-3.55263938509
-3.60660992988
-3.6644846824
-3.72412062181
-3.78421056132
-3.84404682903
-3.90333371578
-3.96204712467
-4.02033774949
-4.0784699411
-4.13677265106
-4.19561243918
-4.2553545517
-4.31637084402
-4.37849862746
-3.49294873471
-3.51162034854
-3.5454894177
-3.59048589783
-3.64294809307
-3.70005836563
-3.75979548954
-3.82084418326
-3.88242613577
-3.94414305415
-4.00585929462
-4.06759955246
-4.12949943019
-4.19173886021
-4.25453334389
-4.31807718338
-4.38258182659
-4.44770392884
-3.52067164208
-3.53957656153
-3.57393700003
-3.61970840921
-3.67325952948
-3.73180181842
-3.79333177203
-3.85652894349
-3.92058710913
-3.98505220455
-4.04971423061
-4.11449904102
-4.17943370296
-4.24456902375
-4.30999372733
-4.37576297269
-4.44196431947
-4.50813231725
-3.51863815178
-3.5394423274
-3.57729774465
-3.62727687079
-3.68506365565
-3.74750738038
-3.81252766555
-3.87881887212
-3.94566344693
-4.01263544227
-4.07957472558
-4.14637272518
-4.21305401583
-4.27959228795
-4.34605091735
-4.41239629104
-4.47868961547
-4.54439803156
-3.49824574736
-3.52200303196
-3.56513469543
-3.62113437934
-3.68454959892
-3.75177962679
-3.82067503408
-3.89009363447
-3.959436536
-4.02845802909
-4.09703408576
-4.1651618872
-4.23282249937
-4.30005778215
-4.36684511687
-4.43321492539
-4.49913230006
-4.56416138149
-3.46358262147
-3.49192676922
-3.54277035636
-3.60692660567
-3.67740148612
-3.75017990321
-3.82326894135
-3.89580632945
-3.96749004317
-4.03825755914
-4.10814466634
-4.17721075245
-4.24550207115
-4.31305722971
-4.37987808884
-4.44596678455
-4.51131450004
-4.57546160028
-3.41744753684
-3.45266507938
-3.51411960636
-3.58847089654
-3.66700936746
-3.74565177218
-3.82287405377
-3.89830940029
-3.97203138763
-4.04423743354
-4.11513449531
-4.18487086124
-4.2535693352
-4.32126347215
-4.38799861278
-4.45372488827
-4.51847854974
-4.58177136879
-3.36164096207
-3.40705527506
-3.48249971817
-3.56879432525
-3.65587303875
-3.74024719709
-3.82125168175
-3.89918709959
-3.97457182253
-4.04788796974
-4.11951299059
-4.18970830745
-4.25863371823
-4.32637386401
-4.39293238546
-4.45828379193
-4.52238745999
-4.58478432588
-3.29723885503
-3.35767982523
-3.45076686608
-3.55015073268
-3.64563471591
-3.73521820095
-3.81944849831
-3.89939725793
-3.97605204794
-4.05018004847
-4.12232688654
-4.19285525085
-4.26197630008
-4.32979234325
-4.39630884698
-4.46145818272
-4.52513158984
-4.58682846046
-3.22478349014
-3.30713755452
-3.42130966666
-3.53403561965
-3.63720710517
-3.73119907891
-3.81796217354
-3.89935034017
-3.97679790228
-4.05133125745
-4.12365328039
-4.19421397642
-4.26327359151
-4.33096274011
-4.39729562985
-4.46216785359
-4.52535322255
-4.58607296828
-3.14444846404
-3.25820377536
-3.39592603897
-3.52121065868
-3.63100186702
-3.7286351465
-3.81747198876
-3.90008157032
-3.97828297867
-4.05331339894
-4.12598696118
-4.19682684683
-4.26610905405
-4.33399967089
-4.40053902239
-4.46562607089
-4.5289516891
-4.58939368102
-3.05620182512
-3.21395859321
-3.37571048123
-3.51141671804
-3.62588666719
-3.72557089037
-3.81516173344
-3.89790406156
-3.97597417465
-4.05079171033
-4.12327137986
-4.1939623173
-4.26316642135
-4.33106206129
-4.3977325789
-4.46314756859
-4.52702536379
-4.58774845042
-2.95943075179
-3.17763932089
-3.36368130945
-3.50956215209
-3.62891269187
-3.73085248157
-3.82127049642
-3.90407612844
-3.9818273838
-4.05616336023
-4.12811761596
-4.19830276403
-4.26705960478
-4.33459958034
-4.40106757186
-4.46659666318
-4.53135805821
-4.59453768505
-2.85265614248
-3.13384661443
-3.33819405247
-3.49294977083
-3.6177112384
-3.72308686524
-3.81571422822
-3.89995619585
-3.97865438452
-4.05362696888
-4.12601573982
-4.1965027126
-4.26548148139
-4.33319980942
-4.39984430855
-4.46565366988
-4.53116466794
-4.59884377946
-2.80380616709
-2.80920549806
-2.81534264378
-2.82677285905
-2.84996383233
-2.89054543166
-2.94993691909
-3.02886585709
-3.12783681223
-3.24702804644
-3.38636947113
-3.54555253075
-3.72411133378
-3.92142032309
-4.1367751223
-4.36937763611
-4.61841277822
-4.88301903777
-5.16236175619
-5.45558927095
-5.76190110802
-6.08049181801
-6.41061956581
-6.75153765604
-7.10256210126
-7.46299499867
-7.83219331342
-8.20948426979
-8.59423904237
-8.9857783418
-9.38344758135
-9.78651372278
-10.1942466173
-10.6058012761
-11.0202970846
-11.4366894335
-11.8538537791
-12.270436373
-12.6849327346
-13.0955181206
-13.5001280515
-13.8962796966
-14.2811357809
-14.6512901647
-15.0028298845
-15.3311207641
-15.6309159751
-15.8961856582
-16.1201121399
-16.2948392906
-16.4117967531
-16.462098113
-16.4371211726
-16.3284084742
-16.1281158791
-15.8291729769
-15.4257263015
-14.9134909041
-14.2904998839
-13.5568668578
-12.7149449014
-11.7692354944
-10.7266775157
-9.59643595191
-8.3900302737
-7.12083287564
-5.80391680856
-4.45526252742
-3.09139094622
-1.72846159443
-0.381908124278
0.934337813225
2.20801640312
3.42903973232
4.58940010162
5.6834144941
6.70738675124
7.65956774349
8.5397750241
9.34933693684
10.0905546578
10.7665678085
11.381223622
11.9389425109
12.443612209
12.899046657
13.3106898731
13.6842441109
14.0214628883
14.3230026862
14.5946407691
14.8435033587
15.0700640499
15.2703109947
15.4469407905
15.6089164435
15.7604106503
15.8999070609
16.0207860583
16.1216073536
16.2109152005
16.295381176
16.3730918557
16.4410455813
16.4992425622
16.5487171171
16.5905361215
16.6253075077
16.6537007779
16.6769862506
16.6961196152
16.7118375247
16.7247085631
16.7352031058
16.7436994139
16.7505333147
16.7559784821
16.7602916347
16.7636834226
16.7663523313
16.7684409392
16.7700759206
16.7713480684
16.7723689042
16.7732281292
16.7740322578
16.7748413515
16.7757238527
16.7767013774
16.7778115386
16.7790514642
16.7804396749
16.7819582794
16.7836130543
16.7853770704
16.7872472913
16.7891917637
16.7912011862
16.7932454159
16.7953095931
16.7973531928
16.7993333722
16.8011947425
16.802892323
16.8043887495
16.8056586121
16.8066674892
16.8073954467
16.8078350817
16.8079627744
16.807738378
16.8071281236
16.8061048409
16.8046523268
16.8027613079
16.8004341577
16.7976839633
16.7945333394
16.7910073515
16.7871409529
16.7829819091
16.7785971203
16.7740726706
16.7695048274
16.7650444013
16.7608963425
16.7572736355
16.754426736
16.752673971
16.7524303187
16.7542728033
16.7589857223
16.7676083281
16.78153963
16.8026851743
16.8336504304
16.8780309344
16.9408416795
17.0296986726
17.1454880539
-2.77143968434
-2.78649337398
-2.80419052233
-2.82152581031
-2.84878626416
-2.89256532324
-2.95469015588
-3.0363477639
-3.13813850657
-3.26023411616
-3.40251002205
-3.56459385166
-3.74595065756
-3.94590206074
-4.16369659546
-4.39851110535
-4.64951042096
-4.91583403658
-5.19664792556
-5.4911191175
-5.79846110811
-6.1178981006
-6.44870719634
-6.79017595419
-7.14164184106
-7.5024421396
-7.87195394338
-8.24954179204
-8.63459677368
-9.02647677748
-9.42454706242
-9.8281173036
-10.2364796618
-10.648835219
-11.0643308109
-11.4819777259
-11.9006838214
-12.3191615126
-12.7359440567
-13.1492756022
-13.5571389065
-13.9571403231
-14.3464940885
-14.7218808392
-15.0794225899
-15.4145295339
-15.7220456038
-15.9960795085
-16.2297566278
-16.4148194653
-16.5422579322
-16.6029880203
-16.5881531742
-16.4890187365
-16.297453319
-16.0061153953
-15.608674922
-15.1006878709
-14.4803577262
-13.7479540381
-12.9056868058
-11.9578904291
-10.9112753574
-9.77493083043
-8.56034667007
-7.28109939276
-5.95252719522
-4.59107465615
-3.21369901409
-1.8370965391
-0.477116719163
0.851883022508
2.1374102704
3.36914155515
4.53898127862
5.64119253668
6.67220904302
7.63032187428
8.51541560244
9.32902046485
10.0737313329
10.7524410305
11.3689027965
11.9283672357
12.4351287424
12.891409271
13.3019736882
13.6750843394
14.0140631811
14.3166556817
14.5865534515
14.8330732982
15.0599047608
15.2606221134
15.4346488653
15.5921504603
15.741754186
15.8808167968
16.0045101372
16.1095970863
16.2006921063
16.2851918787
16.3622211392
16.4293952006
16.4867633754
16.5356014288
16.5778258116
16.6137766305
16.6434128272
16.6677613973
16.6877667112
16.7041813055
16.7176152349
16.7285594146
16.7374285518
16.7445678543
16.7502780502
16.7548164854
16.7584136265
16.761262795
16.7635189118
16.765301435
16.7667135435
16.7678584769
16.7688405702
16.7697540656
16.7706724046
16.7716513295
16.7727260259
16.7739221834
16.7752502356
16.7767176277
16.7783190354
16.7800501528
16.7818954743
16.7838430364
16.7858708182
16.7879623554
16.7900957618
16.7922499842
16.7943884462
16.796464975
16.7984260626
16.8002270818
16.8018339137
16.8032207127
16.8043648778
16.8052383224
16.8058050308
16.8060336771
16.805894633
16.8053615199
16.8044127809
16.8030337133
16.801215784
16.7989601305
16.7962821991
16.7932073898
16.7897604979
16.7859752883
16.781900194
16.7776022989
16.7731686228
16.768714038
16.7643753898
16.7603168051
16.7567413213
16.7538992944
16.7521051122
16.751757934
16.753423868
16.7578824566
16.7661507571
16.7795941722
16.800067699
16.8300983678
16.8731495568
16.9339817342
17.0196922026
17.1270855939
-2.75260310727
-2.77303540652
-2.80386735707
-2.84221466058
-2.89061314884
-2.95213314358
-3.02914444749
-3.12334592809
-3.23571844525
-3.36670243207
-3.51636294843
-3.68447196117
-3.87061317584
-4.0742161653
-4.29463173937
-4.53113890316
-4.78300315064
-5.04946571881
-5.32979097047
-5.62324345432
-5.9291285987
-6.24675980407
-6.57549590958
-6.91470269658
-7.26378726134
-7.62215472519
-7.9892430379
-8.36447607044
-8.74729844494
-9.13712413996
-9.53337142038
-9.93540755161
-10.3425805311
-10.754156768
-11.1693486402
-11.5872434235
-12.0068288709
-12.4269089105
-12.8461067953
-13.2627709546
-13.674995118
-14.0805099997
-14.4766441736
-14.8602013071
-15.2273957269
-15.5737177165
-15.8941530021
-16.1828977641
-16.4329746907
-16.6354741879
-16.7807970988
-16.8594121633
-16.8618098147
-16.7786288625
-16.6011425111
-16.3213576772
-15.9323226487
-15.4299338754
-14.8129469719
-14.0814845213
-13.2373237937
-12.2843563324
-11.2288981135
-10.0798499763
-8.8487561357
-7.54958982966
-6.19835903124
-4.8124211962
-3.40971698395
-2.00791835135
-0.623757782666
0.727665905742
2.0333973225
3.28285237427
4.46776342853
5.58237081707
6.62345601658
7.58962232324
8.48065673382
9.2983531681
10.046376154
10.7276552632
11.344891564
11.9043135937
12.4125287108
12.8701586348
13.27823127
13.6476796684
13.9861941273
14.2886890665
14.5549894889
14.7957905319
15.0205545533
15.2267059272
15.4084582585
15.5686164842
15.7163548343
15.852971952
15.9753218422
16.0821998508
16.1765659747
16.2624834617
16.3398920259
16.4077999596
16.4664391447
16.5167747431
16.5600145475
16.5967289002
16.6273309296
16.6526360166
16.6735011918
16.6906575963
16.7047322357
16.7162293504
16.7255884054
16.7331634271
16.7392739117
16.7441803888
16.7481255225
16.7512976976
16.753860148
16.7559253687
16.7576083656
16.7590067932
16.7602368602
16.7613823207
16.762527222
16.7637164357
16.7649971261
16.7663846413
16.7679019149
16.769546298
16.7713247773
16.7732233614
16.7752379923
16.7773478196
16.779540889
16.7817948007
16.7840939044
16.78641141
16.7887121566
16.7909463963
16.7930614956
16.7950125891
16.7967652682
16.7982921691
16.799568669
16.8005682921
16.8012612269
16.8016200931
16.8016186313
16.8012333196
16.8004440614
16.7992377298
16.7976070876
16.7955527519
16.7930769614
16.7901899115
16.7869138298
16.7832796655
16.7793319924
16.7751351268
16.7707696636
16.7663396359
16.7619729688
16.7578250372
16.7540877685
16.7510009341
16.7488733059
16.7481146072
16.7492439104
16.752922201
16.7600480994
16.7718580335
16.790022575
16.8167683033
16.8550391299
16.9086215498
16.9821798981
17.0720228389
-2.80562786665
-2.83278300538
-2.87262157087
-2.92433438402
-2.98845137872
-3.06591694365
-3.15794832883
-3.26560312055
-3.38961521104
-3.53038428932
-3.68803686405
-3.86245564898
-4.0533589385
-4.26032162648
-4.48284372874
-4.72035338338
-4.97226231316
-5.23795315866
-5.51682533382
-5.80827058609
-6.11171241741
-6.42657439752
-6.75231561917
-7.08839324862
-7.43429768243
-7.78951063645
-8.1535399196
-8.52587553947
-8.90602453628
-9.29346323648
-9.68767252964
-10.0880863291
-10.4941239134
-10.9051305846
-11.3204064939
-11.7391388084
-12.1604275265
-12.583203773
-13.0062296669
-13.42800792
-13.8468060319
-14.260547227
-14.666759173
-15.062449874
-15.4440113952
-15.8070805739
-16.1468164289
-16.4575122538
-16.7320407164
-16.9606384247
-17.1327161147
-17.2379173226
-17.2656807852
-17.2056066427
-17.048034369
-16.7841223789
-16.4063140238
-15.9114099579
-15.2989886298
-14.5689362159
-13.7224094336
-12.762511991
-11.6948307493
-10.5278303506
-9.27308311667
-7.94510631281
-6.56094348771
-5.13939313179
-3.69995587484
-2.26177457427
-0.842913818973
0.54035201538
1.87434333422
3.14831723832
4.35390121201
5.48506995763
6.53913703461
7.51579807321
8.4146070737
9.23667445203
9.98773101405
10.6720346035
11.289862748
11.8473799712
12.3552268701
12.8150725508
13.2210803253
13.5837555616
13.9174365435
14.2260744995
14.5028842864
14.748087794
14.970458476
15.1743597318
15.3591968043
15.5253122589
15.6761487751
15.8135862626
15.9370303354
16.0464203366
16.1435125095
16.2305457221
16.3082415939
16.3766462429
16.4361477967
16.4875295551
16.5317029094
16.5693536034
16.6010693148
16.6275790589
16.649636056
16.6679316057
16.6830661321
16.6955515286
16.7058234614
16.7142518967
16.7211562004
16.7268113788
16.7314573849
16.7352900748
16.7384685575
16.7411137938
16.7433401435
16.7452571078
16.746976107
16.748587641
16.7501700759
16.751775116
16.7534461791
16.7552054359
16.7570732815
16.7590530778
16.7611501448
16.7633554853
16.765664076
16.7680590654
16.7705288123
16.7730548191
16.7756205796
16.7781991199
16.7807540199
16.7832346718
16.7855911529
16.7877802087
16.7897692212
16.7915304824
16.7930391027
16.7942682746
16.7951901202
16.7957770128
16.7960031658
16.7958447452
16.795281879
16.7942998353
16.7928900915
16.7910505456
16.7887839941
16.7860999185
16.7830177563
16.779566604
16.7757854309
16.7717287471
16.7674685158
16.7630978902
16.7587346511
16.7545213995
16.7506338427
16.7472912195
16.7447738981
16.7434472317
16.7437795495
16.7463681047
16.751986039
16.7616523477
16.7767519257
16.7991000446
16.8309330271
16.874769924
16.93285824
17.0013805666
-2.94998826813
-2.97790580822
-3.0202668682
-3.07772634884
-3.14999380546
-3.23702173087
-3.33907186461
-3.45642455477
-3.58928990042
-3.73775012055
-3.90176926255
-4.0811779774
-4.27571756492
-4.48503552528
-4.70873578279
-4.94636868339
-5.19747733646
-5.46157854084
-5.73820344855
-6.0268709137
-6.32712451065
-6.63849899147
-6.96055611492
-7.29284764086
-7.63494946721
-7.98642250656
-8.34684816973
-8.71578610515
-9.0928106093
-9.47746588762
-9.86930318512
-10.2678322839
-10.6725558128
-11.082914807
-11.4983180283
-11.9180779479
-12.3414405845
-12.7675054541
-13.1952244822
-13.6233154544
-14.0502901732
-14.4743468994
-14.8933106584
-15.3044992081
-15.7045892612
-16.0894635165
-16.4545001514
-16.7941047556
-17.1009498974
-17.3642693236
-17.5719836212
-17.7122518969
-17.772849587
-17.7418431209
-17.6082396988
-17.3622785883
-16.996526753
-16.5100519708
-15.9037686634
-15.1770596485
-14.3301272278
-13.3646663671
-12.2848078262
-11.0980290923
-9.81568160207
-8.45288440557
-7.02803434872
-5.56195025522
-4.07648289804
-2.5928839741
-1.13087011072
0.291653204725
1.65978632311
2.96285021493
4.1929849643
5.34347369081
6.41162167439
7.39958440912
8.30710998743
9.1326428008
9.8851593156
10.5730034826
11.1923152832
11.7460579638
12.2482592169
12.7091655852
13.1282474045
13.5026854003
13.8372846388
14.1422931311
14.4219613325
14.6758630472
14.9053545778
15.1132319073
15.3011796293
15.4706134424
15.6238267301
15.7624837725
15.8871293392
15.9983466416
16.0974165259
16.1858412587
16.2645314245
16.3339985145
16.3947811779
16.4476001009
16.4932268464
16.5323710856
16.5656711411
16.5938222016
16.6175020946
16.6373673785
16.6539836871
16.6678666539
16.6794404678
16.6890921258
16.6971366437
16.703867253
16.7095156974
16.7142930674
16.7183479554
16.7218216836
16.7248216162
16.7274776109
16.7298879353
16.7321594699
16.7343563685
16.7365477622
16.738764135
16.7410455005
16.7433999733
16.7458480539
16.7483834949
16.7510130227
16.7537212599
16.7565050656
16.7593460345
16.762235303
16.7651504797
16.7680676333
16.7709459229
16.7737377553
16.7763940445
16.7788752176
16.7811488964
16.7831888113
16.784969444
16.786465424
16.787649805
16.788496649
16.7889808077
16.7890798061
16.7887740184
16.7880486818
16.7868938299
16.7853053147
16.7832838116
16.780836636
16.7779792762
16.774736274
16.7711422814
16.7672438552
16.7631025521
16.7587980648
16.7544327464
16.7501362301
16.7460682801
16.7424264148
16.7394602127
16.7374890514
16.7369177604
16.7382576753
16.7421569507
16.7494237204
16.7611073512
16.7785659218
16.8033179261
16.8366770227
16.878870362
16.9250696639
-3.16485528819
-3.19015013078
-3.23101368908
-3.28929641766
-3.36421850854
-3.45525797512
-3.56210912453
-3.68451458743
-3.82224496886
-3.97505446743
-4.14268667152
-4.32484403226
-4.52121429883
-4.73144802102
-4.95519318659
-5.19207222867
-5.44171800124
-5.7037467358
-5.97779332157
-6.26347959337
-6.56044843977
-6.86832981123
-7.18677384857
-7.51541418159
-7.85390310245
-8.20187276544
-8.55897117692
-8.92482307421
-9.29906696451
-9.68131382437
-10.0711856004
-10.4682714422
-10.8721646542
-11.2824119687
-11.698546959
-12.1200310791
-12.5462857206
-12.976619326
-13.4102268391
-13.8461050858
-14.2830825256
-14.7197163147
-15.1542269006
-15.5843465575
-16.0071412367
-16.4188264038
-16.8150317766
-17.1902829591
-17.5370432316
-17.8434585415
-18.0952087584
-18.2780273751
-18.3770564028
-18.3780579767
-18.2684376785
-18.0379814026
-17.6816831189
-17.2026481106
-16.6037241128
-15.8838061362
-15.0414199801
-14.075624305
-12.9876776327
-11.7828941839
-10.4719125979
-9.07058552045
-7.59904451513
-6.08074127761
-4.54107238725
-3.00444214815
-1.49238551288
-0.0244275737265
1.38237068413
2.71743802714
3.97454099071
5.14574925244
6.22742945653
7.22640922616
8.14486619842
8.97388042944
9.72294372726
10.4092590718
11.0390274169
11.6096428277
12.1221738359
12.5831292937
13.0023614134
13.3856212777
13.733677102
14.0485321731
14.3337700111
14.5921105007
14.8257571883
15.037155617
15.2282462151
15.4007452882
15.5565308827
15.6971659744
15.8236779337
15.9369820247
16.0382074185
16.1285427345
16.2089322297
16.2800814241
16.3426526582
16.3973488787
16.4448996901
16.485996572
16.5213017661
16.5514720847
16.5771543364
16.5989560992
16.6174318134
16.6330737215
16.6463144217
16.6575321947
16.6670574785
16.6751780072
16.6821376161
16.6881408999
16.6933500858
16.6979046268
16.7019304434
16.7055525725
16.7088807648
16.7120141296
16.7150274246
16.7179840388
16.7209254055
16.7238873462
16.7268880881
16.7299448225
16.7330601305
16.7362381856
16.7394710838
16.7427545532
16.7460771398
16.7494283253
16.7527879757
16.7561296159
16.7594124338
16.7625907588
16.7656190926
16.7684605877
16.7710845896
16.7734656805
16.7755789692
16.7773999494
16.7789028807
16.7800628986
16.7808557222
16.7812595524
16.7812549894
16.7808268699
16.7799640456
16.778660545
16.7769149402
16.774731982
16.7721232691
16.7691087116
16.7657170833
16.761988254
16.7579747922
16.7537445269
16.7493823555
16.744998421
16.7407338678
16.7367630203
16.7333013904
16.7306195571
16.7290547348
16.7290252229
16.7310443725
16.7357245985
16.7437891223
16.7561215484
16.7735865408
16.7964779424
16.8234857093
16.8486598889
-3.41764414245
-3.43940918224
-3.47736102873
-3.5340722078
-3.60850626535
-3.69998713068
-3.80793471468
-3.93179622327
-4.07107098812
-4.22528475626
-4.39400546844
-4.57681432571
-4.77332714459
-4.98316475935
-5.20597911394
-5.44142224488
-5.68917485073
-5.94891336064
-6.22033940599
-6.50314548841
-6.79704572211
-7.10173915804
-7.4169427144
-7.74235432018
-8.07768630708
-8.42262895625
-8.77688674311
-9.14014085655
-9.51208764171
-9.89240039785
-10.2807699897
-10.676865205
-11.0803730757
-11.4909554242
-11.9082849157
-12.3319931353
-12.7617076098
-13.1969879595
-13.6373281029
-14.0820732769
-14.5304414483
-14.981426078
-15.4337277234
-15.8855786121
-16.334531021
-16.7772344281
-17.2095385329
-17.62608539
-18.0191944679
-18.3762498821
-18.6797145097
-18.9113642021
-19.0521253875
-19.0841413695
-18.9930938826
-18.7699561927
-18.4166782208
-17.9428573422
-17.3537947249
-16.6476584364
-15.819910671
-14.864994772
-13.7790224259
-12.563122217
-11.2263809165
-9.78598966375
-8.26465638748
-6.6889557615
-5.08893128391
-3.4939992068
-1.92755179281
-0.410585754594
1.03616967815
2.40329810098
3.68875742573
4.88222272641
5.97501757865
6.97865138502
7.90491876963
8.7547685868
9.5269719503
10.2241619749
10.8546843744
11.4301585482
11.9572418303
12.4361651223
12.8690350164
13.2608700065
13.6157385181
13.9369383729
14.2277653301
14.4910015343
14.729115342
14.9444867835
15.1391905619
15.3150854241
15.473936572
15.6172845869
15.7463633127
15.8622583442
15.9660703035
16.0588680325
16.1415997152
16.2150537747
16.2799691977
16.3370525927
16.3870229227
16.4305518465
16.4683056428
16.5009100109
16.5289914389
16.5531176756
16.5738332542
16.5916066565
16.6068766539
16.6200109297
16.6313533839
16.6411828373
16.6497571007
16.6572706608
16.6639055477
16.669796727
16.6750927831
16.6799088262
16.6843717157
16.6885678225
16.6925892533
16.6964880062
16.7003237611
16.7041218665
16.7079183246
16.7117204324
16.715547179
16.7193938219
16.7232669206
16.7271565791
16.7310618525
16.7349674917
16.7388575595
16.7427011989
16.7464609198
16.7500922647
16.7535550544
16.7568141623
16.7598418195
16.7626129345
16.7651043242
16.7672919472
16.769151893
16.7706600161
16.7717934932
16.7725309098
16.7728535609
16.7727457435
16.7721956656
16.7711955615
16.7697421898
16.7678374227
16.7654892828
16.7627127373
16.7595306726
16.7559752676
16.752089547
16.7479290377
16.7435642475
16.7390838508
16.7346036319
16.7302731786
16.7262730541
16.722823121
16.7201911168
16.718699088
16.7187257169
16.7206915645
16.7250280159
16.7321684205
16.7423947267
16.755200748
16.7682191601
16.7748291447
-3.67582118928
-3.69444857027
-3.72963635707
-3.7841551574
-3.85685216623
-3.94708072819
-4.05416845805
-4.1774374055
-4.31625343028
-4.47001809984
-4.63819466428
-4.82028338574
-5.01584461043
-5.22446782933
-5.44579490358
-5.67948559978
-5.92524216068
-6.18277284173
-6.4518186136
-6.73211546249
-7.02342296013
-7.32548752586
-7.63807253077
-7.96092149875
-8.29379190878
-8.63641866515
-8.98855025943
-9.34991408184
-9.72025519558
-10.0993016662
-10.4868064194
-10.8825134617
-11.2862023399
-11.6976511705
-12.1166797803
-12.5431063538
-12.9767866781
-13.4175653556
-13.865283944
-14.3196949425
-14.7804594574
-15.2470474486
-15.7186663446
-16.1940645226
-16.6713312667
-17.147626526
-17.6189761662
-18.0801806566
-18.5236876319
-18.936907142
-19.2982849577
-19.5836101172
-19.7666797976
-19.8233574885
-19.7375408962
-19.505701411
-19.1436611687
-18.6708671678
-18.0949843172
-17.4128418599
-16.6146531958
-15.6876708817
-14.6201726425
-13.4062960814
-12.0517288977
-10.5758969594
-9.00580313191
-7.37164851488
-5.70977774767
-4.05688384088
-2.4359536905
-0.86745640274
0.617851157389
2.00964076643
3.31660148927
4.53670567985
5.6635272626
6.6979362298
7.6388226487
8.49346022459
9.2771060696
9.99711649009
10.6527455093
11.2468162162
11.7857348513
12.2742398958
12.7163810691
13.1165462483
13.4787284839
13.8065306981
14.1032568471
14.3718200395
14.6148358898
14.8347121309
15.033605472
15.2134435556
15.3759801638
15.5227652776
15.6551260865
15.7742416702
15.8812140532
15.9770851747
16.0627936984
16.1391810174
16.2070140197
16.2670247684
16.3199141585
16.3663573668
16.4069980405
16.4424569823
16.473325242
16.5001605601
16.5234776242
16.5437451536
16.5613853937
16.5767757115
16.5902506182
16.6020994943
16.6125722681
16.6218769665
16.6301930311
16.6376757345
16.6444715587
16.6507098325
16.6565110884
16.6619731618
16.6671830476
16.6722045275
16.6770941112
16.6818884348
16.6866213935
16.6913102912
16.695972706
16.700612434
16.7052359568
16.7098411696
16.7144265568
16.718980055
16.7234840843
16.7279081359
16.7322165224
16.7363688949
16.7403291213
16.7440651536
16.7475512893
16.750763783
16.7536807633
16.7562793543
16.7585371018
16.7604309991
16.7619394382
16.7630416701
16.7637195386
16.7639570645
16.7637418581
16.7630646354
16.7619203473
16.7603080264
16.7582321567
16.7557027652
16.7527367738
16.7493584514
16.7456011005
16.7415077554
16.7371335305
16.732547342
16.7278378513
16.7231237443
16.7185507016
16.7142877135
16.7105326006
16.7075114509
16.7054715244
16.7046519658
16.705224116
16.7072300683
16.7104378332
16.7137538758
16.7141657796
16.7049112843
-3.91107059135
-3.92753875664
-3.96091536785
-4.01371349658
-4.08473419461
-4.17343767057
-4.27914566492
-4.40114734967
-4.53876265156
-4.69134613656
-4.85831767039
-5.03914052423
-5.23334696915
-5.44050912679
-5.66026184826
-5.89226768979
-6.13623978892
-6.3919041995
-6.65902400118
-6.93736157761
-7.22670515386
-7.52683078138
-7.83753248909
-8.15858551761
-8.48977826415
-8.83087764169
-9.18166508876
-9.54190315806
-9.9113755333
-10.2898552208
-10.6771488485
-11.0730671153
-11.4774744387
-11.8902607648