/*--------------------------------*- C++ -*----------------------------------*\
| =========                 |                                                 |
| \\      /  F ield         | OpenFOAM: The Open Source CFD Toolbox           |
|  \\    /   O peration     | Version:  v1806                                 |
|   \\  /    A nd           | Web:      www.OpenFOAM.com                      |
|    \\/     M anipulation  |                                                 |
\*---------------------------------------------------------------------------*/
FoamFile
{
    version     2.0;
    format      ascii;
    class       volScalarField;
    location    "2";
    object      pa;
}
// * * * * * * * * * * * * * * * * * * * * * * * * * * * * * * * * * * * * * //

dimensions      [0 2 -2 0 0 0 0];


internalField   nonuniform List<scalar> 
12225
(
0.864338299543
3.72286757371
4.21558293137
3.87777958679
3.84917624135
3.74926158663
3.75426689174
3.86491023426
4.15553529577
4.6835611171
5.50932933236
6.69367808094
8.14815466617
9.8126068302
11.9527813677
14.3529526963
16.3077973326
14.7497104483
22.2521652144
17.680474379
17.136600514
16.6290773832
16.1413839562
15.6626678448
15.2674393004
14.975046755
14.8524429386
14.9469452256
15.3080461014
15.9453715269
16.6570861414
17.4406173296
18.3685613616
18.9828070847
18.3338698558
13.6529298259
13.6628943717
13.2580411026
12.74531752
12.3444983898
12.112350842
11.9252508099
11.8652333421
11.9082146375
12.0814249232
12.4051933115
12.9112599614
13.6083516436
14.3957096732
15.2352153815
16.0044240447
16.3062028625
15.2373838823
11.0390887092
14.6170043968
13.8235392582
13.520898434
13.204292995
13.043649375
12.8921366643
12.8486002759
12.8805441217
13.012469329
13.2585855625
13.6352288695
14.1326405452
14.6868264596
15.2329209757
15.5799869998
15.3758718557
13.9266608588
10.415130943
14.2260170504
13.5488021364
13.4049782421
13.1948374012
13.1616927092
13.1363656573
13.2224832601
13.3750634105
13.6083621891
13.9239089391
14.3174571722
14.7604328941
15.1914186117
15.5215610358
15.5537061118
14.9967246417
13.4009196451
10.5249175326
14.0519917578
13.4354990191
13.4291955236
13.2934244708
13.3420770991
13.3911381539
13.5505703352
13.7682033684
14.0535306723
14.397140285
14.7807127758
15.1631798298
15.4802014735
15.6311921564
15.4400164102
14.6833840883
13.11121608
10.7544495428
13.9143163138
13.340228809
13.4493380174
13.3720110779
13.4787616034
13.5760034064
13.7780225039
14.028670496
14.332721106
14.6722800287
15.0199427503
15.3299206199
15.5349738613
15.5365621296
15.1911203479
14.3428217761
12.8768806138
10.9092963595
13.7876045152
13.2469316231
13.4499432348
13.4167257989
13.5618809982
13.6856977071
13.9054277788
14.1630551344
14.4587060613
14.7696036362
15.06355408
15.295040205
15.3969683084
15.2813870042
14.8387531484
13.9702384088
12.6372129058
10.9933204919
13.6616131019
13.1473893245
13.4250568482
13.4221049067
13.5901631329
13.7248077783
13.9453552055
14.1912667883
14.4604131775
14.7267869578
14.9586735692
15.1118726262
15.124264371
14.9210671236
14.4251380129
13.5784062006
12.3908096239
10.9923972731
13.5183606516
13.0210052319
13.3547768596
13.3710490883
13.5511222405
13.6876279975
13.8998429682
14.1249823064
14.3597337502
14.5772023445
14.7465964401
14.8283222035
14.7674864165
14.5029635116
13.9856515916
13.1862331313
12.133418906
10.9479378687
13.3577693521
12.8475273771
13.2085298986
13.2358503664
13.417376462
13.5482418091
13.7467251946
13.9500699643
14.1525332079
14.3267576899
14.4415915038
14.4651287707
14.3484439341
14.0477083495
13.5320099861
12.7929872244
11.8671890301
10.8481421846
13.1619590338
12.616418579
12.9786637133
13.0065238122
13.1806851018
13.296752646
13.4742599115
13.6517230312
13.8229704025
13.958878425
14.0305360614
14.0103213855
13.8625091128
13.5445340022
13.0509133294
12.3721903922
11.551582289
10.6677580513
12.9422642562
12.3627858013
12.7220920289
12.7396327609
12.9027932398
12.9979376706
13.1469705169
13.2879822968
13.4175560007
13.5073249861
13.5325880446
13.4740959411
13.2913670149
12.9751030321
12.5001320874
11.8922070256
11.1669574559
10.4115381295
12.6729009056
12.0600922083
12.4266097473
12.4298332682
12.5805134321
12.6550761098
12.772842914
12.8736866657
12.9516839587
12.985640063
12.9566246127
12.8489691963
12.6412798083
12.315643053
11.8801021824
11.3329378159
10.7249993714
10.0731270361
12.3625088928
11.6999206782
12.072368742
12.0617017176
12.2029055918
12.2575389576
12.3517146437
12.4148448804
12.4499019566
12.4272687386
12.3550436678
12.2015629908
11.9756972204
11.6503231878
11.2534768225
10.7760112912
10.2647040115
9.73341147443
12.043598031
11.3038697332
11.6730971309
11.6451604552
11.7698368434
11.8057753923
11.8696137106
11.9020265818
11.8904337229
11.8373118954
11.7165030986
11.5512996185
11.3010698445
11.0063732421
10.6336338955
10.2421359971
9.79911871015
9.37846082606
11.7510697223
10.9158876746
11.2665936677
11.2104291666
11.3122028425
11.3192806652
11.3516421433
11.3452855729
11.3024883501
11.2115169384
11.0762632216
10.8882826543
10.6531328577
10.3667051674
10.0507996861
9.70235030577
9.35057217411
8.9815013308
11.4692798167
10.5491376303
10.8777749123
10.7868174403
10.8603906133
10.83427056
10.8323046479
10.7892687593
10.7172870931
10.6021057954
10.4547826833
10.2622414888
10.0398076203
9.77599930501
9.50089406111
9.19929520149
8.90747490937
8.59430929153
11.2758311779
10.3022321965
10.6039594602
10.4735799523
10.5100655409
10.4459513497
10.4048557018
10.3258555606
10.223463433
10.0869654427
9.92751100456
9.73417607175
9.5221208605
9.27988609422
9.03540445255
8.77200901569
8.52247966733
8.25544821718
11.3426468298
10.3761733214
10.633672714
10.4572258732
10.4560299719
10.340964192
10.2685217268
10.145128557
10.0216620542
9.85073917634
9.68310342123
9.47141268396
9.26628137007
9.02028559966
8.79454521145
8.53913412379
8.31567066669
8.06445513183
11.4188666734
10.502664472
10.7365141636
10.546654565
10.5064637933
10.3738209091
10.2597305102
10.1283661911
9.96378818576
9.7918893697
9.59012285021
9.38766604579
9.15623666388
8.93108469211
8.68659134028
8.46154590183
8.22279697626
8.0089251438
11.4862874747
10.6314984791
10.8634876438
10.6545376461
10.600493294
10.440877835
10.3161060374
10.1586241233
9.98505949395
9.79123920894
9.58108717775
9.36442476366
9.13269998741
8.89953630802
8.66276003558
8.43423373286
8.208985828
7.98897844173
11.590876447
10.783718736
11.000460922
10.7858542636
10.7131252761
10.5401263207
10.3985160607
10.2283862029
10.0409668528
9.83198040731
9.6175291997
9.38560748286
9.15498714769
8.910166636
8.68390933627
8.44415673023
8.23198357584
8.00436150957
11.7289004159
10.9617361882
11.15636621
10.9215571659
10.8357158081
10.6496455867
10.4954781011
10.313230396
10.1158081586
9.90116655409
9.67561207978
9.44316321826
9.20409758871
8.96515806667
8.72677912287
8.49467933158
8.26759887969
8.05129640586
11.8811024016
11.1672215774
11.3116343662
11.0647367362
10.9668035687
10.7661172397
10.6015619469
10.4107234456
10.203821629
9.98185830239
9.75100548029
9.51931982945
9.27694642501
9.03828871191
8.79948508379
8.56254327485
8.32767318682
8.11254012785
12.0397416914
11.3997051595
11.4715406941
11.2014216258
11.0874488863
10.8792079714
10.704511134
10.5035629224
10.2880829768
10.0572506803
9.82284972858
9.59073565992
9.35447145298
9.11268948825
8.87211210315
8.63031424827
8.38493423422
8.16323202119
12.6198812855
11.9936502684
11.9610114109
11.6590036189
11.5208888974
11.281794613
11.0795839512
10.853700859
10.6145519506
10.3634469196
10.1109815239
9.88610076999
9.64556306823
9.4054459055
9.1667810415
8.92132418717
8.6748508618
8.44845905506
10.7937225149
11.2617463588
11.0232185334
10.7003554607
10.5469392965
10.3151081015
10.1251700499
9.91713032552
9.69381668266
9.44936991867
9.21091394273
8.99186117887
8.75844339097
8.51137015252
8.25825866868
7.98897334457
7.69940583679
7.44195797057
22.9251011244
17.9275606986
17.5272803483
17.2280764012
16.9645668624
16.6103311114
16.2623960737
15.8768503107
15.4672587767
15.0412930864
14.6320499839
14.2496627263
13.8645407439
13.4814347676
13.1110031774
12.7384605482
12.3610931835
12.1238965975
-1.78805966257
1.35159559111
1.99840709994
1.72148627073
1.75596818079
1.62174258633
1.5210677869
1.39104255619
1.24936908767
1.10890640054
0.998134481632
0.919383312311
0.860439131461
0.831048239502
0.844430866982
0.902261417011
0.999357693371
0.952937605875
-3.72802426531
-3.734132488
-3.74101813761
-3.74785195266
-3.75278490168
-3.75533484142
-3.75589762417
-3.75563541888
-3.75439065981
-3.75299594998
-3.75091947508
-3.74885078316
-3.74624874708
-3.743728501
-3.74091701816
-3.73835112175
-3.73585489932
-3.73381971814
-3.73222163225
-3.73129512816
-3.73097178828
-3.73136542286
-3.73231341428
-3.73377354731
-3.73549101307
-3.7374889423
-3.73932788092
-3.7411370129
-3.74238923637
-3.74337437171
-3.74350082514
-3.74326159388
-3.74200858791
-3.7403315048
-3.73765961269
-3.73466316313
-3.7308545957
-3.72681072635
-3.72220880521
-3.71749373768
-3.71253380026
-3.70760458919
-3.70281284683
-3.6982155398
-3.69417446019
-3.69046045028
-3.68765429241
-3.68531420297
-3.68402685185
-3.68329711846
-3.68384378917
-3.68572743929
-3.68976546268
-3.69543010536
-3.70262572856
-3.71057276552
-3.71903447235
-3.72731418467
-3.73515608646
-3.74196327804
-3.74760031043
-3.75159981747
-3.75392129106
-3.7542625008
-3.7527200564
-3.74907952287
-3.74365526832
-3.73636603593
-3.72757242672
-3.71729344695
-3.70584184863
-3.69330397567
-3.67995056279
-3.66584673942
-3.65123382226
-3.63627405788
-3.62113301176
-3.6059791683
-3.59101660378
-3.57633428314
-3.56214799244
-3.54844574038
-3.53546999203
-3.52317993653
-3.51160726772
-3.50050856584
-3.49022721067
-3.48050647531
-3.47050674719
-3.45891520347
-3.44712640925
-3.43632734269
-3.42321878383
-3.40972531786
-3.40261032077
-3.40432349481
-3.39644654574
-3.36371884982
-3.32753445247
-3.30968657408
-3.31428351722
-3.33851098752
-3.37809844045
-3.41897232229
-3.46721044342
-3.5158982212
-3.56277488969
-3.60731567902
-3.64969399943
-3.69015708797
-3.72899532318
-3.76638503047
-3.80245547593
-3.83724480405
-3.87075354565
-3.90292196297
-3.93357518145
-3.96249848156
-3.98990694308
-4.01591824693
-4.04113158784
-4.06521964975
-4.08832781054
-4.11024748688
-4.13095844375
-4.15048342945
-4.16888169803
-4.18617811565
-4.20240888301
-4.21758120652
-4.2317265602
-4.24485533013
-4.25699840312
-4.26817899379
-4.27843058335
-4.28783338061
-4.29641454492
-4.3041675881
-4.311331731
-4.31788613954
-4.32437241361
-4.3299251571
-4.33532774342
-4.33991290286
-4.34459120123
-4.34870994044
-4.35295606605
-4.35649895391
-4.35995441358
-4.3624654427
-4.36469075461
-4.36586051779
-4.36664598068
-4.36626411503
-4.36555630728
-4.36379394555
-4.36191864322
-4.3592453415
-4.35684968761
-4.35414557571
-4.35224905322
-4.35059437287
-4.35063245381
-4.3519872191
-4.35648165722
-4.36395080162
-4.3763862114
-4.39349939918
-4.41710498581
-4.44659663064
-4.48362413522
-4.52655770423
-4.57577138701
-4.62826388044
-4.68659370963
-4.74460114889
-4.80008610815
-4.84599118553
-4.87887967103
-4.90191589608
-3.70478864956
-3.70002225751
-3.68661314056
-3.66796528213
-3.64843232248
-3.62753200926
-3.60420121175
-3.57870673142
-3.55084481892
-3.52119175086
-3.48960316799
-3.45666500411
-3.42231460443
-3.38707475767
-3.35099533471
-3.31451596736
-3.27779596475
-3.24117028042
-3.20483253875
-3.16898793279
-3.13382532448
-3.09938491947
-3.06572611304
-3.03282920466
-3.00060062548
-2.96898776468
-2.93782250279
-2.90708834712
-2.87650146182
-2.84617207557
-2.8157813943
-2.78555244579
-2.75513262636
-2.72485562256
-2.69443907845
-2.66425527087
-2.63410308732
-2.6043343487
-2.57483836068
-2.54589133063
-2.51751686025
-2.48988778093
-2.46317528467
-2.43742822311
-2.41295155718
-2.38965183405
-2.36789409701
-2.34746586341
-2.32869762297
-2.31113232392
-2.29459978665
-2.27771254249
-2.26111094451
-2.24495762821
-2.22957452473
-2.21500933706
-2.20144702726
-2.18894510313
-2.17761297338
-2.16750673226
-2.15868438332
-2.15118616447
-2.14501460881
-2.14009804713
-2.13642998042
-2.13390869848
-2.13249060135
-2.13205000961
-2.13253407053
-2.13377237229
-2.13568547666
-2.13807688525
-2.14084227673
-2.14385124615
-2.14698879565
-2.15017788192
-2.15337885791
-2.15653172223
-2.15963298086
-2.1626796279
-2.16561481822
-2.1682614363
-2.17071394538
-2.1730733875
-2.1749287371
-2.17573712237
-2.17623782619
-2.17734088566
-2.17612672677
-2.16898330066
-2.15980579727
-2.15285053728
-2.14051631463
-2.11918800122
-2.09984688189
-2.08761143025
-2.08221347005
-2.08161704314
-2.08248375238
-2.08178790448
-2.07513060077
-2.0513226536
-2.00593467173
-1.98736997742
-1.96895497128
-1.95146761685
-1.93486630397
-1.91874939419
-1.90295792029
-1.88731914128
-1.87185589427
-1.85648750078
-1.84122844326
-1.82597276459
-1.81069314664
-1.79527932268
-1.77957845632
-1.76351365347
-1.74723818818
-1.73130086401
-1.71602548041
-1.70145917882
-1.68758692496
-1.67427501037
-1.66158467035
-1.64954989685
-1.63824039527
-1.62765390185
-1.61780871916
-1.60867502149
-1.60024514861
-1.59246993116
-1.58531406275
-1.57870597595
-1.57259029246
-1.56693532768
-1.56165617738
-1.55675333278
-1.55225310063
-1.54843553037
-1.54523319118
-1.54235616324
-1.53975557521
-1.53739973628
-1.5355620692
-1.53422470453
-1.53344326425
-1.53299278917
-1.5328644038
-1.53285190305
-1.53302468158
-1.53313592671
-1.53323651122
-1.53315961452
-1.53309418587
-1.53293242979
-1.53296125697
-1.53312265901
-1.53382011841
-1.53494832193
-1.5373952785
-1.5414845981
-1.54813174766
-1.55772297196
-1.57152732636
-1.59017058342
-1.61496432094
-1.64632339264
-1.68550628651
-1.73256261818
-1.78817628041
-1.85100653951
-1.91986373502
-1.99028764973
-2.05697620471
-2.11236136082
-2.14872174643
-2.15187387361
-2.10320413404
-1.9617743528
-3.67162989537
-3.65970142322
-3.65013285011
-3.64017715464
-3.63132726579
-3.62292102312
-3.61399169479
-3.60442642542
-3.59377070461
-3.5823292162
-3.56996649739
-3.5571038879
-3.54370663747
-3.53019778943
-3.51662212589
-3.50335762808
-3.49050383758
-3.47835128295
-3.46701897302
-3.45669113094
-3.44738974234
-3.43921062734
-3.4320892312
-3.42597205384
-3.42070932009
-3.4162271163
-3.41225907996
-3.40873451104
-3.40534007114
-3.40205842494
-3.39856398555
-3.39491728787
-3.39081371271
-3.38639248273
-3.38139750868
-3.37604420632
-3.37013831384
-3.3638924329
-3.35720379792
-3.35024893599
-3.34301914191
-3.33562652094
-3.32817492055
-3.3206874849
-3.31336416769
-3.30611801776
-3.29919661913
-3.2924203795
-3.28597894672
-3.27965075511
-3.27359303496
-3.26748023058
-3.26034297867
-3.25164604127
-3.24139356333
-3.22954589252
-3.21622852437
-3.20151859854
-3.18557125219
-3.16857975804
-3.15078225492
-3.13243948856
-3.11379949674
-3.09517647528
-3.07678742518
-3.05887761439
-3.04165565259
-3.02526583671
-3.00982189315
-2.99535625365
-2.98187254473
-2.96932324746
-2.95765496209
-2.94674888055
-2.93654504983
-2.92695185009
-2.91788681548
-2.90926554569
-2.90098986649
-2.89296661831
-2.88512222185
-2.87730190364
-2.86931682182
-2.86117284482
-2.85288136594
-2.84407918949
-2.8347352385
-2.82556868435
-2.81595004525
-2.80095863666
-2.78175062206
-2.76289831981
-2.74878259133
-2.73942414688
-2.72705324553
-2.70510959986
-2.69505573643
-2.73264693425
-2.79457044217
-2.84666356184
-2.8779658529
-2.86436544871
-2.79173829925
-2.72719589586
-2.68382969345
-2.65503240142
-2.63474592825
-2.61936629277
-2.60679664039
-2.59597913231
-2.58626994532
-2.57736445647
-2.56900523548
-2.56105268794
-2.55335520215
-2.54581703844
-2.53827619278
-2.53073622705
-2.52334025973
-2.51659617915
-2.5105652349
-2.50525353854
-2.50033457976
-2.49579579791
-2.49169242058
-2.4881629122
-2.48524380608
-2.48296917978
-2.4812995524
-2.480214618
-2.47964645604
-2.47954756074
-2.47983367873
-2.4804272654
-2.48125748119
-2.48227955639
-2.48347818258
-2.48493381201
-2.48674642383
-2.48923892221
-2.49210058434
-2.49511966194
-2.49772700482
-2.50015737245
-2.50233290833
-2.5045464126
-2.5065646476
-2.50849649398
-2.51006007102
-2.51137172761
-2.51220952414
-2.51271105833
-2.51281544137
-2.51268916801
-2.51219992117
-2.51150985881
-2.51050970766
-2.50933634495
-2.50787479794
-2.50629104415
-2.50456200156
-2.50273756913
-2.50061692658
-2.4980763463
-2.49461612351
-2.48970652715
-2.48271470828
-2.47301901872
-2.46037849187
-2.44441259385
-2.42507705716
-2.40249946441
-2.3773580601
-2.34996211671
-2.31827966531
-2.2834664241
-2.24410770218
-2.19464274533
-2.12381307288
-2.00447382313
-3.64644436465
-3.62326965947
-3.62618249653
-3.62707154927
-3.62579941315
-3.62200562346
-3.61557362568
-3.60693499552
-3.59619050387
-3.58388168597
-3.57010411176
-3.55536161986
-3.53977896683
-3.52380121454
-3.50756417401
-3.4914584858
-3.47560274548
-3.46032909472
-3.44568317641
-3.43191192255
-3.41901029936
-3.40709785868
-3.39605610062
-3.38595239345
-3.3765668228
-3.36786953822
-3.35962344562
-3.35176350696
-3.34402354167
-3.33635100273
-3.32850348611
-3.32046750982
-3.31203571495
-3.30326307995
-3.29400806195
-3.28437357695
-3.27427944936
-3.26387794657
-3.25313349202
-3.24220162912
-3.23111884971
-3.22000827679
-3.20898484455
-3.19811792094
-3.18758488743
-3.17739038577
-3.16772783218
-3.15854478053
-3.15005310578
-3.14217484405
-3.13517724493
-3.12931493798
-3.12458655608
-3.1204995597
-3.11676477558
-3.11296756804
-3.10888058065
-3.10420978948
-3.09880578634
-3.09252014819
-3.08529810979
-3.07716962551
-3.06818424682
-3.05844355746
-3.04808921632
-3.03731574351
-3.02626873956
-3.01514128038
-3.00406638655
-2.99316915585
-2.98254666148
-2.97224166982
-2.96230629078
-2.95276929257
-2.94365294467
-2.93494732748
-2.92666820006
-2.91879352021
-2.91127941575
-2.90404188295
-2.89703206842
-2.89018937198
-2.88328587451
-2.87621854639
-2.8692653547
-2.86218549931
-2.85475938558
-2.8474486034
-2.84204733228
-2.84073347211
-2.84213898837
-2.84262808001
-2.84813183393
-2.86466207113
-2.88496841972
-2.90242790463
-2.91262640566
-2.91776597356
-2.92939392595
-2.93908102507
-2.93255544852
-2.89436808767
-2.82423249633
-2.75557833679
-2.70146765602
-2.66068618024
-2.62943380126
-2.60453798158
-2.58381191511
-2.5659038338
-2.54993365916
-2.53537013638
-2.52180629126
-2.50898241176
-2.4966783368
-2.48476025952
-2.47313030201
-2.46178746465
-2.45101057578
-2.44107128986
-2.43205551896
-2.42362957511
-2.41546999919
-2.40755039429
-2.39999706031
-2.39297565396
-2.38656292264
-2.38080091513
-2.37566128402
-2.37111493673
-2.36708879746
-2.36352203267
-2.36031968662
-2.35740129395
-2.35470179197
-2.35220758415
-2.35002239398
-2.3483309955
-2.34744337052
-2.34755511203
-2.34848130362
-2.34960657573
-2.35049377877
-2.35110050034
-2.35153673765
-2.3519042858
-2.35217897321
-2.35230825195
-2.35221357997
-2.35185330056
-2.35120119715
-2.35025950111
-2.34910123664
-2.34777604451
-2.34635089613
-2.34488211596
-2.34346586916
-2.34218261123
-2.34116632048
-2.34052632828
-2.34027158078
-2.3403992633
-2.34096288474
-2.34188173945
-2.34302163964
-2.3440773503
-2.34473665323
-2.34458036098
-2.34333793192
-2.3405450128
-2.33578303648
-2.32847460869
-2.31804072262
-2.3033194987
-2.28202094025
-2.25372528384
-2.21599074654
-2.16315559322
-2.08547622337
-1.96728223053
-3.62335804089
-3.58591961435
-3.60962529626
-3.61857199601
-3.6197949637
-3.61565202714
-3.60764710963
-3.59699717479
-3.58417987823
-3.56983252249
-3.55424897423
-3.53787963951
-3.52092314122
-3.50376740672
-3.48656914204
-3.46967855602
-3.45319671985
-3.43742604779
-3.4223968919
-3.40835617339
-3.39520381584
-3.38313644451
-3.37198176652
-3.3618101876
-3.35240503619
-3.34378291297
-3.33567485045
-3.32803723009
-3.32062883066
-3.31336921338
-3.3060669549
-3.29863726057
-3.29096500083
-3.28298751171
-3.2746467925
-3.26595094362
-3.25688363507
-3.24750296744
-3.23783554547
-3.22797349639
-3.21797445295
-3.20793826277
-3.19796242135
-3.18813117761
-3.17857193103
-3.1693345825
-3.16055627974
-3.1522514166
-3.14453701197
-3.13741365154
-3.13098703946
-3.12515562713
-3.1199012984
-3.11496028074
-3.11021510429
-3.10539748085
-3.10040812479
-3.09502705875
-3.08919092116
-3.08276859767
-3.07577346313
-3.06817074477
-3.06001256664
-3.05137346588
-3.04231204978
-3.0329498293
-3.02338105143
-3.01373329414
-3.00408281157
-2.99452915916
-2.98512678403
-2.97594131515
-2.96702183621
-2.95840199246
-2.95013699985
-2.9422317544
-2.93471120225
-2.9275834391
-2.9207985593
-2.91427711223
-2.908025649
-2.90195667353
-2.89577042895
-2.88951724413
-2.88361224444
-2.87842605433
-2.87395837074
-2.87029063523
-2.86942642507
-2.87640235031
-2.88855002066
-2.90228278649
-2.91827705985
-2.93547581568
-2.95093642685
-2.96093981771
-2.96057172102
-2.95168426036
-2.94240455818
-2.93039811367
-2.90745160498
-2.86690969657
-2.81128232596
-2.75527767352
-2.70729640919
-2.66842707893
-2.63720618612
-2.61156408416
-2.58995862414
-2.57113872465
-2.55437663929
-2.53905320578
-2.5248282436
-2.51136635527
-2.4985149238
-2.4861262497
-2.47419547064
-2.46278271967
-2.45220074809
-2.44261980964
-2.43401959618
-2.42590445142
-2.41799320433
-2.41022800696
-2.4028016274
-2.39585306254
-2.38952014072
-2.3838185017
-2.37876286509
-2.37428585405
-2.3703368829
-2.36681411985
-2.36362993641
-2.36068807735
-2.35792684806
-2.3553882442
-2.3532515373
-2.35183279447
-2.35155285278
-2.35250674886
-2.35451306889
-2.35667260681
-2.35866911603
-2.36022258887
-2.36159850287
-2.36271024133
-2.36371782197
-2.36442482307
-2.36493766598
-2.36508266456
-2.36500270035
-2.36457236058
-2.36399295879
-2.36317708195
-2.36233068972
-2.36137179838
-2.36052061592
-2.35970015491
-2.35913914844
-2.35874225428
-2.35864555285
-2.35864834933
-2.35885773784
-2.35896754275
-2.35897674357
-2.35841548848
-2.35712152961
-2.35451086177
-2.35046632089
-2.34436203877
-2.33605370419
-2.3248184879
-2.31033572115
-2.29125685239
-2.26623316369
-2.23377512786
-2.19170862576
-2.13460150473
-2.05478424093
-1.9436311699
-3.60077853147
-3.54867302325
-3.60130445345
-3.61353664538
-3.61355927823
-3.60706009929
-3.59671364081
-3.58390279116
-3.5692878036
-3.55347281776
-3.53673466681
-3.51946678862
-3.50187600175
-3.48428104307
-3.46684041267
-3.44984067281
-3.43337042766
-3.41769214755
-3.40279020671
-3.38888424936
-3.37588847359
-3.36394477044
-3.35287048165
-3.34277567044
-3.33341619596
-3.32481242911
-3.31673530214
-3.30913882976
-3.30181838065
-3.29467670517
-3.28757760165
-3.28039326002
-3.27305543536
-3.2654477868
-3.25757322834
-3.24935065229
-3.24083139922
-3.23200178934
-3.22292851511
-3.21365192513
-3.20425087053
-3.19480038465
-3.18539116583
-3.17611453601
-3.16706497168
-3.15833207566
-3.14999894304
-3.14214039284
-3.13483424222
-3.12813289296
-3.12211405571
-3.11678247522
-3.11207294643
-3.10772949567
-3.10359582148
-3.09938680188
-3.09497923245
-3.09012121431
-3.0847683215
-3.07877102356
-3.07216814216
-3.06494939964
-3.057219984
-3.04903012946
-3.04048446178
-3.03168722173
-3.02271976498
-3.0136950001
-3.00466444094
-2.99571865539
-2.98689812131
-2.97826187794
-2.96984655627
-2.96171604612
-2.95391665244
-2.94645743951
-2.93936174641
-2.93265568571
-2.92630651444
-2.92019926745
-2.91432730045
-2.90885012902
-2.90374293291
-2.8989311399
-2.89462511387
-2.89177976837
-2.89084499032
-2.89177270166
-2.89584269906
-2.90340880267
-2.9134463572
-2.92435177206
-2.93536522451
-2.94454438359
-2.95031234246
-2.95031553564
-2.94271954804
-2.92876652393
-2.91230309189
-2.89241594042
-2.86570791986
-2.8297120766
-2.78650133282
-2.74267185556
-2.70295184529
-2.66886089733
-2.64004461336
-2.61550486001
-2.59423459537
-2.57539193273
-2.55836925942
-2.54268608397
-2.5280182793
-2.51409709969
-2.50078883995
-2.48800843435
-2.47577945068
-2.46426109103
-2.45369013189
-2.44424667374
-2.43571362112
-2.42762908971
-2.41970188917
-2.41190288489
-2.40438907828
-2.39731484055
-2.39080791173
-2.38490699495
-2.3796208917
-2.37489220378
-2.37065889721
-2.36681516232
-2.36326832564
-2.35991681311
-2.35672256653
-2.35377344419
-2.35133924379
-2.34986063121
-2.34972239456
-2.35108511783
-2.35347290571
-2.35613845838
-2.35857003336
-2.36061622996
-2.36235116764
-2.36381410921
-2.36502742183
-2.36594159529
-2.3665508872
-2.36683036889
-2.36681223072
-2.36651301852
-2.36600372494
-2.36532682845
-2.36455973623
-2.36374706451
-2.36297174987
-2.36227430608
-2.36173276913
-2.36135495815
-2.36114618785
-2.36102248166
-2.36093142772
-2.3606810566
-2.3601037442
-2.35885686156
-2.35662949105
-2.35296966361
-2.34759313146
-2.34002430712
-2.3299541155
-2.31679888363
-2.3000332796
-2.27850568111
-2.2509985751
-2.21591972121
-2.17100760272
-2.11167049814
-2.03197179079
-1.92793841987
-3.57954251665
-3.51371597642
-3.60110762747
-3.61042328924
-3.60764453781
-3.59875188125
-3.58659917396
-3.57242176064
-3.55676018916
-3.54009582104
-3.52277091995
-3.50508175105
-3.48727179744
-3.46957771193
-3.45218012518
-3.43528358634
-3.41899414329
-3.40348311495
-3.38877558768
-3.37501085591
-3.36210048001
-3.3501587643
-3.339036659
-3.32878208185
-3.31921708812
-3.31035441468
-3.30199678627
-3.29410244336
-3.28651363245
-3.27913413513
-3.27186404248
-3.26456387146
-3.25720755951
-3.2496422576
-3.24190342813
-3.23387245028
-3.22562538446
-3.21710235837
-3.20839492835
-3.19950259834
-3.19051840769
-3.18148887428
-3.17250291958
-3.16364341613
-3.15498810275
-3.14663815386
-3.13865391015
-3.13113912947
-3.12414429673
-3.11776147091
-3.11204847457
-3.10710040118
-3.10285998061
-3.0990949705
-3.09562397104
-3.0921339417
-3.08845492482
-3.08429935135
-3.07959613293
-3.07417647657
-3.0681057564
-3.0613515549
-3.05405884683
-3.04629914662
-3.03819281186
-3.02983620208
-3.02131951022
-3.01274943747
-3.00417311613
-2.9956699228
-2.98727325543
-2.97904928823
-2.97101197341
-2.96323509348
-2.95580277108
-2.94869599249
-2.94187486341
-2.93548059469
-2.92956356096
-2.92399026957
-2.91870697377
-2.91391253002
-2.90992845788
-2.90668573349
-2.90415897142
-2.90256619985
-2.90192524878
-2.90269112618
-2.90520063352
-2.90950887718
-2.91455683322
-2.91961615081
-2.92374588259
-2.92565769696
-2.92430139185
-2.91848216071
-2.90754272183
-2.89213062284
-2.87382971006
-2.85242404476
-2.82678122258
-2.7962779597
-2.76221523941
-2.72772714134
-2.6952647194
-2.66611323932
-2.64027758581
-2.61747281716
-2.59704854502
-2.57859438346
-2.56159112224
-2.54578330516
-2.53083203313
-2.51661626689
-2.50297726335
-2.489922915
-2.47748332351
-2.46586809917
-2.4552754146
-2.44582309032
-2.4372159899
-2.42907435927
-2.42109107066
-2.41327519523
-2.40570888842
-2.39857094339
-2.39193988991
-2.38589936671
-2.38042384579
-2.37549621915
-2.37102034665
-2.3669175108
-2.36307289751
-2.35940200401
-2.35589164175
-2.35267367119
-2.3501036475
-2.34866308452
-2.34873884018
-2.35040896371
-2.35308755239
-2.35610979732
-2.35889150477
-2.36135700455
-2.36344612058
-2.36525829855
-2.36671503147
-2.36785393222
-2.3686052663
-2.36903370295
-2.36911956216
-2.36895488545
-2.36855200933
-2.36801308723
-2.36735679146
-2.36668044283
-2.36600114492
-2.36540484855
-2.36489105685
-2.36450890385
-2.3641875607
-2.36389554025
-2.36348217068
-2.36281334383
-2.36161012286
-2.35961263828
-2.35640424243
-2.35164909132
-2.34492494024
-2.33591113008
-2.32413403216
-2.30919966248
-2.29036531247
-2.26676467038
-2.23706707628
-2.19989709703
-2.15287123214
-2.09233992999
-2.01360041197
-1.9154095491
-3.56063050997
-3.48158589812
-3.60597005554
-3.60656134629
-3.60170996768
-3.59166529199
-3.57900053092
-3.56449109881
-3.5486853281
-3.53198788379
-3.51474051487
-3.49719709862
-3.47963115458
-3.46221935842
-3.44517016694
-3.42860975163
-3.41266968646
-3.39744072972
-3.38296668999
-3.36930208553
-3.35642416168
-3.34435173643
-3.33300278704
-3.32238256845
-3.31237390305
-3.30295268521
-3.29400399056
-3.28547189569
-3.27726282692
-3.26927745032
-3.26146128233
-3.25367602155
-3.24591804768
-3.23803135649
-3.23005879873
-3.22187543069
-3.21355874381
-3.20502780876
-3.1963837491
-3.18759815246
-3.17876507261
-3.16990924807
-3.16111673029
-3.15245383781
-3.14399329293
-3.13582722629
-3.12801454994
-3.12065711666
-3.11379801008
-3.10755070891
-3.10197681895
-3.09720858828
-3.09328826788
-3.0900235236
-3.08718968802
-3.08444336764
-3.08153482933
-3.07812012534
-3.07409307579
-3.06927384211
-3.06373218852
-3.05745483903
-3.05060650423
-3.0432732732
-3.03560217652
-3.02767448613
-3.01959577992
-3.01146432381
-3.0033162418
-2.99521999647
-2.98721596437
-2.97938673753
-2.9716834206
-2.96418148319
-2.9570747868
-2.95036785631
-2.94389849742
-2.93773193294
-2.93208928724
-2.92697196181
-2.92232961243
-2.91823772753
-2.91471961567
-2.91164721487
-2.90899742246
-2.9067683735
-2.90500187866
-2.903997501
-2.90395675127
-2.90442566496
-2.90488129953
-2.90483108518
-2.90356540503
-2.90043037996
-2.89465072415
-2.88570741939
-2.87319439469
-2.85752565578
-2.83925786233
-2.81860186684
-2.79533478369
-2.76952269209
-2.74200422264
-2.71418890559
-2.68740797803
-2.66240615981
-2.63943112939
-2.6183843931
-2.59903035581
-2.58109998252
-2.56433095288
-2.5485130169
-2.53345360265
-2.51904906889
-2.50521739016
-2.49197484328
-2.47940016308
-2.46768375218
-2.45701795585
-2.44743665126
-2.43867781689
-2.43039397519
-2.42234339855
-2.4144940174
-2.40691779712
-2.39974222808
-2.39305305108
-2.38691273609
-2.381314895
-2.37623225298
-2.37158185507
-2.3672817346
-2.36322023757
-2.35932835349
-2.35560953013
-2.35226683671
-2.34969053673
-2.34837604901
-2.34867728542
-2.35052683319
-2.35338133496
-2.35656482281
-2.35960134814
-2.36234304484
-2.36474594325
-2.36682875236
-2.3685345677
-2.36986081633
-2.37077491405
-2.37132284176
-2.37152487499
-2.37145539849
-2.37115756371
-2.37070803765
-2.37015034966
-2.36955030225
-2.3689428472
-2.36837480518
-2.36785641371
-2.3673924655
-2.3669271066
-2.36638517727
-2.36562616901
-2.3644673563
-2.36264453147
-2.35985363697
-2.35571409636
-2.34985052733
-2.34187976786
-2.33143999785
-2.3181102824
-2.30145458347
-2.28078505935
-2.25523854901
-2.22361932041
-2.18456708967
-2.13595915115
-2.07470156518
-1.99718917814
-1.90340461036
-3.54338267816
-3.44940850927
-3.60890633443
-3.59781524039
-3.59353745507
-3.58397593275
-3.57215145858
-3.55850913187
-3.54357199494
-3.52768190967
-3.51127622508
-3.49454800766