/*--------------------------------*- C++ -*----------------------------------*\
| =========                 |                                                 |
| \\      /  F ield         | OpenFOAM: The Open Source CFD Toolbox           |
|  \\    /   O peration     | Version:  v1806                                 |
|   \\  /    A nd           | Web:      www.OpenFOAM.com                      |
|    \\/     M anipulation  |                                                 |
\*---------------------------------------------------------------------------*/
FoamFile
{
    version     2.0;
    format      ascii;
    class       surfaceScalarField;
    location    "2";
    object      phia;
}
// * * * * * * * * * * * * * * * * * * * * * * * * * * * * * * * * * * * * * //

dimensions      [0 3 -1 0 0 0 0];
oriented        oriented;


internalField   nonuniform List<scalar> 
24170
(
1.11252282342e-07
2.08859064777e-07
2.4568262585e-07
-1.31032634707e-07
2.63460211346e-07
-2.26284873163e-08
2.29743061307e-07
2.93189920673e-08
2.16594335826e-07
6.50944866727e-09
2.00972080523e-07
1.02878424023e-08
1.87972310506e-07
7.03314671485e-09
1.78177967434e-07
4.95077362694e-09
1.70079902899e-07
3.52343763951e-09
1.63425492923e-07
3.3301152609e-09
1.5878785874e-07
1.49771936828e-09
1.58427523911e-07
-1.144909483e-09
1.62843063862e-07
-5.48950060321e-09
1.79822947485e-07
-1.67780413838e-08
2.16185158973e-07
-3.53799196875e-08
2.84169022995e-07
-6.35416516071e-08
4.15734504237e-07
-1.21364019136e-07
-4.10943281822e-07
8.36335301057e-07
6.10869321428e-07
-2.77224361667e-08
3.66003347515e-07
1.37403961249e-07
3.52399071969e-07
6.82355391208e-09
3.46983417464e-07
4.95258039113e-08
3.30297244108e-07
3.51619956214e-08
3.14661906262e-07
3.70867849214e-08
2.95856898004e-07
3.5112283089e-08
2.76508671044e-07
3.24203630168e-08
2.58235733509e-07
2.84976209695e-08
2.44202873581e-07
2.29083832098e-08
2.35802215997e-07
1.41635164959e-08
2.3667020681e-07
1.52348907665e-09
2.42849614941e-07
-8.86177042283e-09
2.59550732489e-07
-3.12329874285e-08
2.95226101698e-07
-6.85594184763e-08
3.50604843204e-07
-1.14419405676e-07
4.48428451701e-07
-2.0985527153e-07
-5.41371147953e-07
5.8211450621e-07
3.76638298328e-07
-4.43136963476e-08
3.82686497233e-07
1.24368317996e-07
3.53895868978e-07
2.80137468084e-08
3.38581583442e-07
5.84303777296e-08
3.20460188612e-07
4.59382681181e-08
3.04158088768e-07
4.72235791039e-08
2.87965980795e-07
4.49855658381e-08
2.73433407509e-07
4.17940014222e-08
2.60902181828e-07
3.6393300479e-08
2.51788078701e-07
2.85885901657e-08
2.46622203726e-07
1.63812348752e-08
2.47687552709e-07
-1.25556777106e-09
2.56577687311e-07
-1.87962179827e-08
2.73613509341e-07
-4.85906806042e-08
3.01668913804e-07
-9.6299410025e-08
3.47874426617e-07
-1.58792748005e-07
4.22470634395e-07
-2.80587653259e-07
-5.63237265616e-07
4.41005489426e-07
4.2725157765e-07
-7.35299397282e-08
4.11422055915e-07
1.43381363218e-07
3.90154182765e-07
5.21941722426e-08
3.79893143126e-07
7.2434972531e-08
3.66494906901e-07
6.22594039802e-08
3.54070951666e-07
6.25254579616e-08
3.41405232591e-07
5.97750775672e-08
3.29689334915e-07
5.52744548162e-08
3.19394143563e-07
4.79111150232e-08
3.11752130842e-07
3.70352445445e-08
3.07511865344e-07
2.10092005803e-08
3.07637425562e-07
-1.11676963198e-09
3.15060623786e-07
-2.60139120798e-08
3.30055697075e-07
-6.33815349076e-08
3.53350842516e-07
-1.18999872466e-07
3.90551223761e-07
-1.94158286333e-07
4.35730790617e-07
-3.22480159033e-07
-5.33185192368e-07
4.06506973629e-07
4.45010130066e-07
-1.06014163541e-07
4.39892549108e-07
1.40851655671e-07
4.2079001132e-07
6.54647563648e-08
4.12608900315e-07
7.62357514334e-08
4.02278741245e-07
6.78258050236e-08
3.93269873067e-07
6.75672471055e-08
3.84612516799e-07
6.43170000418e-08
3.77145513082e-07
5.94631606811e-08
3.71091597281e-07
5.0995608492e-08
3.67371312458e-07
3.86159955414e-08
3.66507448722e-07
2.00983214666e-08
3.69017785847e-07
-4.59787305691e-09
3.7743371732e-07
-3.49149591365e-08
3.91711022093e-07
-7.78299975327e-08
4.11347368274e-07
-1.38543795486e-07
4.38063085452e-07
-2.20058222983e-07
4.5777796492e-07
-3.4066200461e-07
-4.94641866259e-07
4.15448940351e-07
4.71211800545e-07
-1.33715586949e-07
4.71071541832e-07
1.34680292786e-07
4.55793362234e-07
7.71569788833e-08
4.49709448865e-07
8.02062796538e-08
4.42210429182e-07
7.35673114127e-08
4.36025349997e-07
7.21731786687e-08
4.3049682825e-07
6.82817749755e-08
4.26150621927e-07
6.2152077734e-08
4.23324022556e-07
5.22949219288e-08
4.2258584472e-07
3.7714926313e-08
4.24374091501e-07
1.69768489162e-08
4.28882668796e-07
-1.03423193131e-08
4.37955112991e-07
-4.482771284e-08
4.51013527466e-07
-9.16156755971e-08
4.66595042453e-07
-1.54520120333e-07
4.82769967814e-07
-2.35962270095e-07
4.84206517689e-07
-3.41460608346e-07
-4.50856586266e-07
4.42372719434e-07
5.01954744237e-07
-1.58653146149e-07
5.0415734219e-07
1.26971154606e-07
4.92986462112e-07
8.49765803375e-08
4.88768871136e-07
8.20270925225e-08
4.83699774896e-07
7.63590852071e-08
4.79925942165e-07
7.38410927609e-08
4.76975034333e-07
6.92396991082e-08
4.75268489722e-07
6.20439373078e-08
4.75104517612e-07
5.10428450751e-08
4.76846720615e-07
3.4760324844e-08
4.80686307215e-07
1.23974505945e-08
4.86729241891e-07
-1.68198635194e-08
4.95911552486e-07
-5.41613287922e-08
5.07165294067e-07
-1.0303965633e-07
5.18199121956e-07
-1.65672860182e-07
5.2511086268e-07
-2.42509703253e-07
5.16286995718e-07
-3.30426675163e-07
-4.16959863264e-07
4.75060969959e-07
5.36147183112e-07
-1.86581047848e-07
5.39177329205e-07
1.16299802083e-07
5.32174477615e-07
8.66595042677e-08
5.29628757563e-07
8.07345049751e-08
5.26698285799e-07
7.58792050624e-08
5.24977357244e-07
7.26458662945e-08
5.24125242097e-07
6.71653719523e-08
5.24594017052e-07
5.9074408146e-08
5.26488075614e-07
4.6622480229e-08
5.30158820705e-07
2.91437910006e-08
5.35467685689e-07
5.31678706367e-09
5.4245969269e-07
-2.51497182622e-08
5.51190041296e-07
-6.40359783738e-08
5.60204873355e-07
-1.12955423992e-07
5.66697069072e-07
-1.73052396992e-07
5.66869654673e-07
-2.42305085856e-07
5.50374937831e-07
-3.16873709751e-07
-3.81104651157e-07
5.13425977876e-07
5.73259399613e-07
-2.07855700212e-07
5.76131298199e-07
1.1050116831e-07
5.73376629796e-07
8.78444161644e-08
5.7222142799e-07
8.07924151421e-08
5.71211860765e-07
7.5829285332e-08
5.71195024288e-07
7.16330248438e-08
5.72116724557e-07
6.52093485144e-08
5.74275181091e-07
5.59479933719e-08
5.77815548195e-07
4.22808829143e-08
5.82831436847e-07
2.35225439362e-08
5.89148735529e-07
-1.26791404672e-09
5.96473860417e-07
-3.26813648144e-08
6.0435698429e-07
-7.21132072079e-08
6.10853455888e-07
-1.19845440858e-07
6.13400151671e-07
-1.7585856178e-07
6.08037211394e-07
-2.37171027289e-07
5.88923045587e-07
-2.97978443976e-07
-3.52058014984e-07
5.52188052377e-07
6.12726721519e-07
-2.33981054744e-07
6.14615563241e-07
1.01976112705e-07
6.16019280763e-07
8.13382866254e-08
6.16043248411e-07
7.65150986423e-08
6.16784699293e-07
7.13417194983e-08
6.18293284407e-07
6.66379382938e-08
6.20763282916e-07
5.96055442949e-08
6.24388843014e-07
4.93153569317e-08
6.29297208948e-07
3.49161490631e-08
6.3538029297e-07
1.53685330185e-08
6.42218698327e-07
-9.77077773634e-09
6.49337837427e-07
-4.14157743875e-08
6.56071174737e-07
-7.96933660197e-08
6.60036719629e-07
-1.25012326769e-07
6.5920584774e-07
-1.75465262444e-07
6.50489227563e-07
-2.28374769223e-07
6.28519239568e-07
-2.79445678492e-07
-3.21030158423e-07
5.94029924215e-07
6.54583506269e-07
-2.52534081449e-07
6.55263138877e-07
9.9696611654e-08
6.5922129206e-07
7.60776722889e-08
6.60694558339e-07
7.38380260265e-08
6.62828929169e-07
6.77974201642e-08
6.65817297581e-07
6.22708816062e-08
6.69702957374e-07
5.41515820349e-08
6.74803603845e-07
4.28678150768e-08
6.80863392979e-07
2.75004576597e-08
6.87816440479e-07
7.61963058566e-09
6.94769269239e-07
-1.77076653702e-08
7.01589948128e-07
-4.83393225606e-08
7.06866086898e-07
-8.59468160743e-08
7.08656376039e-07
-1.26914216715e-07
7.05018621998e-07
-1.72243722022e-07
6.93578557124e-07
-2.16761648289e-07
6.71447352616e-07
-2.58028868508e-07
-2.92707398057e-07
6.37347303663e-07
5.81712874418e-07
-2.65890710305e-07
5.85034155085e-07
9.256000987e-08
5.87772517543e-07
7.02008973382e-08
5.90665970239e-07
6.84473174084e-08
5.93437884449e-07
6.24754571475e-08
5.97176054286e-07
5.65080461622e-08
6.013927756e-07
4.78140216635e-08
6.06555810367e-07
3.61859107952e-08
6.12507728754e-07
2.05097453991e-08
6.18890721606e-07
7.45589776952e-10
6.24862906238e-07
-2.37834596759e-08
6.29664774947e-07
-5.46007077601e-08
6.33495121788e-07
-8.79737144983e-08
6.32951407684e-07
-1.27886300041e-07
6.28741016832e-07
-1.66311920755e-07
6.179092494e-07
-2.06453477585e-07
5.98697510019e-07
-2.41160005458e-07
-2.70543703191e-07
5.71901420371e-07
7.01479359764e-07
-2.67881410848e-07
7.05846766432e-07
8.66926223647e-08
7.09201394812e-07
6.53921295505e-08
7.13031848776e-07
6.26663535352e-08
7.16674738696e-07
5.71718879921e-08
7.21154106749e-07
4.9840195658e-08
7.2654793055e-07
4.079750227e-08
7.32921243483e-07
2.81272235858e-08
7.40126185972e-07
1.25135593391e-08
7.47356103072e-07
-7.19324848822e-09
7.52976921862e-07
-3.14597487674e-08
7.58515007814e-07
-5.90334744105e-08
7.60212080582e-07
-9.19052201743e-08
7.5981295854e-07
-1.24967103386e-07
7.52475651562e-07
-1.60881038035e-07
7.40627410868e-07
-1.9296859783e-07
7.18409369624e-07
-2.24019322378e-07
-2.45620966558e-07
6.91986475551e-07
8.43740974401e-07
-2.6085940634e-07
8.49938962674e-07
7.90485717982e-08
8.55276129251e-07
5.91271508636e-08
8.60406259832e-07
5.73901036307e-08
8.65523669477e-07
5.07940967246e-08
8.71427543922e-07
4.36609232813e-08
8.77670969526e-07
3.31963753926e-08
8.85110249242e-07
2.08240784888e-08
8.92823582595e-07
4.1599266188e-09
8.99843820897e-07
-1.45439898464e-08
9.05090125811e-07
-3.85336677614e-08
9.08320983049e-07
-6.36964190259e-08
9.09433043903e-07
-9.27886286089e-08
9.0524263971e-07
-1.21977734024e-07
8.9749797735e-07
-1.51693812358e-07
8.81187201185e-07
-1.79238671519e-07
8.60690967602e-07
-2.03179295423e-07
-2.22887006906e-07
8.30406063851e-07
1.01213412822e-06
-2.33986039604e-07
1.02180640487e-06
6.88444097833e-08
1.02936760841e-06
5.14722788184e-08
1.035912172e-06
5.02791803007e-08
1.04338468537e-06
4.43096802951e-08
1.05037643336e-06
3.5913425581e-08
1.05894303982e-06
2.62135462936e-08
1.06692140929e-06
1.23568124699e-08
1.07621050378e-06
-2.63158559194e-09
1.08115330923e-06
-2.31562157071e-08
1.08657010488e-06
-4.29147361216e-08
1.08625777711e-06
-6.80299640943e-08
1.08604287533e-06
-9.07585109599e-08
1.07815201354e-06
-1.17320945823e-07
1.06844788205e-06
-1.39631309296e-07
1.04998922349e-06
-1.63295149533e-07
1.02746429324e-06
-1.80593606913e-07
-1.96512510819e-07
1.00086777326e-06
1.21600429854e-06
-1.82743021015e-07
1.2277662312e-06
5.62191536831e-08
1.23680406515e-06
4.23220542461e-08
1.24582970944e-06
4.19383715533e-08
1.25461589473e-06
3.5228812565e-08
1.2644569452e-06
2.75139112694e-08
1.27340331219e-06
1.68172511204e-08
1.28430668999e-06
4.3617413296e-09
1.29085256749e-06
-1.17117457144e-08
1.29862890485e-06
-2.84600685181e-08
1.29789362719e-06
-4.86821147764e-08
1.30033656493e-06
-6.7471424889e-08
1.29201508829e-06
-8.89397307406e-08
1.28699078122e-06
-1.0758087368e-07
1.26898994911e-06
-1.27513782257e-07
1.25519702277e-06
-1.43117526842e-07
1.22644325181e-06
-1.58617145368e-07
-1.68337931317e-07
1.20573463955e-06
1.4672186594e-06
-1.05192180153e-07
1.47844467008e-06
4.50348904431e-08
1.48787004564e-06
3.22776966436e-08
1.49825110088e-06
3.10585459661e-08
1.50887706764e-06
2.39856398818e-08
1.5196008152e-06
1.62527830491e-08
1.53023373356e-06
6.09963825494e-09
1.53983110322e-06
-5.6102927848e-09
1.54777609574e-06
-1.95049328415e-08
1.5512165304e-06
-3.45459195407e-08
1.5524928512e-06
-5.05744348515e-08
1.54836341776e-06
-6.65120871208e-08
1.5423199481e-06
-8.25338668581e-08
1.52953665256e-06
-9.75819014716e-08
1.5154745064e-06
-1.11698494636e-07
1.49404369256e-06
-1.23975381325e-07
1.47334641828e-06
-1.34519198849e-07
-1.42593149882e-07
1.44391716184e-06
1.77219446881e-06
5.79883369525e-09
1.78441906865e-06
3.17125031688e-08
1.7935591758e-06
2.15036610006e-08
1.80452043641e-06
1.7734319566e-08
1.81623770189e-06
1.05835327319e-08
1.8269193198e-06
2.91300963824e-09
1.83791948779e-06
-5.97814932501e-09
1.84561736576e-06
-1.60357085954e-08
1.85280070475e-06
-2.70347405569e-08
1.85354786435e-06
-3.8839027261e-08
1.85402943928e-06
-5.08835667649e-08
1.84641527567e-06
-6.29020266744e-08
1.8395752788e-06
-7.45263528549e-08
1.82340392664e-06
-8.55246398375e-08
1.80966281774e-06
-9.55125400369e-08
1.78565411918e-06
-1.04354878668e-07
1.76740486514e-06
-1.11722660306e-07
-1.17611951629e-07
1.73677388768e-06
2.15583499424e-06
1.44964068528e-07
2.17214665824e-06
1.3285088316e-08
2.17984541018e-06
1.00545137024e-08
2.1907900861e-06
4.24298031996e-09
2.20112014313e-06
-3.38883875659e-09
2.21062987409e-06
-9.35878998212e-09
2.21947374008e-06
-1.75933480212e-08
2.22452388525e-06
-2.42655113414e-08
2.22889260064e-06
-3.29966862983e-08
2.22665107066e-06
-4.01730935307e-08
2.22453430065e-06
-4.90057814866e-08
2.21375602411e-06
-5.62634704961e-08
2.20477582238e-06
-6.44884974961e-08
2.18596498606e-06
-7.10739668169e-08
2.17097560843e-06
-7.80698935638e-08
2.14505761688e-06
-8.34018139414e-08
2.12665160723e-06
-8.85988721668e-08
-9.20687349737e-08
2.09487544815e-06
1.61110362704e-06
2.17252788069e-07
1.61295278393e-06
9.14276730796e-09
1.61891171334e-06
6.18221388624e-09
1.6203539251e-06
-3.39059976603e-09
1.62731937594e-06
-8.45276270932e-09
1.62659275886e-06
-1.6624391968e-08
1.63305735359e-06
-2.07998604877e-08
1.62895501589e-06
-2.88103533529e-08
1.6332900866e-06
-3.23607114157e-08
1.62450153847e-06
-3.99560278388e-08
1.6247360037e-06
-4.37828577645e-08
1.61120958218e-06
-5.10347196668e-08
1.60753645244e-06
-5.46811641497e-08
1.58958411254e-06
-6.13912527159e-08
1.58231251265e-06
-6.45494758202e-08
1.5608144222e-06
-7.02352553496e-08
1.55160200132e-06
-7.23083476255e-08
-7.6485497221e-08
1.52812508124e-06
1.42108552825e-06
2.5996465743e-07
1.42568131955e-06
6.16553276044e-09
1.42796836231e-06
3.74598652396e-10
1.4313001158e-06
-5.89348853763e-09
1.43050492634e-06
-1.30851516877e-08
1.43273815653e-06
-1.74984922659e-08
1.429819498e-06
-2.38623198362e-08
1.43127831823e-06
-2.71615158723e-08
1.42568230647e-06
-3.2252862951e-08
1.42367453506e-06
-3.52940959279e-08
1.41465470896e-06
-3.95982703667e-08
1.40963741503e-06
-4.28638952476e-08
1.39709953215e-06
-4.71198259313e-08
1.38953827203e-06
-5.02240564756e-08
1.37387595725e-06
-5.41448634638e-08
1.36471154509e-06
-5.66812759429e-08
1.34687831167e-06
-5.9812924314e-08
-6.10512352319e-08
1.33740336668e-06
1.24852065414e-06
2.90678010375e-07
1.25652242319e-06
4.34097781564e-10
1.26075351713e-06
-1.03283514635e-09
1.26059678173e-06
-8.99623797494e-09
1.26067211712e-06
-1.36363964171e-08
1.25831396588e-06
-1.89745750279e-08
1.25723512356e-06
-2.2512668714e-08
1.25448191647e-06
-2.6133978244e-08
1.25087541055e-06
-2.88272836598e-08
1.24601501074e-06
-3.09834616579e-08
1.23864241897e-06
-3.42819630936e-08
1.23155201121e-06
-3.59755910766e-08
1.22185613964e-06
-3.9211212858e-08
1.21253193424e-06
-4.08985562084e-08
1.20099405664e-06
-4.43272040532e-08
1.1902436621e-06
-4.55461107881e-08
1.17843977623e-06
-4.83445018693e-08
-4.90638619405e-08
1.16551901615e-06
1.09889856326e-06
3.01052543445e-07
1.10923210535e-06
-8.92669064049e-09
1.11104968023e-06
-6.00589369591e-09
1.11155018533e-06
-9.64433271842e-09
1.10954005115e-06
-1.4136469517e-08
1.10714934816e-06
-1.79446023239e-08
1.10467460264e-06
-2.10128384493e-08
1.10161693139e-06
-2.32536951272e-08
1.09803367893e-06
-2.51858271618e-08
1.09153338451e-06
-2.74409135934e-08
1.08628470205e-06
-2.8479263909e-08
1.07734059129e-06
-3.07079091323e-08
1.07063731906e-06
-3.17085778309e-08
1.0592407103e-06
-3.42513548399e-08
1.05243284829e-06
-3.47063110016e-08
1.03954566271e-06
-3.70528407709e-08
1.03267946054e-06
-3.7203086276e-08
-3.92510722201e-08
1.01821338016e-06
9.68323944093e-07
3.00822209828e-07
9.79615060811e-07
-2.08526666185e-08
9.80316667746e-07
-4.52248454438e-09
9.78858866886e-07
-1.1280301036e-08
9.76500282766e-07
-1.45395317702e-08
9.73583031113e-07
-1.70532178025e-08
9.70802088303e-07
-1.92238439602e-08
9.67387100429e-07
-2.10579606787e-08
9.63201508879e-07
-2.20756468267e-08
9.57960507679e-07
-2.3000203565e-08
9.51701156635e-07
-2.41482510537e-08
9.44824732443e-07
-2.55898544233e-08
9.36935179783e-07
-2.62346692459e-08
9.29204769651e-07
-2.71780456033e-08
9.20628911625e-07
-2.80902095478e-08
9.1227516051e-07
-2.86332406281e-08
9.02978559683e-07
-2.90125988948e-08
-3.01649416402e-08
8.93369407839e-07
8.51867067881e-07
2.87724828395e-07
8.67398015929e-07
-3.75355747942e-08
8.63412759138e-07
-4.25785638527e-09
8.61534652781e-07
-1.12191672626e-08
8.59215771421e-07
-1.19711022837e-08
8.55798448593e-07
-1.57275123262e-08
8.52754077813e-07
-1.72206773352e-08
8.49500602888e-07
-1.78663024191e-08
8.45362161965e-07
-1.83619401241e-08
8.40264113934e-07
-1.87516397271e-08
8.34096163795e-07
-1.97700646346e-08
8.28418123302e-07
-2.05614943999e-08
8.21192800485e-07
-2.18512351652e-08
8.14455327592e-07
-2.18317912254e-08
8.07252191209e-07
-2.20610951524e-08
8.00282494655e-07
-2.21044757956e-08
7.9102232773e-07
-2.19621034201e-08
-2.21784451812e-08
7.83864302276e-07
7.49950926236e-07
2.68111418772e-07
7.70004520681e-07
-6.11495831745e-08
7.61532354018e-07
3.76354294081e-09
7.58525701645e-07
-1.09039484293e-08
7.55466338485e-07
-1.1767912199e-08
7.52263716307e-07
-1.37955860232e-08
7.4926773923e-07
-1.48212446027e-08
7.45969932322e-07
-1.54611104005e-08
7.42078976341e-07
-1.52968728609e-08
7.37091885222e-07
-1.51034157932e-08
7.31445125896e-07
-1.46267146744e-08
7.26035303612e-07
-1.75147740625e-08
7.20553478392e-07
-1.69677333882e-08
7.1446550179e-07
-1.70378909771e-08
7.08402617535e-07
-1.68919941941e-08
7.02592681598e-07
-1.6309454598e-08
6.94399119691e-07
-1.67428697402e-08
-1.7300969564e-08
6.87049545199e-07
6.76739091658e-07
2.28911395747e-07
6.87433283213e-07
-7.53835193048e-08
6.75473636555e-07
1.42533483923e-08
6.71655264172e-07
-1.29075014038e-08
6.69090901348e-07
-6.60207067852e-09
6.65234155323e-07
-1.1198331618e-08
6.61696714621e-07
-1.12227053056e-08
6.57990143726e-07
-1.14544165818e-08
6.53636413804e-07
-1.10832255786e-08
6.48531607867e-07
-9.69178317096e-09
6.41312632801e-07
-1.14869163628e-08
6.37380418579e-07
-1.16031998827e-08
6.31938610755e-07
-1.25110613643e-08
6.26446456202e-07
-1.21673773461e-08
6.21487841493e-07
-1.19927040628e-08
6.16145751268e-07
-1.15781641233e-08
6.0953899401e-07
-9.55881245143e-09
-7.39212151854e-09
5.95406234821e-07
5.0536326769e-07
2.78671104936e-07
6.21533526586e-07
-1.94324422185e-07
5.96371161543e-07
3.69366204412e-08
5.90056476912e-07
-1.34206366059e-08
5.86088045183e-07
-2.69483204984e-09
5.82181560205e-07
-8.03060002088e-09
5.79241377435e-07
-8.00362980863e-09
5.76942925928e-07
-8.56382995728e-09
5.74728171303e-07
-8.13769136939e-09
5.70891039332e-07
-8.19612151388e-09
5.66361457745e-07
-8.55714524877e-09
5.63996754948e-07
-8.66386288185e-09
5.61259028478e-07
-8.66803884927e-09
5.57721349942e-07
-8.54525551276e-09
5.5433664828e-07
-8.13696102452e-09
5.50993367802e-07
-6.8447794845e-09
5.43354437084e-07
-4.94163700165e-09
-2.34576324055e-08
5.58350049231e-07
9.60880001822e-07
-1.98760767091e-07
5.74906462897e-07
1.88771678362e-07
5.56773153528e-07
5.12595432796e-08
5.63877251875e-07
-2.81369765289e-08
5.57889423289e-07
2.57492096888e-09
5.52871981201e-07
-3.86189695988e-09
5.46837447696e-07
-1.7457287018e-09
5.39717096008e-07
-6.89075035522e-10
5.31479641832e-07
2.10544794432e-10
5.21481636525e-07
-3.38927342818e-10
5.11673736247e-07
-7.61408663763e-10
5.03909401591e-07
3.25106592213e-10
4.95662313267e-07
7.05971395819e-10
4.87217838725e-07
1.34161375085e-10
4.80339292887e-07
-5.18724137573e-10
4.74902132355e-07
-1.55640729046e-09
4.6911742715e-07
2.34645594377e-11
6.80266752848e-08
3.748121008e-07
2.21283706992e-07
4.09796599301e-07
4.60305029545e-07
4.32103930609e-07
4.34576291659e-07
4.30730483094e-07
4.29073969988e-07
4.28442521656e-07
4.28382255682e-07
4.27645499497e-07
4.27062289877e-07
4.27626724134e-07
4.28368529307e-07
4.28607759086e-07
4.28193667929e-07
4.26443074499e-07
4.25845301614e-07
4.93504480712e-07
2.99489622375e-08
-5.71420674259e-08
5.04949976213e-08
-5.83115594171e-08
7.34806658416e-08
-4.57041922499e-08
7.78457361479e-08
-3.23629089068e-08
1.00949375396e-07
-3.11266062908e-08
1.17855560495e-07
-3.00169828317e-08
1.43152529424e-07
-2.73788100693e-08
1.60392604717e-07
-2.52860257747e-08
1.82601831692e-07
-2.33836564388e-08
1.98915511208e-07
-2.19515958022e-08
2.18808867053e-07
-2.05564637994e-08
2.34089419713e-07
-1.94614505021e-08
2.52070329434e-07
-1.83041419227e-08
2.66289857899e-07
-1.73586703234e-08
2.82622892189e-07
-1.63284325325e-08
2.95723136752e-07
-1.54761423413e-08
3.10550639014e-07
-1.45428802444e-08
3.22487862276e-07
-1.3775054814e-08
3.35789297546e-07
-1.29413020731e-08
3.46424334502e-07
-1.22673558091e-08
3.58228428799e-07
-1.15139398254e-08
3.6761368565e-07
-1.09247469059e-08
3.7783411838e-07
-1.02686795484e-08
3.85999100467e-07
-9.7366402944e-09
3.94896625003e-07
-9.14779896215e-09
4.02023266797e-07
-8.68210927541e-09
4.09863777172e-07
-8.14103867851e-09
4.16131386633e-07
-7.71584149607e-09
4.2306216917e-07
-7.23296366318e-09
4.28602594609e-07
-6.85445528995e-09
4.34859152414e-07
-6.40211027888e-09
4.39835834382e-07
-6.06140964321e-09
4.45420169492e-07
-5.6692247032e-09
4.49911039974e-07
-5.36575497749e-09
4.55018112259e-07
-4.99436550062e-09
4.59116584105e-07
-4.73358976877e-09
4.63641039632e-07
-4.41622578121e-09
4.67377619335e-07
-4.17604648332e-09
4.71393645863e-07
-3.89501456735e-09
4.74782422978e-07
-3.68156297587e-09
4.78331902646e-07
-3.43286859095e-09
4.81405366502e-07
-3.23720208268e-09
4.84544254523e-07
-3.01479869144e-09
4.87332920166e-07
-2.8336943933e-09
4.90101172614e-07
-2.63553421478e-09
4.92624701663e-07
-2.46629330301e-09
4.95075195029e-07
-2.29540882109e-09
4.97307451716e-07
-2.1592143144e-09
4.99475808176e-07
-2.03069393435e-09
5.0156086774e-07
-2.00723302256e-09
5.03836523193e-07
-2.24472942563e-09
5.06162365587e-07
-2.31056453399e-09
5.08354335185e-07
-2.17172323241e-09
5.10230559217e-07
-1.94408903402e-09
5.11853594537e-07
-1.66375830031e-09
5.13127538917e-07
-1.37879256844e-09
5.14158133392e-07
-1.08704612558e-09
5.14845938502e-07
-8.06376719285e-10
5.15318847074e-07
-5.19231000472e-10
5.15497714715e-07
-2.46641945917e-10
5.15458886444e-07
7.68100511939e-12
5.15167027448e-07
2.53548512609e-10
5.14738122519e-07
5.00547674327e-10
5.14077363903e-07
6.98074168006e-10
5.13247856195e-07
8.83226171508e-10
5.12334230133e-07
1.06607087759e-09
5.11318502787e-07
1.21011646429e-09
5.1020733173e-07
1.32945011918e-09
5.09108896066e-07
1.42836936286e-09
5.07837667172e-07
1.4764523803e-09
5.06701692698e-07
1.5430103576e-09
5.05335529361e-07
1.52852245245e-09
5.04147645806e-07
1.53123874335e-09
5.02694200958e-07
1.48191407982e-09
5.01564971051e-07
1.49711864745e-09
5.00053079265e-07
1.38713566432e-09
4.98887632248e-07
1.39517857961e-09
4.97434284141e-07
1.31840885574e-09
4.96405645403e-07
1.35902657613e-09
4.94997532576e-07
1.2913356445e-09
4.9392888216e-07
1.37218175152e-09
4.92606611966e-07
1.30407455823e-09
4.91503534188e-07
1.40823393321e-09
4.90306493043e-07
1.71487992037e-09
4.8863320939e-07
1.97915637255e-09
4.87956126817e-07
1.91819714731e-09
4.87106859035e-07
1.66787589664e-09
4.83616852504e-07
2.64128447431e-09
4.80194567898e-07
3.05992607419e-09
4.76100548675e-07
-5.72273293491e-09
4.75142055676e-07
-9.70544009891e-09
4.63737446511e-07
-4.02930827264e-09
4.57292873689e-07
-8.67751595833e-09
4.71137543789e-07
-3.38773522754e-08
4.98362466033e-07
-4.77891236246e-08
4.57496550402e-07
1.0314445145e-08
3.40772934405e-07
8.32854355889e-08
3.0215197655e-07
1.97363229763e-09
3.76874809508e-07
-1.08768832662e-07
5.08104535272e-07
-1.68171412896e-07
7.13326817538e-07
-2.47910416172e-07
9.0741473054e-07
-2.41867159313e-07
8.20412478265e-07
5.21463044316e-08
7.55167492053e-07
4.39286158224e-08
6.99504729907e-07
4.17352170552e-08
6.58498161435e-07
3.16281129491e-08
6.29091747484e-07
2.3239866566e-08
6.07637955857e-07
1.73260230778e-08
5.91586179466e-07
1.3530982507e-08
5.79039714991e-07
1.08920389298e-08
5.69006837324e-07
9.20210221139e-09
5.60572271828e-07
7.90188826115e-09
5.53436674267e-07
7.06837932937e-09
5.47090424737e-07
6.3457133174e-09
5.41514940832e-07
5.9049154731e-09
5.36337333573e-07
5.47193044875e-09
5.31665512092e-07
5.24248260748e-09
5.27335669388e-07
4.99762853083e-09
5.23439879678e-07
4.86539585034e-09
5.19800263067e-07
4.72971990329e-09
5.1621706046e-07
4.59055125008e-09
5.1266133592e-07
4.40069713092e-09
5.09205068761e-07
4.20651831978e-09
5.05864241875e-07
3.93763762021e-09
5.02785354246e-07
3.74704094613e-09
4.99853071535e-07
3.53102085491e-09
4.97134231507e-07
3.40030845902e-09
4.94509899137e-07
3.24283242744e-09
4.92053923927e-07
3.1544727886e-09
4.89671531935e-07
3.0353688918e-09
4.87440899876e-07
2.97752041733e-09
4.85270479462e-07
2.89291205239e-09
4.832407066e-07
2.87414682432e-09
4.81255328165e-07
2.83467959486e-09
4.79423142106e-07
2.8725256209e-09
4.77624659868e-07
2.91061421288e-09
4.75950281696e-07
3.04657362998e-09
4.74407027535e-07
3.27885751751e-09
4.72994232662e-07
3.6050870641e-09
4.71822957092e-07
4.1687948581e-09
4.7040060179e-07
4.60961576315e-09
4.69259291267e-07
5.2756236421e-09
4.67858736944e-07
5.60194991097e-09
4.66743215969e-07
6.03421920433e-09
4.6535921063e-07
6.15241924227e-09
4.64177535903e-07
6.42325986377e-09
4.6267668857e-07
6.4294774708e-09
4.61375077943e-07
6.64072008107e-09
4.59754840513e-07
6.61657412814e-09
4.58363660332e-07
6.82233390993e-09
4.56714973933e-07
6.73604070515e-09
4.55270217835e-07
7.00253038279e-09
4.53511983998e-07
6.96600651374e-09
4.52015950738e-07
7.20521481055e-09
4.50155838505e-07
7.20111929375e-09
4.48478644675e-07
7.5409350381e-09
4.46258918188e-07
7.68420620687e-09
4.4399650635e-07
8.26549309423e-09
4.40843800786e-07
8.71715391501e-09
4.37089419744e-07
9.87275311011e-09
4.31760250521e-07
1.09653239959e-08
4.2521864639e-07
1.27516814324e-08
4.16238347239e-07
1.46622973908e-08
4.05150879449e-07
1.7371236039e-08
3.90657385238e-07
2.02063973022e-08
3.73180184851e-07
2.38336359746e-08
3.51548543374e-07
2.73813709501e-08
3.26419229154e-07
3.15819521739e-08
2.96728146206e-07
3.55130106494e-08
2.63612142305e-07
3.97222873072e-08
2.26430379437e-07
4.31321128254e-08
1.86981979457e-07
4.62699163246e-08
1.45247280276e-07
4.78385470421e-08
1.06310049371e-07
4.60375688896e-08
6.49800730075e-08
4.76355912114e-08
2.35158270423e-08
4.90284063757e-08
-1.7747602323e-08
4.78800307122e-08
-5.62390583986e-08
4.62517146842e-08
-9.11709645024e-08
4.13997231049e-08
-1.77462652129e-09
-8.30368989931e-08
-1.09993539739e-08
-6.0814140488e-08
-1.4182241998e-08
-6.63967819223e-08
-3.42576876661e-09
-6.24778660115e-08
1.23905942636e-08
-5.57350766667e-08
2.92728749323e-08
-5.15953367222e-08
4.23331264177e-08
-4.89963587739e-08
5.94223850952e-08
-4.71612250955e-08
7.49292131811e-08
-4.55922725153e-08
9.36487456922e-08
-4.4039067139e-08
1.1027937397e-07
-4.25030594714e-08
1.29038594609e-07
-4.08584401679e-08
1.45730050804e-07
-3.92045750823e-08
1.63844574613e-07
-3.74963339861e-08
1.80003117895e-07
-3.58158790835e-08
1.97173053862e-07
-3.4134310829e-08
2.12508836739e-07
-3.25113730791e-08
2.28619553731e-07
-3.09211959231e-08
2.42975772404e-07
-2.94166941265e-08
2.57882198371e-07
-2.79556712079e-08
2.7116326404e-07
-2.65780383721e-08
2.84784587699e-07
-2.52690608729e-08
2.96904640797e-07
-2.40379454621e-08
3.09231721848e-07
-2.2855259739e-08
3.20167994304e-07
-2.17570619809e-08
3.31246194478e-07
-2.0690349376e-08
3.41201380253e-07
-1.96759273187e-08
3.51255649122e-07
-1.87024188118e-08
3.60263080042e-07
-1.77853899757e-08
3.69411186301e-07
-1.68881790689e-08
3.7766106808e-07
-1.60418525836e-08
3.8604827201e-07
-1.52205451504e-08
3.93579470683e-07
-1.44562033381e-08
4.01275893546e-07
-1.36927924318e-08
4.08252851064e-07
-1.29854082302e-08
4.15324768369e-07
-1.22955024994e-08
4.2177570975e-07
-1.16498281094e-08
4.28261441108e-07
-1.10195146968e-08
4.34200828018e-07
-1.04413046341e-08
4.40108554556e-07
-9.87247768861e-09
4.45582734065e-07
-9.34225292829e-09
4.50963581996e-07
-8.82522455059e-09
4.55995767987e-07
-8.33891489347e-09
4.60892388347e-07
-7.86695156009e-09
4.65507189282e-07
-7.4206067509e-09
4.69956199647e-07
-6.98957100159e-09
4.74164863081e-07
-6.58300158404e-09
4.78181937315e-07
-6.18741189085e-09
4.81976646844e-07
-5.80622372171e-09
4.85474807521e-07
-5.43086651271e-09
4.88550785223e-07
-5.00371130887e-09
4.90872402245e-07
-4.48340129252e-09
4.93296663207e-07
-4.72085376132e-09
4.95795845245e-07
-4.68227769422e-09
4.98291400429e-07
-4.4717997507e-09
5.00774915364e-07
-4.18978571164e-09
5.03188245444e-07
-3.88298426765e-09
5.0559136701e-07
-3.5542123698e-09
5.07913756277e-07
-3.22311076373e-09
5.10214335099e-07
-2.88271056543e-09
5.12409826262e-07
-2.54442157587e-09
5.14587396031e-07
-2.18355778181e-09
5.16665158931e-07
-1.83554685531e-09
5.18649517558e-07
-1.49614159354e-09
5.20539360168e-07
-1.14463707936e-09
5.2232955773e-07
-8.05201874939e-10
5.23985010299e-07
-4.87445941889e-10
5.25550750099e-07
-1.74342773715e-10
5.26971191642e-07
1.11264801381e-10
5.28295839601e-07
3.74192620016e-10
5.29440436004e-07
5.94693943802e-10
5.30483300268e-07
7.77519722743e-10
5.31296434919e-07
9.17345737883e-10
5.32084194902e-07
1.06564856489e-09
5.32608524202e-07
1.12711261869e-09
5.33109617019e-07
1.20224489036e-09
5.33384628691e-07
1.26045638199e-09
5.33636026707e-07
1.35426498065e-09
5.33714782416e-07
1.38478178761e-09
5.33884164343e-07
1.43932596494e-09
5.33762863061e-07
1.57965303688e-09
5.33475238047e-07
1.90605028903e-09
5.33141218364e-07
1.8674474778e-09
5.32979341218e-07
1.79227328978e-09
5.3211145221e-07
2.97580727763e-09
5.30031222003e-07
4.45079011634e-09
5.29606195849e-07
2.93529303319e-09
5.3094179721e-07
7.9768114684e-10
5.26748616399e-07
8.12271256384e-09
5.11008852005e-07
1.31030720686e-08