/*--------------------------------*- C++ -*----------------------------------*\
| =========                 |                                                 |
| \\      /  F ield         | OpenFOAM: The Open Source CFD Toolbox           |
|  \\    /   O peration     | Version:  v1806                                 |
|   \\  /    A nd           | Web:      www.OpenFOAM.com                      |
|    \\/     M anipulation  |                                                 |
\*---------------------------------------------------------------------------*/
FoamFile
{
    version     2.0;
    format      ascii;
    class       volVectorField;
    location    "2";
    object      U;
}
// * * * * * * * * * * * * * * * * * * * * * * * * * * * * * * * * * * * * * //

dimensions      [0 1 -1 0 0 0 0];


internalField   nonuniform List<vector> 
12225
(
(9.72067681715 0.024542840269 0)
(9.46720709754 0.0326543059535 0)
(9.21869348555 0.0365211014091 0)
(8.97835329106 0.0383838584136 0)
(8.74757060767 0.0390871531621 0)
(8.52680022008 0.039110809491 0)
(8.3160710817 0.0387442336338 0)
(8.1151799128 0.0381642933301 0)
(7.92377315701 0.0374798440655 0)
(7.74140062853 0.036759268801 0)
(7.56754999909 0.036046793546 0)
(7.40166492241 0.0353735451862 0)
(7.24314834193 0.0347641598289 0)
(7.09136534618 0.0342430729375 0)
(6.94561623894 0.033842159691 0)
(6.80504875334 0.033620324812 0)
(6.66852038561 0.0338124512251 0)
(6.5280455179 0.0269373184746 0)
(10.0018548212 0.0465757643316 0)
(10.0082291104 0.0616887283203 0)
(10.0003417562 0.0680105332499 0)
(9.98093919546 0.0707255760135 0)
(9.9530622589 0.0716432494527 0)
(9.91883441748 0.0716711906246 0)
(9.87978504153 0.0712959414148 0)
(9.83705250905 0.070777648768 0)
(9.79148770158 0.0702527524469 0)
(9.74372515806 0.0697927758684 0)
(9.69423166435 0.0694367243884 0)
(9.64333511939 0.0692114222351 0)
(9.59123625172 0.0691431011546 0)
(9.5380096305 0.0692685104986 0)
(9.48357302956 0.0696503977228 0)
(9.42760870507 0.0704163594171 0)
(9.36953328614 0.0719257275422 0)
(9.30274026938 0.0754111451214 0)
(10.0115702571 0.0414001117681 0)
(10.0332004121 0.0562902837158 0)
(10.049846094 0.0620998828424 0)
(10.0609972477 0.0645943572918 0)
(10.0678864948 0.0656921292416 0)
(10.0714327911 0.0662367397075 0)
(10.0722481154 0.0666290364128 0)
(10.0707544418 0.0670535304859 0)
(10.0672409658 0.0675878244248 0)
(10.0619032817 0.0682619346236 0)
(10.0548688155 0.0690891172026 0)
(10.0462108609 0.0700846774336 0)
(10.0359529418 0.0712767795265 0)
(10.0240662697 0.0727183430349 0)
(10.010456799 0.0745057062896 0)
(9.99494955163 0.0768181923902 0)
(9.9774368471 0.0799628447024 0)
(9.95514425129 0.0837694852229 0)
(10.0093596745 0.0354958586481 0)
(10.0284078025 0.0512965549591 0)
(10.0454426993 0.0582960299587 0)
(10.0587863032 0.0618503761788 0)
(10.0691515684 0.0639123274119 0)
(10.077272458 0.0653221649159 0)
(10.0836499738 0.0664810511534 0)
(10.0886146471 0.0675840384211 0)
(10.0923720225 0.0687257937545 0)
(10.0950389799 0.0699564655955 0)
(10.096669444 0.0713107949651 0)
(10.0972713263 0.0728262429075 0)
(10.0968163377 0.0745544616525 0)
(10.095245148 0.0765741539032 0)
(10.0924710576 0.0790092759827 0)
(10.0883930737 0.0820556885543 0)
(10.0829899781 0.0859880199346 0)
(10.074976901 0.0907994595727 0)
(10.0072491299 0.0306057089473 0)
(10.0231823752 0.0467086458652 0)
(10.0387250832 0.0545630244084 0)
(10.0515359352 0.0587694668579 0)
(10.0618408119 0.0612960495161 0)
(10.0701997399 0.0630312959355 0)
(10.0770484644 0.0644184841172 0)
(10.0826914209 0.0656902135898 0)
(10.0873253375 0.0669734223028 0)
(10.0910665421 0.0683447710346 0)
(10.0939726673 0.0698607692038 0)
(10.096058636 0.0715768952808 0)
(10.09730805 0.0735607906873 0)
(10.0976819501 0.0759057199823 0)
(10.097128952 0.0787470734437 0)
(10.0956031584 0.0822809137402 0)
(10.093111993 0.0867685469204 0)
(10.089043559 0.0924108136829 0)
(10.0055996075 0.0264981604105 0)
(10.0188523239 0.0423362728206 0)
(10.0327912611 0.0507814479476 0)
(10.0448203674 0.0555439357077 0)
(10.0547495447 0.0585132993897 0)
(10.0629445835 0.0606033106663 0)
(10.0697561437 0.0622865677175 0)
(10.075449235 0.0638211737741 0)
(10.0802034851 0.0653551182224 0)
(10.0841306288 0.0669817431658 0)
(10.0872915469 0.0687709015369 0)
(10.0897103576 0.070788862484 0)
(10.0913859406 0.073112333597 0)
(10.092302392 0.0758414473136 0)
(10.0924417202 0.0791134422715 0)
(10.0918024228 0.0831153527967 0)
(10.0904331439 0.0880893459942 0)
(10.0880970608 0.0942985540802 0)
(10.0043258985 0.0230307778202 0)
(10.0153289227 0.0382298912699 0)
(10.0277088588 0.0470293013156 0)
(10.0388955495 0.0522565723282 0)
(10.0483883122 0.0556319461835 0)
(10.0563661262 0.0580595469884 0)
(10.0630882454 0.0600269353208 0)
(10.0687745383 0.0618100816487 0)
(10.0735831395 0.063573714849 0)
(10.0776179876 0.0654256212619 0)
(10.0809410886 0.067447774798 0)
(10.0835844926 0.0697162671688 0)
(10.0855614355 0.0723151582292 0)
(10.0868775962 0.0753481696692 0)
(10.0875447198 0.0789490767687 0)
(10.0875989522 0.083289301447 0)
(10.0871281223 0.0885798333319 0)
(10.0861034663 0.0950487599656 0)
(10.0033456446 0.0200887709201 0)
(10.0124793507 0.0344141488825 0)
(10.0233932326 0.0433439485628 0)
(10.0337113149 0.0489259537886 0)
(10.0427293559 0.0526538048442 0)
(10.0504615905 0.0553902217681 0)
(10.0570764161 0.0576248777949 0)
(10.0627464373 0.0596455598668 0)
(10.0676063973 0.0616303736415 0)
(10.0717511086 0.0636992947824 0)
(10.0752428864 0.0659444328877 0)
(10.0781212018 0.0684493013186 0)
(10.0804129728 0.071301930457 0)
(10.0821437807 0.0746047763437 0)
(10.0833511665 0.0784818973846 0)
(10.0841014621 0.0830819495879 0)
(10.0845091685 0.0885751126609 0)
(10.0846799104 0.0951264734891 0)
(10.0025923607 0.0175755030446 0)
(10.0101859061 0.0308938448115 0)
(10.0197564286 0.0397556067942 0)
(10.0292068706 0.0455734943037 0)
(10.0377239208 0.0495900417714 0)
(10.0451876448 0.0525993223357 0)
(10.051681067 0.055079265924 0)
(10.0573293098 0.0573221414826 0)
(10.0622426436 0.0595148398206 0)
(10.0665057641 0.0617861299033 0)
(10.070180481 0.0642352645595 0)
(10.0733128223 0.0669500231847 0)
(10.0759420353 0.0700186423888 0)
(10.0781109195 0.0735377939216 0)
(10.0798776653 0.0776168800575 0)
(10.0813298155 0.0823774208828 0)
(10.0825949594 0.0879463969658 0)
(10.0838713779 0.0944270793887 0)
(10.0020135908 0.0154109190444 0)
(10.0083479514 0.0276593912528 0)
(10.0167150123 0.036284946408 0)
(10.0253238758 0.0422158594065 0)
(10.0333274301 0.0464466815351 0)
(10.0405058642 0.0496833779937 0)
(10.0468665311 0.0523788928515 0)
(10.0524888236 0.0548221691843 0)
(10.0574582479 0.0572036925583 0)
(10.0618485816 0.0596572125759 0)
(10.0657200887 0.0622857252556 0)
(10.0691239418 0.0651780093144 0)
(10.0721095192 0.0684189522182 0)
(10.0747331565 0.0720957930168 0)
(10.0770676998 0.0763000600344 0)
(10.0792130098 0.0811247848832 0)
(10.0812969414 0.0866563014185 0)
(10.0835881059 0.0929470920622 0)
(10.0015673401 0.0135338386399 0)
(10.0068791854 0.0247028014273 0)
(10.014189169 0.032960859662 0)
(10.0220039546 0.0388864573103 0)
(10.0294965851 0.0432490254752 0)
(10.0363810474 0.046656653491 0)
(10.0426017137 0.0495267444948 0)
(10.0481958897 0.0521376211707 0)
(10.053224821 0.0546782603547 0)
(10.057750692 0.0572833652217 0)
(10.0618309647 0.060056258945 0)
(10.0655200925 0.0630834478908 0)
(10.0688747599 0.066443332342 0)
(10.0719605518 0.0702108994439 0)
(10.0748587478 0.0744582899744 0)
(10.0776731976 0.0792510080068 0)
(10.0805235847 0.0846404541407 0)
(10.0837310845 0.0906411912397 0)
(10.0012486312 0.0119982261492 0)
(10.0058042387 0.0221855951171 0)
(10.0122766226 0.0300198499782 0)
(10.0194210221 0.0358505373679 0)
(10.0264607213 0.0402665144884 0)
(10.0330765673 0.043783182233 0)
(10.0391680838 0.0467780160181 0)
(10.0447385082 0.04951358907 0)
(10.0498277363 0.0521730593062 0)
(10.0544868144 0.0548885563561 0)
(10.0587693596 0.0577608587894 0)
(10.0627306792 0.0608716595321 0)
(10.0664309957 0.0642914033372 0)
(10.0699400933 0.0680824649822 0)
(10.0733415512 0.0722990349118 0)
(10.0767369641 0.0769837840865 0)
(10.0802326632 0.0821615345517 0)
(10.0841912564 0.0878225017752 0)
(10.0009966876 0.0106397958234 0)
(10.0049310189 0.0198729355201 0)
(10.0106798322 0.0272087498328 0)
(10.017214483 0.0328506638057 0)
(10.023824113 0.0372416937702 0)
(10.0301759337 0.0408082205333 0)
(10.0361363124 0.0438823336867 0)
(10.0416796551 0.0467049181958 0)
(10.0468264955 0.0494484659663 0)
(10.0516169296 0.0522389373753 0)
(10.0560996115 0.0551714000126 0)
(10.0603289877 0.0583210144498 0)
(10.0643664067 0.0617487373972 0)
(10.0682824497 0.0655042973899 0)
(10.0721592657 0.0696254261253 0)
(10.0760922144 0.0741353973837 0)
(10.0801730688 0.0790386340422 0)
(10.0848002188 0.0843082699698 0)
(10.0007742115 0.00923626300372 0)
(10.0041455699 0.0174153709702 0)
(10.0092090477 0.0241240542199 0)
(10.0151397605 0.0294627356524 0)
(10.0213085174 0.0337438688905 0)
(10.0273854718 0.0373008684964 0)
(10.0332123838 0.04041163812 0)
(10.0387373596 0.0432872102378 0)
(10.0439611781 0.046083312526 0)
(10.0489112114 0.0489146339284 0)
(10.05362925 0.0518672759697 0)
(10.0581662054 0.0550063415542 0)
(10.0625810897 0.05838136436 0)
(10.0669415016 0.0620275422462 0)
(10.071323415 0.0659663337379 0)
(10.0758116106 0.0702027983704 0)
(10.080478188 0.0747243379685 0)
(10.0857522444 0.0794905260399 0)
(10.0005865186 0.00779900461928 0)
(10.0034739734 0.0148329848521 0)
(10.0079228272 0.0207768533111 0)
(10.0132877827 0.0256694708723 0)
(10.0190284863 0.0297172335899 0)
(10.0248335902 0.0331649938401 0)
(10.0305311245 0.0362313336573 0)
(10.0360479544 0.0390903816898 0)
(10.0413660752 0.0418742011827 0)
(10.0464994262 0.0446811192326 0)
(10.0514802731 0.0475834357846 0)
(10.0563527766 0.0506333331378 0)
(10.0611697375 0.0538662824434 0)
(10.0659910014 0.0573028914644 0)
(10.0708817215 0.0609486180486 0)
(10.0759112495 0.0647940367069 0)
(10.0811295084 0.0688130445165 0)
(10.0869904401 0.0729591900123 0)
(10.0004385036 0.00631552779061 0)
(10.0029391084 0.0121068996763 0)
(10.0068791809 0.0171370057699 0)
(10.0117589172 0.0214175925949 0)
(10.017122956 0.0250765103792 0)
(10.0226884917 0.0282801778909 0)
(10.0282802531 0.0311864573013 0)
(10.0338100352 0.0339267009421 0)
(10.0392436978 0.0366027704335 0)
(10.0445808581 0.0392907151685 0)
(10.0498423712 0.0420444897157 0)
(10.0550620448 0.0449003985141 0)
(10.0602822462 0.0478786314097 0)
(10.0655505399 0.0509855081319 0)
(10.0709172189 0.054213473289 0)
(10.0764331144 0.0575422524241 0)
(10.0821249055 0.0609389304357 0)
(10.0884656078 0.0643557350702 0)
(10.0003342174 0.00474979761817 0)
(10.0025613641 0.00917693009922 0)
(10.0061336638 0.0131259375871 0)
(10.0106564819 0.016604997473 0)
(10.0157434961 0.0196881728376 0)
(10.0211419103 0.0224759550792 0)
(10.026679859 0.0250676334643 0)
(10.0322600674 0.0275480457691 0)
(10.0378350331 0.0299838248349 0)
(10.0433908814 0.0324234363423 0)
(10.0489352446 0.0348995413827 0)
(10.0544889665 0.0374300755335 0)
(10.060080513 0.0400207509273 0)
(10.065742273 0.0426651719868 0)
(10.0715070535 0.045347118934 0)
(10.0774066369 0.0480402249809 0)
(10.0834455571 0.0507109513588 0)
(10.0901087483 0.0533157890125 0)
(10.0002786988 0.00302521061061 0)
(10.0023658989 0.00590895024571 0)
(10.0057516555 0.00857172103335 0)
(10.0101010014 0.0110303201306 0)
(10.0150693027 0.0133213086135 0)
(10.0204245697 0.0154892976562 0)
(10.0259990372 0.0175776873056 0)
(10.0316901278 0.0196232391312 0)
(10.0374403654 0.0216539033272 0)
(10.0432239764 0.0236879732543 0)
(10.0490356157 0.0257345361481 0)
(10.0548824124 0.0277936688447 0)
(10.0607780508 0.0298575323932 0)
(10.0667391976 0.0319106516769 0)
(10.0727819771 0.0339314121427 0)
(10.0789212709 0.0358925563353 0)
(10.0851445151 0.0377631582052 0)
(10.0919422814 0.0395078734472 0)
(10.0002883955 0.000979848846592 0)
(10.002413738 0.00201453799813 0)
(10.0058635687 0.00310687749003 0)
(10.0103045818 0.00428431910488 0)
(10.0153928284 0.0055465436024 0)
(10.0208970911 0.00688030465527 0)
(10.0266486256 0.00827027675424 0)
(10.0325417773 0.00970155551356 0)
(10.0385135126 0.0111614485299 0)
(10.0445303072 0.0126366661094 0)
(10.0505770272 0.0141138943593 0)
(10.0566494794 0.0155769309052 0)
(10.0627486553 0.0170081313649 0)
(10.0688778693 0.0183863433379 0)
(10.075039573 0.0196892075773 0)
(10.081235415 0.020891703618 0)
(10.0874407741 0.0219687841174 0)
(10.0941400782 0.0228936511291 0)
(10.0003908505 -0.00109680521739 0)
(10.0027903687 -0.0019256460573 0)
(10.006629197 -0.00239274854475 0)
(10.0114928053 -0.00246878941812 0)
(10.016983609 -0.00220331049814 0)
(10.0228473402 -0.00167362287093 0)
(10.0289109612 -0.000955846118043 0)
(10.035072969 -0.000112560621331 0)
(10.0412750706 0.000806274819382 0)
(10.0474867753 0.00176275537456 0)
(10.0536927604 0.00272511119723 0)
(10.0598863163 0.00366758845172 0)
(10.066063795 0.00456550076371 0)
(10.0722230364 0.00539736236082 0)
(10.0783603681 0.00614108107354 0)
(10.084471631 0.00677724738199 0)
(10.0905275265 0.00728549417795 0)
(10.0970044506 0.00764858748518 0)
(10.0005456956 -0.00302106326884 0)
(10.0033620069 -0.00551887512387 0)
(10.007769687 -0.00730178349188 0)
(10.0132166323 -0.0083689792849 0)
(10.0192256163 -0.00884929689289 0)
(10.0255157908 -0.00889896656796 0)
(10.0319183124 -0.00865505568273 0)
(10.0383448536 -0.00822249621408 0)
(10.0447514284 -0.00767875913387 0)
(10.0511173606 -0.00707926184332 0)
(10.0574338167 -0.00646593144954 0)
(10.0636963396 -0.00586987422712 0)
(10.0699020159 -0.00531739253657 0)
(10.0760470371 -0.00482932818805 0)
(10.0821266447 -0.00442583753135 0)
(10.0881348011 -0.00412332196882 0)
(10.0940426481 -0.00393802757304 0)
(10.1003219455 -0.0038826921739 0)
(10.0007830788 -0.00506007343621 0)
(10.0042205204 -0.00922361145836 0)
(10.0094251993 -0.0121966276615 0)
(10.0156331752 -0.0140716799559 0)
(10.0222697641 -0.0151100594046 0)
(10.0290410386 -0.0155715103195 0)
(10.0357993709 -0.0156579455185 0)
(10.0424845966 -0.0155133816108 0)
(10.0490757839 -0.0152358547212 0)
(10.0555686819 -0.0148932173242 0)
(10.0619647369 -0.0145314095823 0)
(10.0682652436 -0.0141846177622 0)
(10.0744698572 -0.0138768242422 0)
(10.0805755419 -0.0136291798308 0)
(10.0865770892 -0.0134571335793 0)
(10.0924684081 -0.0133770772894 0)
(10.0982208914 -0.0134004927768 0)
(10.1043023921 -0.0135400169007 0)
(10.0011372556 -0.00731554514102 0)
(10.005456455 -0.0131557590997 0)
(10.0117046558 -0.0171610411138 0)
(10.0188254873 -0.0196341150261 0)
(10.0261561515 -0.0210362573646 0)
(10.0334226005 -0.0217485110344 0)
(10.0405247648 -0.0220361968805 0)
(10.0474450776 -0.0220732417871 0)
(10.0541934714 -0.0219719849487 0)
(10.0607862979 -0.0218047433429 0)
(10.0672371458 -0.0216187252146 0)
(10.0735549299 -0.0214455444276 0)
(10.0797421751 -0.0213073982321 0)
(10.0857975568 -0.0212210326696 0)
(10.0917151554 -0.0212007930972 0)
(10.097488876 -0.021259759418 0)
(10.103091071 -0.0214108539927 0)
(10.1089868959 -0.0216657245007 0)
(10.00166153 -0.00989887064899 0)
(10.0071990446 -0.0173960401079 0)
(10.0147467147 -0.0222115783379 0)
(10.0228916258 -0.0250425401337 0)
(10.0309345012 -0.0266136783428 0)
(10.0386735633 -0.027429718493 0)
(10.0460840498 -0.0278066821907 0)
(10.0532027694 -0.0279372166335 0)
(10.0600749265 -0.027938298839 0)
(10.0667385618 -0.0278807843122 0)
(10.0732204777 -0.0278080697128 0)
(10.0795362763 -0.027746305076 0)
(10.0856924741 -0.0277131395325 0)
(10.0916878229 -0.0277199244051 0)
(10.0975158211 -0.0277779039198 0)
(10.1031678981 -0.0278974241372 0)
(10.1086147226 -0.0280939470244 0)
(10.1143136871 -0.0283821238923 0)
(10.0024337092 -0.0129414521564 0)
(10.0096146915 -0.0219894824589 0)
(10.018701055 -0.0273159913565 0)
(10.0279212476 -0.0302513175475 0)
(10.0366453536 -0.0318147740344 0)
(10.04480533 -0.0326138634473 0)
(10.0524740069 -0.0329960186594 0)
(10.0597485689 -0.0331604702785 0)
(10.0667103973 -0.0332216927187 0)
(10.0734187605 -0.0332449593691 0)
(10.0799127472 -0.03326663619 0)
(10.0862146747 -0.0333064598465 0)
(10.0923340039 -0.0333749131601 0)
(10.0982704072 -0.0334776183033 0)
(10.1040155648 -0.0336183167998 0)
(10.109556042 -0.0338041077523 0)
(10.1148578295 -0.0340503844423 0)
(10.1203743495 -0.0343870356572 0)
(10.0035610426 -0.0165987223094 0)
(10.0129016435 -0.0269319387799 0)
(10.0237109933 -0.0324020457728 0)
(10.0339851298 -0.0352017651053 0)
(10.0433174921 -0.0366073496664 0)
(10.0518265933 -0.0372809816184 0)
(10.0596924465 -0.0375735339661 0)
(10.0670716305 -0.0376757242177 0)
(10.0740789568 -0.037691784288 0)
(10.0807928475 -0.0376781280757 0)
(10.0872631607 -0.0376643861003 0)
(10.0935180858 -0.0376646553522 0)
(10.0995706036 -0.037686114345 0)
(10.1054223018 -0.037729681852 0)
(10.1110639367 -0.0377936099258 0)
(10.1164753081 -0.0378779301989 0)
(10.1216039891 -0.0379937470128 0)
(10.126853554 -0.0381848962404 0)
(10.0051794132 -0.0210484941532 0)
(10.0172707724 -0.0321472552651 0)
(10.0298809114 -0.0373594200719 0)
(10.0411079009 -0.0398649909516 0)
(10.0509412165 -0.0411047473778 0)
(10.0597126499 -0.0417444070222 0)
(10.0677045501 -0.0421102167678 0)
(10.0751249506 -0.0423626731827 0)
(10.0821154626 -0.0425773596778 0)
(10.0887682047 -0.0427865402677 0)
(10.0951405125 -0.0430002193836 0)
(10.1012640811 -0.0432187165243 0)
(10.1071547261 -0.0434378957272 0)
(10.1128180389 -0.0436498209906 0)
(10.1182477571 -0.0438423723235 0)
(10.1234220627 -0.0439997099017 0)
(10.1282701297 -0.0441109667464 0)
(10.1331526628 -0.0442186805615 0)
(10.007381444 -0.0265417231406 0)
(10.0226967094 -0.0375581711338 0)
(10.0367362982 -0.0418226275949 0)
(10.048281877 -0.0433595658999 0)
(10.0578523952 -0.0437085809013 0)
(10.0659920187 -0.0435693188549 0)
(10.0730809211 -0.0432831337856 0)
(10.0793807268 -0.0430098970143 0)
(10.0850654696 -0.0428150641054 0)
(10.0902495545 -0.0427159981555 0)
(10.0950069199 -0.0427064392655 0)
(10.0993841878 -0.0427716783683 0)
(10.1034127784 -0.0428919142752 0)
(10.1071158063 -0.0430454474872 0)
(10.1105084942 -0.0432043872326 0)
(10.1135915568 -0.0433259125583 0)
(10.1162931782 -0.043335054839 0)
(10.1187632452 -0.0431363426554 0)
(10.0063133996 -0.0328976891824 0)
(10.0192881266 -0.0450904007185 0)
(10.0261857368 -0.0504115802701 0)
(10.0276412785 -0.0527733306611 0)
(10.0251168478 -0.0536167532725 0)
(10.019675242 -0.0536740260475 0)
(10.0120676601 -0.0533482778166 0)
(10.0028431692 -0.0528604056866 0)
(9.99240528792 -0.0523277176122 0)
(9.98105498428 -0.0518086273268 0)
(9.96901980155 -0.0513295883731 0)
(9.95647496907 -0.0508992086595 0)
(9.9435613606 -0.0505152727055 0)
(9.93039770119 -0.0501689559651 0)
(9.91709012545 -0.0498428149928 0)
(9.90374691977 -0.0494978874275 0)
(9.89045885658 -0.0490309025504 0)
(9.87742566299 -0.0480042327849 0)
(9.83898399521 -0.0181622115492 0)
(9.69541527726 -0.025034809542 0)
(9.55343929768 -0.0286039740659 0)
(9.41502973697 -0.0305914415467 0)
(9.28128155877 -0.0316426581755 0)
(9.15269608776 -0.0321218796708 0)
(9.02947525547 -0.0322512854234 0)
(8.9116523197 -0.0321680197317 0)
(8.79914940844 -0.0319569477932 0)
(8.69181910937 -0.0316705707964 0)
(8.58947247147 -0.0313419045147 0)
(8.49189854854 -0.0309914625579 0)
(8.39888079715 -0.0306309849929 0)
(8.31020852056 -0.0302666692357 0)
(8.22568668242 -0.0298989975932 0)
(8.14515653111 -0.0295163323133 0)
(8.0686113789 -0.0290663033536 0)
(7.99515646675 -0.0281726970803 0)
(0.0422385520581 -0.0926763213947 2.84008606149e-19)
(0.0474842758284 -0.0565593447209 0)
(-0.0549023365797 0.0897565977414 0)
(-0.141125875756 0.145778364475 0)
(-0.230014692517 0.162157881639 0)
(-0.33440275774 0.167735234567 -4.82737204863e-20)
(-0.452789869574 0.169726164384 0)
(-0.579930763715 0.170030851053 0)
(-0.712617413088 0.169279228376 2.90206580378e-20)
(-0.848914993008 0.167784110401 0)
(-0.987509676631 0.165736523781 -2.39815798008e-20)
(-1.12744623036 0.163270207029 0)
(-1.26800927676 0.160485956652 -2.12756132045e-20)
(-1.40864627615 0.157465167194 -2.04281269279e-20)
(-1.54892973748 0.154273919651 0)
(-1.68852471394 0.150967827344 1.93683255352e-20)
(-1.82717315407 0.147592334163 1.90654816588e-20)
(-1.96467584771 0.144185744321 1.88726544569e-20)
(-2.10088474959 0.140778654426 0)
(-2.23569142813 0.137396608031 0)
(-2.36902235033 0.134059323017 0)
(-2.50083038816 0.130783061471 0)
(-2.63109253088 0.127579637727 0)
(-2.75980377519 0.124458826857 0)
(-2.88697554134 0.12142712302 -1.92605153308e-20)
(-3.0126310335 0.118489827631 -1.94550772112e-20)
(-3.13680451267 0.115649716513 0)
(-3.25953742984 0.112909021748 1.98976521939e-20)
(-3.38087836072 0.110267627625 2.01397468634e-20)
(-3.50087964979 0.107724958217 2.03924521296e-20)
(-3.61959672482 0.105278125778 0)
(-3.73708427424 0.102923720439 0)
(-3.85339553457 0.100655487667 -2.11939558863e-20)
(-3.96857812883 0.0984662675497 0)
(-4.08267174719 0.0963457589073 0)
(-4.1957029741 0.09428242595 -2.20241752918e-20)
(-4.30768297441 0.0922609784155 0)
(-4.41860173118 0.0902645890689 0)
(-4.52842367302 0.0882720345676 0)
(-4.63708030481 0.0862601521505 0)
(-4.74446497323 0.0842010435426 0)
(-4.85042535757 0.0820640149144 4.71713431507e-20)
(-4.9547553394 0.079812023304 0)
(-5.05718265998 0.0774041947278 0)
(-5.15735568749 0.0747922726796 4.83917719735e-20)
(-5.25483115053 0.071923468478 4.87039418794e-20)
(-5.34906475121 0.068738493004 0)
(-5.43940187784 0.0651692098959 0)
(-5.52505721105 0.0611347667213 4.92138477338e-20)
(-5.60509187752 0.0565548479215 0)
(-5.67840059054 0.0513701434217 -4.90571844401e-20)
(-5.74378922804 0.0455426783962 0)
(-5.80004693088 0.0390416923085 4.83440188439e-20)
(-5.84595611233 0.0318535966529 0)
(-5.88031754845 0.0239866996491 4.69400738064e-20)
(-5.90202490185 0.015481060975 4.5940728633e-20)
(-5.91002836167 0.00639361437575 0)
(-5.90347646764 -0.00320238154157 0)
(-5.88177056127 -0.0132231215536 0)
(-5.84463299518 -0.0235428762332 3.94816704415e-20)
(-5.79188671496 -0.0340203656827 0)
(-5.72357084797 -0.0444998788771 0)
(-5.63994585673 -0.0548166050323 0)
(-5.54149622248 -0.0647947334136 0)
(-5.42892714707 -0.0742602179507 0)
(-5.30315513771 -0.0830419134499 0)
(-5.16528629577 -0.0909880170989 0)
(-5.01659105982 -0.097966706659 -1.46362585661e-20)
(-4.85846413181 -0.103881199599 0)
(-4.69238790597 -0.108664491769 -6.10399160924e-21)
(-4.51988576496 -0.112289884684 -1.51932204629e-21)
(-4.342485289 -0.114759897902 0)
(-4.16167617497 -0.116111636871 -8.272826466e-21)
(-3.97888487457 -0.116398221683 0)
(-3.79544275375 -0.115694973631 1.89071635893e-20)
(-3.61257033993 -0.114084989678 0)
(-3.43136013575 -0.111660649969 -3.04493925559e-20)
(-3.25278176125 -0.108501018571 3.66009486343e-20)
(-3.07767893148 -0.104688712229 0)
(-2.90675934239 -0.100308524531 0)
(-2.74059033864 -0.0954304929915 0)
(-2.57965627394 -0.09008418811 0)
(-2.42427675518 -0.0843744547061 7.23160990113e-20)
(-2.27455836843 -0.0784584117666 -8.0748699383e-20)
(-2.13062336312 -0.0723337333758 1.79486871429e-19)
(-1.9926639913 -0.065890392273 1.98736460547e-19)
(-1.86041901859 -0.059420487001 2.1943035411e-19)
(-1.73285841457 -0.0534877280204 0)
(-1.60962236074 -0.0479242105964 0)
(-1.49210941508 -0.0419255695372 0)
(-1.38053683053 -0.035650926417 3.21929188364e-19)
(-1.27198499166 -0.0301998013532 0)
(-1.16468901394 -0.0258692800441 0)
(-1.06202133726 -0.0213490317582 4.31683663715e-19)
(-0.96718993485 -0.0159792355956 0)
(-0.876819438234 -0.0112395745465 -5.33409971079e-19)
(-0.783610176709 -0.00927430361295 0)
(-0.685914515168 -0.0101582779574 6.77702791717e-19)
(-0.590108541873 -0.0136887987108 0)
(-0.507099603393 -0.0167345240325 0)
(-0.435545617496 -0.0154077874565 0)
(-0.364423370411 -0.0101854668153 1.24492354994e-18)
(-0.285499105287 -0.00347850078555 0)
(-0.203924270417 0.0029835569426 2.00199238615e-18)
(-0.121531370794 0.00827603611737 2.84993520815e-18)
(-0.0403414095057 0.0142944417718 0)
(0.0373406598825 0.0187823224727 0)
(0.104745730072 0.0173979316926 0)
(0.170704823301 0.0147676386346 2.07755270958e-18)
(0.233947162813 0.0119902945863 0)
(0.294981673619 0.00933069410535 0)
(0.354195182523 0.00689486494792 1.24260372676e-18)
(0.411926418219 0.00470076589576 1.10225382914e-18)
(0.468424892019 0.00275188117232 0)
(0.52391066444 0.0010205610588 -9.03997563167e-19)
(0.578542495295 -0.00051095198838 -8.31116457563e-19)
(0.632466806028 -0.001874982446 7.69883527317e-19)
(0.685786439157 -0.00308900242778 0)
(0.738603675935 -0.00417882550441 0)
(0.79099760314 -0.00515524829917 0)
(0.843051389192 -0.00603328069914 -5.98437787965e-19)
(0.894820245015 -0.00681645492236 0)
(0.946343844395 -0.00751444136691 -5.39874301269e-19)
(0.997626759197 -0.00812740521025 0)
(1.04867067125 -0.00866343692345 0)
(1.0994593486 -0.00911982601859 0)
(1.14998488105 -0.00950135489839 4.53374414786e-19)
(1.20022246007 -0.00980346734872 4.36344839668e-19)
(1.25015051071 -0.0100294123618 0)
(1.29972729864 -0.0101746999646 0)
(1.34891122863 -0.0102423859041 0)
(1.39764120102 -0.0102290075249 0)
(1.44585595083 -0.010138061903 0)
(1.49347695337 -0.00996759058453 0)
(1.54042605984 -0.00972183689576 6.99650207455e-19)
(1.5866108155 -0.00940059057708 0)
(1.63194009103 -0.00900899763441 0)
(1.67631134513 -0.00854892770179 0)
(1.71962545128 -0.00802668047568 -6.3662685195e-19)
(1.7617789311 -0.00744593991557 -6.23822373523e-19)
(1.80267594691 -0.00681296210229 6.12044694503e-19)
(1.84222019926 -0.00613304869188 6.01232528184e-19)
(1.8803174759 -0.00541321472267 0)
(1.91687249873 -0.0046612414559 0)
(1.95179407627 -0.00388688814421 0)
(1.98499990516 -0.00310018714186 5.66537823856e-19)
(2.01641918076 -0.00231613440828 0)
(2.04598853759 -0.00154676283915 0)
(2.07366252105 -0.000793811600697 -5.48234867958e-19)
(2.09941999469 -5.6756242436e-05 0)
(2.12326129292 0.000660435799861 -5.3909235388e-19)
(2.14520266172 0.00135102094903 0)
(2.16527659638 0.00200640756198 -5.32028963238e-19)
(2.18353067282 0.00261806461464 0)
(2.20002768402 0.00317792110417 0)
(2.21484289001 0.00367932928547 0)
(2.22806352507 0.00411576727592 0)
(2.23978736386 0.0044808901139 0)
(2.25012098013 0.00476965724112 0)
(2.25917386165 0.00497889101057 0)
(2.26705869545 0.00510657600876 0)
(2.27389200962 0.0051520088902 -5.18075078212e-19)
(2.27978636639 0.00511774453182 0)
(2.28482216314 0.00500806262962 0)
(2.28925652805 0.00484511425005 -5.1718034908e-19)
(2.29301925001 0.00466863791802 0)
(2.29595515596 0.00450761000751 0)
(2.29788423868 0.00438588714249 -5.17599891176e-19)
(2.29858969739 0.00432851287039 0)
(2.2977983155 0.00436522817247 0)
(2.29516476892 0.00452391722255 -5.20829928479e-19)
(2.29025431148 0.00483267008962 5.22910329898e-19)
(2.28250059177 0.00533285519615 -5.25719899009e-19)
(2.27114195779 0.00608226798116 0)
(2.25513938337 0.00716378132807 0)
(2.23305041229 0.00870141392231 -1.08234136457e-18)
(2.2028242123 0.010891299013 0)
(2.16133870198 0.0140773434856 1.12508712491e-18)
(2.10591154707 0.0188005062274 1.1597658823e-18)
(1.97300150672 0.0288702624938 0)
(-0.0292490084451 0.0596670491939 -4.25971126871e-19)
(-0.123213600056 0.185236568714 0)
(-0.227185092934 0.263732822475 1.0578676744e-19)
(-0.330524203085 0.31775697141 -8.230718534e-20)
(-0.433772315902 0.351155941721 -6.82350399348e-20)
(-0.546353325743 0.372163847238 2.89584471086e-20)
(-0.668131556897 0.385669395706 5.15588238972e-20)
(-0.796067286894 0.394205278631 0)
(-0.928127606445 0.399163479738 -2.09818551025e-20)
(-1.0628603162 0.401412559778 3.98873852957e-20)
(-1.19918948491 0.401545102988 5.63631548411e-20)
(-1.33629618521 0.399997172925 -3.62867876306e-20)
(-1.47355069259 0.397106993506 5.24398542982e-20)
(-1.61046323988 0.393148178731 1.68803555416e-20)
(-1.74665521599 0.388346082202 0)
(-1.88183425036 0.382889786268 -1.6503226088e-20)
(-2.01577929101 0.376937443976 -1.64531379836e-20)
(-2.14832547953 0.370622539643 -1.64725662294e-20)
(-2.279355342 0.364055983497 3.3632658596e-20)
(-2.40878874277 0.357330765516 0)
(-2.53657726435 0.350523003754 3.41543459898e-20)
(-2.66269699124 0.343695826338 0)
(-2.78714488882 0.336899766402 -3.49381857317e-20)
(-2.90993387209 0.330176364049 0)
(-3.03109064589 0.32355796476 5.36576685945e-20)
(-3.15065176154 0.317070807769 -1.84121326984e-20)
(-3.26866207977 0.310734260062 -3.70027972655e-20)
(-3.38517218752 0.304563354616 -5.62056551455e-20)
(-3.50023760905 0.298567302134 -1.89270849005e-20)
(-3.61391604607 0.292751685524 -1.9242724358e-20)
(-3.72626624267 0.287116445378 0)
(-3.83734561837 0.281657668001 -4.00790745833e-20)
(-3.94720889761 0.276364918749 2.02159794914e-20)
(-4.05590478378 0.2712231511 0)
(-4.16347371781 0.266209862271 0)
(-4.26994424331 0.261296964634 2.12004785951e-20)
(-4.37533020522 0.256447632881 0)
(-4.47962670081 0.25161824049 0)
(-4.58280462388 0.246754760942 0)
(-4.68480476782 0.241795127752 0)
(-4.78553311535 0.236665345931 0)
(-4.88485482341 0.231280598453 4.67088868745e-20)
(-4.98258450378 0.2255397166 9.39187482746e-20)
(-5.07847420558 0.2193274911 0)
(-5.17219259842 0.212508796002 4.83220381991e-20)
(-5.2633160135 0.204931463684 -4.80239138386e-20)
(-5.35132450756 0.196424339219 0)
(-5.43559164543 0.186790147114 0)
(-5.51534842863 0.175801829935 -1.47497601888e-19)
(-5.58960860868 0.163228932977 -9.89103381629e-20)
(-5.65715421051 0.148889827791 4.89220009428e-20)
(-5.71669351069 0.132648095678 9.86978156326e-20)
(-5.76691280826 0.114402282656 4.96975015628e-20)
(-5.80644943087 0.0941092450611 0)
(-5.83404038234 0.07179706177 -1.43293180401e-19)
(-5.84832373826 0.0475845159383 -4.64377019125e-20)
(-5.84802088861 0.0216413050426 0)
(-5.83204700356 -0.00579869957834 8.93069754331e-20)
(-5.80021790751 -0.0343997443798 -8.56837439664e-20)
(-5.7523511067 -0.0637949307255 -4.00128717332e-20)
(-5.68820153283 -0.0936207840471 0)
(-5.60776081406 -0.123465490624 0)
(-5.51127640243 -0.152880377341 0)
(-5.39926194571 -0.181384894576 6.00647297071e-20)
(-5.2724949602 -0.208493764684 0)
(-5.1320056183 -0.233731404713 -4.63510405299e-20)
(-4.97905056071 -0.256666919855 0)
(-4.81507870788 -0.276929769868 -1.59581323651e-20)
(-4.6416814468 -0.294238429428 0)