/*--------------------------------*- C++ -*----------------------------------*\
| =========                 |                                                 |
| \\      /  F ield         | OpenFOAM: The Open Source CFD Toolbox           |
|  \\    /   O peration     | Version:  v1806                                 |
|   \\  /    A nd           | Web:      www.OpenFOAM.com                      |
|    \\/     M anipulation  |                                                 |
\*---------------------------------------------------------------------------*/
FoamFile
{
    version     2.0;
    format      ascii;
    class       volScalarField;
    location    "15";
    object      pa;
}
// * * * * * * * * * * * * * * * * * * * * * * * * * * * * * * * * * * * * * //

dimensions      [0 2 -2 0 0 0 0];


internalField   nonuniform List<scalar> 
12225
(
-9.94274759244
-10.7785496581
-9.84865950024
-10.0294584444
-9.72893961028
-9.4230616977
-8.82237504135
-7.90848605141
-6.64800321479
-5.22849885361
-3.93523149547
-3.16529688069
-3.2315030995
-3.76870795654
-2.77231188971
3.38394362668
15.3816717382
18.7152640911
7.04581865544
0.631407721791
0.855588623859
1.0920855746
1.71463516945
2.503718724
3.57548281903
4.90174189095
6.42076091405
7.92589265595
9.18259073657
9.91550382148
10.0392835031
10.2471551971
12.5453718812
19.3722219833
28.377819648
24.6372273238
-11.7755111401
-4.86645548489
-5.1200763651
-5.15185912229
-4.87196763021
-4.41573864509
-3.68035133086
-2.73161734281
-1.65669993586
-0.672406255007
-0.00291350916046
0.135243102355
-0.19666001183
-0.176558745007
2.06015188561
8.1248863622
15.0578227743
12.8209069602
8.17393422931
-1.42002746456
-2.18951094585
-1.9208454367
-1.55262601111
-0.965905461386
-0.141305142295
0.871550766621
1.95916522263
2.90770735746
3.47835381092
3.46181796516
2.9490332267
2.66239813041
3.94960108846
7.40903800689
10.2074602858
7.06137376561
-11.6146917439
-4.9019877465
-4.14159704776
-4.15560311164
-3.78554906636
-3.27176917757
-2.50118291183
-1.53728330253
-0.46432424005
0.549264296093
1.3148790641
1.69179210909
1.81412183623
2.26221396477
3.81060175125
6.24136152507
7.16541430884
4.15373005489
0.580564854496
-3.20803908253
-2.90060888074
-2.81821282171
-2.54018283354
-2.16172237661
-1.60725447915
-0.93262530563
-0.20846667243
0.440856394623
0.892703873243
1.10008344271
1.25185411628
1.8088017654
3.1373266706
4.67089477986
4.6992000028
2.25044206416
-4.4846031556
-3.75100807459
-3.24031612963
-3.02591458206
-2.66886619951
-2.23195399763
-1.66863617206
-1.03422728598
-0.399177486592
0.135190615746
0.487447140119
0.66613414669
0.862983422578
1.39816881965
2.36788919912
3.17381543792
2.75937243535
0.83195021487
-3.2379358097
-3.6151783113
-3.12209548059
-2.89826700603
-2.56203186844
-2.16792796566
-1.67817707445
-1.14361199773
-0.626323641139
-0.204900593064
0.0720182423004
0.240837531559
0.459731295047
0.911355434293
1.5352669983
1.83829010764
1.23585439717
-0.294732703757
-3.43556185329
-3.47981538387
-3.0527001497
-2.794321684
-2.47439921386
-2.11435012119
-1.69356357049
-1.25275325986
-0.843204435926
-0.520697890839
-0.307592216848
-0.157638324629
0.0420806347906
0.369707608905
0.701821800066
0.685937132638
0.0281555877859
-1.21124802882
-3.4320319813
-3.35260792624
-2.97902644516
-2.71073001473
-2.41352443068
-2.09100733772
-1.7357063151
-1.37950170639
-1.06266748431
-0.82189935405
-0.662499650527
-0.541634692334
-0.390807461742
-0.197546848144
-0.0899872314042
-0.295431554855
-0.946546096145
-1.97244339286
-3.43741178802
-3.23181203837
-2.9180854939
-2.6554241437
-2.3883258585
-2.10606510549
-1.8124739413
-1.53140986876
-1.29304487311
-1.11941695017
-1.00730969311
-0.924437302118
-0.837649044272
-0.767823609914
-0.820778779032
-1.13153698324
-1.75042312282
-2.61475523385
-3.42467145797
-3.14159195877
-2.89398497894
-2.64803980592
-2.41358946204
-2.16966487844
-1.92849320634
-1.70766749448
-1.52951576428
-1.40721017141
-1.33508915116
-1.29178461252
-1.26631961815
-1.28986664891
-1.44058257163
-1.79828695056
-2.37653286357
-3.12619378726
-3.38929650746
-3.06893145615
-2.89157920835
-2.66923230406
-2.46890744859
-2.26282033095
-2.06935430532
-1.90125258605
-1.7748186455
-1.69726944657
-1.66270956774
-1.66074379348
-1.69251725899
-1.78838315163
-2.00393058894
-2.38131611405
-2.9184237848
-3.57274393894
-3.34741803416
-3.01675213232
-2.90779833
-2.71934835888
-2.55894144667
-2.39583803534
-2.25239392473
-2.13744194042
-2.06231291888
-2.03020287375
-2.03862807216
-2.08195037754
-2.16873076675
-2.32398132942
-2.58141473691
-2.96241589122
-3.45202846023
-4.020828775
-3.31333120379
-2.99450475989
-2.94315766478
-2.79724043825
-2.68102505682
-2.56618164597
-2.47472150798
-2.41349562542
-2.3895019717
-2.4061737734
-2.45887622379
-2.54989588985
-2.68477755248
-2.88259484543
-3.16169919744
-3.53036990536
-3.97139836686
-4.45958133492
-3.29607054829
-3.00900608807
-3.00381319961
-2.9036140282
-2.83320561739
-2.76840758324
-2.72872616166
-2.71973327407
-2.74648743952
-2.80894432423
-2.90744459341
-3.03977993602
-3.21336834034
-3.4362667078
-3.72134597675
-4.06643186743
-4.45871293961
-4.87446772831
-3.33094243532
-3.08539848993
-3.11361499309
-3.06038934766
-3.0357337913
-3.02006043231
-3.02973398734
-3.06908300538
-3.14080979699
-3.24533247625
-3.38027126688
-3.54525404752
-3.74204481444
-3.97669788319
-4.253321496
-4.57063337302
-4.91360889681
-5.26731080345
-3.38905691869
-3.21551716088
-3.27721994375
-3.27220672166
-3.29077920365
-3.32113267742
-3.37467784143
-3.45549161695
-3.56412810851
-3.70016017031
-3.86067326824
-4.04434340768
-4.25086864318
-4.4833873152
-4.74354984097
-5.02906484733
-5.32695845999
-5.62506237947
-3.4541802644
-3.37134828069
-3.46537419129
-3.50535705172
-3.56117043439
-3.62933973351
-3.7170160967
-3.82865750902
-3.96259550557
-4.11844667931
-4.29185220035
-4.48170534815
-4.68581972764
-4.90682814745
-5.14497085882
-5.39847170467
-5.65585493477
-5.90576574905
-3.79194883179
-3.65875288048
-3.76598110449
-3.82776466419
-3.90327789302
-3.99428201227
-4.0995701551
-4.22933048292
-4.37463905786
-4.54017104411
-4.7168354334
-4.90650232206
-5.10384966
-5.31352723605
-5.533973944
-5.76557658731
-5.99681822344
-6.22183970175
-3.11185316056
-3.32345047677
-3.46930743176
-3.54104925382
-3.62498897666
-3.72072778435
-3.83478597834
-3.96633772374
-4.11603505263
-4.27866636379
-4.45378364658
-4.63612807794
-4.82586999963
-5.02251695544
-5.22863236979
-5.44089262041
-5.6499064844
-5.83408750268
-5.80730437443
-4.64328999406
-4.67063220097
-4.72044576744
-4.82411962479
-4.93822720033
-5.07311697552
-5.22209168067
-5.3825968186
-5.55410853313
-5.73135855624
-5.9125585523
-6.09562764757
-6.28306565318
-6.47503633651
-6.67210487437
-6.86852003886
-7.0875612863
1.03857649383
-1.83933547271
-2.19718982203
-2.25318688912
-2.32462230633
-2.42379259158
-2.5409656972
-2.67575149636
-2.82460669698
-2.98446113698
-3.15462108744
-3.33110862896
-3.51238741052
-3.69728315193
-3.89036282363
-4.0867705432
-4.27839856305
-4.38478189235
-14.2119645881
-6.71067942411
-6.02211798067
-6.01150216272
-6.13835487639
-6.27146748185
-6.42828120365
-6.59159908961
-6.76107168145
-6.93535019549
-7.11137494513
-7.28821052581
-7.46549123325
-7.64395863116
-7.82279594809
-7.99970622431
-8.16945672533
-8.43206118502
12.7779279165
-0.404502256277
-1.81746331787
-1.80189696808
-1.90386394421
-2.03591064368
-2.17815317908
-2.32468719541
-2.46986452339
-2.61273336387
-2.75481012683
-2.89633788414
-3.03734186949
-3.17880606172
-3.32049880254
-3.46396310055
-3.60970488105
-3.63031878355
-29.4047208262
-7.826219614
-5.14083449992
-5.33932637048
-5.43851230789
-5.57859962542
-5.72813672886
-5.88821517452
-6.0602329488
-6.24731771391
-6.45567423414
-6.68929707261
-6.9467878291
-7.22333225272
-7.50703806992
-7.77506619526
-7.99477933159
-8.29248052071
23.5299652765
1.54636606372
-1.56598980719
-1.20753326293
-1.41676826239
-1.5377676263
-1.69533820559
-1.84282426741
-1.98794291434
-2.12953645927
-2.27211449419
-2.41842920822
-2.56150560091
-2.69045013487
-2.78983087457
-2.85155071677
-2.89719140575
-2.82499344682
-26.3320370598
-7.22469730402
-6.29970578669
-6.45751962007
-6.63243590532
-6.80775345059
-6.97332856986
-7.14656139143
-7.31622341596
-7.48242539658
-7.6464810364
-7.80882618218
-7.96600696227
-8.11621141981
-8.25869678001
-8.39663750576
-8.5415330445
-8.87668368525
11.4475663035
1.70974025351
1.86810064571
1.66190596978
1.52672212517
1.33535013527
1.15072028814
0.957269780421
0.76128349524
0.565910878393
0.369480731825
0.170435737394
-0.0330828971721
-0.251040713576
-0.496414405307
-0.782967263361
-1.14795702874
-1.39922485015
-13.1878380879
-12.1637577433
-12.1586189262
-12.0786691665
-12.083930688
-12.0794683435
-12.1044106752
-12.1349670468
-12.1727956085
-12.2070059998
-12.2336233725
-12.2492093051
-12.2531484665
-12.2562106563
-12.2749773155
-12.2972438584
-12.2355836909
-12.0978953705
-12.6587336168
-12.6478253108
-12.6394276639
-12.6233064481
-12.5961377904
-12.5577756477
-12.5032430396
-12.4315569403
-12.3537295802
-12.2792996518
-12.2154877338
-12.165924285
-12.1301014076
-12.1061867313
-12.0898904402
-12.077941122
-12.0662909007
-12.0523818213
-12.0339763628
-12.0095749615
-11.9785450839
-11.9401166883
-11.8948409276
-11.8423055838
-11.7837748935
-11.7191954716
-11.649964392
-11.5762862881
-11.4996204118
-11.4204780114
-11.3399679863
-11.2587796947
-11.1776081479
-11.0972039081
-11.0177759729
-10.9400858757
-10.863966929
-10.7899701746
-10.7179493133
-10.6482355475
-10.58074376
-10.5155757136
-10.4529209786
-10.3926068211
-10.3351756507
-10.2801195701
-10.2283258653
-10.1790629541
-10.1333193297
-10.0903605114
-10.0512212472
-10.0151813721
-9.98322799948
-9.95499154173
-9.93111402518
-9.91148229934
-9.89662373108
-9.88650749081
-9.88144843738
-9.88139088161
-9.88657443904
-9.89677670408
-9.91172960787
-9.92956246584
-9.94626297296
-9.96148012427
-9.97667485183
-9.99347078027
-10.0124916505
-10.0349068117
-10.0602030808
-10.0893366494
-10.1210837338
-10.1563953823
-10.1936805305
-10.2338841758
-10.2754690943
-10.3195592604
-10.3654250935
-10.4146540816
-10.4669469275
-10.5241931324
-10.5867543532
-10.6569436604
-10.7354710253
-10.8245987
-10.9252991681
-11.0397471823
-11.169051871
-11.3166288785
-11.4844812007
-11.6726947389
-11.8794027514
-12.0994887957
-12.3267564047
-12.553537089
-12.7735177731
-12.9787225411
-13.1609430311
-13.3137714458
-13.4384875217
-13.5394615327
-13.6225759043
-13.690148767
-13.7685880617
-13.8785134512
-14.0237193145
-14.1778630085
-14.3565626148
-14.5560754478
-14.727022551
-14.8591329872
-14.9596347501
-15.0403004099
-15.1067569162
-15.1624048247
-15.2095678933
-15.2495203559
-15.2832892239
-15.3115279502
-15.3351417319
-15.354874159
-15.3716278473
-15.3859123449
-15.3983723077
-15.409406274
-15.4197199594
-15.429736196
-15.4400194434
-15.4506239746
-15.4617468455
-15.4732378193
-15.4849943964
-15.4966687986
-15.5082909476
-15.5196581192
-15.5311507139
-15.5427002142
-15.5542153841
-15.5650704756
-15.5749769387
-15.584034655
-15.5927474442
-15.6016651146
-15.6111674244
-15.6214361795
-15.6326105965
-15.6446440429
-15.6574785264
-15.6707975351
-15.684333877
-15.6974958258
-15.7098190333
-15.7204395244
-15.7287655943
-15.7337041795
-15.7345915562
-15.7300664342
-15.7193457363
-15.7006310021
-15.6728150412
-15.6336193741
-15.5817984039
-15.5145987961
-15.430752823
-15.3276142564
-15.2046365198
-15.0597923039
-14.8933464934
-14.7032680943
-14.4891139995
-14.2462600664
-13.9693778013
-13.6478538589
-13.2732002815
-12.8342710235
-12.3247203067
-11.7406111185
-11.08363398
-10.3526903713
-12.6564789822
-12.6509768412
-12.6351081693
-12.5983525995
-12.546257858
-12.4752261683
-12.3892405374
-12.3010140215
-12.221089964
-12.155736916
-12.106996863
-12.0737779283
-12.052623892
-12.0401279745
-12.0322919067
-12.0263587276
-12.0196703047
-12.0105991054
-11.9979625782
-11.9809768697
-11.9596423451
-11.9335955606
-11.9035621312
-11.869587315
-11.8328184482
-11.7935047914
-11.7530078958
-11.7118128224
-11.6712860045
-11.6321555679
-11.5955981813
-11.5624645098
-11.5335851035
-11.5098898172
-11.4918713806
-11.4802634853
-11.4752972041
-11.4775413976
-11.4870328457
-11.504112583
-11.5287899873
-11.5611153484
-11.6011298189
-11.6486036056
-11.7036421609
-11.7657355812
-11.8350020385
-11.9107325409
-11.9930412281
-12.0810544935
-12.1747680228
-12.2735201891
-12.3772370834
-12.4853453552
-12.597588703
-12.7134087972
-12.8323822308
-12.9540500302
-13.077879965
-13.203510569
-13.3304501352
-13.4586164907
-13.5886325106
-13.723860008
-13.8684816491
-14.0185370564
-14.1700785475
-14.3208985175
-14.4689233435
-14.612991516
-14.7515769882
-14.8841747066
-15.009737309
-15.1283556577
-15.2394563858
-15.3433944349
-15.4399122403
-15.5295837317
-15.6124443792
-15.688872705
-15.7585101279
-15.8211795981
-15.876162876
-15.9228210997
-15.9602613835
-15.9879416522
-16.0056784186
-16.0139723378
-16.0144791477
-16.0113884738
-16.0093866324
-16.0109946539
-16.0171761463
-16.0279959685
-16.0411095948
-16.0510477732
-16.052205109
-16.0395193484
-16.0058551662
-15.9417189487
-15.8450588675
-15.7144960869
-15.5502173489
-15.3605254105
-15.1617451534
-14.9659331495
-14.797070707
-14.6565728068
-14.525277663
-14.3890380835
-14.3028443487
-14.2512719649
-14.211256938
-14.1804782057
-14.1569015732
-14.1393860121
-14.1268876221
-14.1183585106
-14.1127982824
-14.1094378482
-14.1078079712
-14.1076889629
-14.1089472576
-14.1114155917
-14.1148876046
-14.1191776521
-14.1241152182
-14.129493933
-14.135078143
-14.1406994242
-14.1464456509
-14.1522461615
-14.1582053705
-14.164450341
-14.1715592845
-14.1804060662
-14.1913901499
-14.2046162545
-14.2198469636
-14.2365650829
-14.254460164
-14.2737333159
-14.2949229018
-14.318589137
-14.3450428186
-14.3744204789
-14.4066709306
-14.4416023072
-14.4789340541
-14.5182900929
-14.5591766439
-14.6009431512
-14.6428569801
-14.6840348345
-14.7235985396
-14.760511834
-14.7938487343
-14.8223996622
-14.8450473413
-14.860253429
-14.8667593619
-14.8627056669
-14.8466033014
-14.8162840917
-14.7702733207
-14.7062754076
-14.6231481121
-14.5186637877
-14.3917649142
-14.2396357176
-14.0599778603
-13.8467150897
-13.592914867
-13.2892532949
-12.9294328574
-12.5065643043
-12.0195467753
-11.4685339357
-10.8535589368
-10.1298953133
-12.6258095835
-12.6307053063
-12.620023418
-12.5956378276
-12.5613884667
-12.5149251762
-12.4624117599
-12.4158009131
-12.3856243403
-12.3756874934
-12.383983995
-12.4060161112
-12.4363017951
-12.4708870776
-12.5061914958
-12.5403428588
-12.571569177
-12.5990462885
-12.6220038523
-12.6399573806
-12.6526375814
-12.6597278884
-12.6613568239
-12.657260832
-12.6479306086
-12.6333111305
-12.6140636144
-12.5903615167
-12.5630315368
-12.5324730406
-12.4994918513
-12.4646499434
-12.4286594577
-12.3920916735
-12.3554286299
-12.3192691578
-12.2838479659
-12.2496117443
-12.2167436088
-12.1855300352
-12.1560720086
-12.1284797513
-12.1028555266
-12.079106229
-12.0573646413
-12.0373401122
-12.0192012411
-12.002536232
-11.9874799982
-11.973663989
-11.9612385891
-11.9498266455
-11.9396692356
-11.9305947913
-11.9227055153
-11.915849131
-11.910089008
-11.9053726119
-11.9017934262
-11.8993522421
-11.8981307889
-11.8979109736
-11.8975207524
-11.8935136186
-11.8876674883
-11.8844763772
-11.8852262096
-11.8904931584
-11.9008022299
-11.9171171673
-11.9399861122
-11.9701302462
-12.0076600498
-12.052824238
-12.1053173899
-12.1650128452
-12.2314009926
-12.3043400602
-12.3835120484
-12.4688060865
-12.5598940639
-12.6565460748
-12.7583308341
-12.8646858885
-12.9748070603
-13.0877601645
-13.202678735
-13.318700211
-13.4361320805
-13.5579182938
-13.6872128953
-13.8250565766
-13.9702706258
-14.12367772
-14.2848953305
-14.452465872
-14.6218129343
-14.7908615838
-14.9513743946
-15.0924001947
-15.2104632678
-15.3016396014
-15.3527757159
-15.3605788047
-15.3403903206
-15.3110644016
-15.2522515123
-15.124564575
-14.9079623034
-14.67447481
-14.5358559752
-14.4847807566
-14.4752921995
-14.4852400872
-14.5028224568
-14.5224531906
-14.5411368752
-14.5574022672
-14.570444953
-14.5802270972
-14.5871041484
-14.5918542856
-14.5951576892
-14.5976221252
-14.5994853223
-14.6009058856
-14.601811723
-14.6022050767
-14.6020661296
-14.6015626667
-14.6006915449
-14.5995821302
-14.5986738406
-14.5983901149
-14.5991364154
-14.600999917
-14.6039648896
-14.6079450622
-14.6124574758
-14.6168789394
-14.6208867216
-14.624683982
-14.6290123659
-14.6345535092
-14.6419358301
-14.6514072075
-14.6631693043
-14.6772294512
-14.6937100427
-14.7125429765
-14.7336491134
-14.7566730883
-14.7813038054
-14.8069564881
-14.8330693067
-14.8587830143
-14.8833604346
-14.9056559847
-14.9245517511
-14.938374069
-14.9457097088
-14.9443688529
-14.9324475642
-14.9073838004
-14.8672728789
-14.8095312438
-14.7327549042
-14.6346888568
-14.514211812
-14.3685563066
-14.1946572832
-13.9855101834
-13.732877901
-13.4268812191
-13.0588421226
-12.6209988652
-12.1159355829
-11.5541773513
-10.9421108314
-10.2390340333
-12.5333270571
-12.656462704
-12.7078187162
-12.7106366503
-12.7009755226
-12.6763421977
-12.6385650146
-12.6005304226
-12.5745024805
-12.5647293732
-12.5689721016
-12.5830989118
-12.6025624093
-12.624627094
-12.6469649999
-12.6687334311
-12.6889343172
-12.7073433465
-12.7233878918
-12.7368850422
-12.7475214587
-12.7550141225
-12.7592415324
-12.7600362081
-12.7575060426
-12.7515740009
-12.7426887239
-12.7309524723
-12.7170265627
-12.7012034847
-12.684290273
-12.6666909674
-12.6491412651
-12.6321386794
-12.6163017432
-12.6020069863
-12.5897432069
-12.5798598633
-12.5726281648
-12.5683093773
-12.5670916377
-12.5690869335
-12.5744091626
-12.5830149709
-12.5949672215
-12.6100871739
-12.6283868944
-12.6496243102
-12.6738505558
-12.7007890012
-12.7305011142
-12.762896178
-12.7980155706
-12.8358222725
-12.8764704861
-12.9199687133
-12.9664113263
-13.0158651059
-13.0684302005
-13.1241282028
-13.1828604082
-13.2447141997
-13.3101957147
-13.3804107927
-13.4499013943
-13.5166107117
-13.5800921858
-13.639980422
-13.6956546205
-13.7468561211
-13.7933786735
-13.8354141558
-13.8731052546
-13.9068726937
-13.9369920412
-13.9638519674
-13.9877509745
-14.0090125228
-14.027891575
-14.0445792925
-14.0591753404
-14.0717025233
-14.0821581242
-14.0904321875
-14.0964287986
-14.0999719699
-14.1011853159
-14.1004119588
-14.0989241148
-14.100446423
-14.1080888163
-14.1232694398
-14.1467950804
-14.1799407835
-14.2262540478
-14.287422911
-14.3639384444
-14.4557886381
-14.5595650814
-14.6743412291
-14.8035684959
-14.9353264135
-15.0494672444
-15.1574843537
-15.2900730124
-15.4281305675
-15.4717483256
-15.3523308814
-15.0945472663
-14.8288505459
-14.646860203
-14.5432118012
-14.4833865148
-14.4467739615
-14.4222126736
-14.4045095373
-14.3912941771
-14.3814878551
-14.3745468097
-14.3703170264
-14.368849546
-14.3703073801
-14.3746751007
-14.3816964889
-14.3908408302
-14.4014300165
-14.4127264229
-14.4241539665
-14.435318612
-14.4460168901
-14.4560673994
-14.4659224359
-14.4760732939
-14.4870342465
-14.4988595656
-14.5116275062
-14.5253512882
-14.5398018623
-14.554336482
-14.5681988568
-14.5808866922
-14.5925750049
-14.6038579974
-14.6154440043
-14.627824815
-14.6412701303
-14.6558688993
-14.6716889695
-14.6887136522
-14.7068741073
-14.7260115274
-14.7458788429
-14.7661271326
-14.7863466635
-14.8060732541
-14.8246615706
-14.8413285054
-14.8551582324
-14.8650964577
-14.8698287669
-14.8678766107
-14.8573329889
-14.8361795384
-14.8020158911
-14.7527081784
-14.6859897156
-14.6004028793
-14.4943617534
-14.3669019254
-14.2158310204
-14.0375699636
-13.82526791
-13.5701428797
-13.26134272
-12.8878967635
-12.4408640084
-11.9236970007
-11.3524107779
-10.7320682856
-10.0398119194
-12.4500487748
-12.8583623098
-12.9484592666
-12.9233085888
-12.9064875805
-12.8832957177
-12.8448787624
-12.8040929482
-12.7735117429
-12.7569839575
-12.7524572457
-12.7565946798
-12.7659746063
-12.7786960671
-12.7929911785
-12.8082405569
-12.8234948337
-12.8385143127
-12.8526653256
-12.8657546297
-12.8772512634
-12.8870157366
-12.8947120867
-12.9001566422
-12.9032834248
-12.9040188555
-12.9024967014
-12.8987431943
-12.8931578261
-12.8858462034
-12.8773452028
-12.8678020012
-12.8578346486
-12.8475165286
-12.8373679262
-12.8275031836
-12.8182583853
-12.8096706154
-12.8020030395
-12.7952441925
-12.789518488
-12.7847611871
-12.7810036867
-12.7780973212
-12.7759996473
-12.7744862586
-12.7734834205
-12.7727480055
-12.7721794943
-12.7716377687
-12.7710996697
-12.7704265314
-12.7697300366
-12.7690104688
-12.7683917114
-12.7679273619
-12.7677673591
-12.7679493975
-12.7685962197
-12.7697671307
-12.7715965494
-12.774027769
-12.7765969052
-12.7815588548
-12.7928083929
-12.8113676225
-12.8370416295
-12.869391535
-12.9075657796
-12.9507168199
-12.9977286606
-13.0477060399
-13.0996513912
-13.1528870235
-13.2068096618
-13.2611968091
-13.3159546917
-13.3713468407
-13.4277530411
-13.4856900065
-13.5456622792
-13.6081097071
-13.6733483228
-13.741469962
-13.8122605718
-13.8851085606
-13.9591456399
-14.0327815264
-14.1053283072
-14.1757209387
-14.2445835447
-14.3070447615
-14.3618862874
-14.4079665363
-14.4473546795
-14.4801495103
-14.5119183187
-14.5506861295
-14.6057067616
-14.6848524318
-14.7871573742
-14.8878299049
-14.9839171593
-15.1132971981
-15.2871757671
-15.4443438957
-15.4750340633
-15.3411717727
-15.1029229734
-14.8680867874
-14.6946464934
-14.584114561
-14.5178536137
-14.480704786
-14.4622831503
-14.4558118745
-14.4569984733
-14.462677299
-14.4707223372
-14.4795772544
-14.4884679995
-14.4969089457
-14.5047619469
-14.5117987102
-14.5179328944
-14.5229565299
-14.526868968
-14.5296680851
-14.5316052017
-14.5329979413
-14.5346295195
-14.5369612456
-14.5402644049
-14.5447389737
-14.550480608
-14.5575626842
-14.5660773758
-14.5756553533
-14.5856397776
-14.5951921989
-14.6038293812
-14.6117364131
-14.6194559209
-14.6275980396
-14.636597956
-14.6468112077
-14.6584663746
-14.671729199
-14.6866449482
-14.7031692612
-14.721157453
-14.7403584965
-14.7603778601
-14.7806978734
-14.8008218737
-14.8200518368
-14.8375610891
-14.852206451
-14.8628258334
-14.8679615055
-14.8660277438
-14.854971015
-14.8327191454
-14.7967427649
-14.7448051964
-14.6744478195
-14.5840471872
-14.4719426462
-14.3372054833
-14.1776456737
-13.9898645752
-13.767739575
-13.5035220054
-13.1868628925
-12.8069752968
-12.355457664
-11.8353438427
-11.2611594772
-10.6336933614
-9.94291456652
-12.4737525883
-13.2860193842
-13.294609787
-13.1614737411
-13.1144381313
-13.0862322593
-13.04844966
-13.0098216655
-12.9798278679
-12.9603536313
-12.9493868402
-12.9447094118
-12.9442141201
-12.946843426
-12.951428986
-12.9575769723
-12.9645280203
-12.9721323195
-12.9797967108
-12.9874580008
-12.9947029361
-13.0014493333
-13.0074022147
-13.0125720632
-13.0167929621
-13.0200635664
-13.0224753932
-13.0240538052
-13.0250736327
-13.0255788334
-13.0260172718
-13.0264043809
-13.027201015
-13.0284213554
-13.0304945403
-13.0333060012
-13.0372182398
-13.0421210876
-13.0482007718
-13.0553399261
-13.0636308611
-13.0729274402
-13.0832205864
-13.0943348701
-13.1061767096
-13.1185558616
-13.131318866
-13.1443071328
-13.1574118002
-13.1705135751
-13.1835759736
-13.1966609709
-13.2098193481
-13.2231783548
-13.2369500816
-13.25128831
-13.2664128297
-13.2825153489
-13.2999689836
-13.3191684916
-13.3406996657
-13.3652647439
-13.3932281581
-13.4217429112
-13.4492513026
-13.4754288089
-13.5002200124
-13.5238332748
-13.5465200288
-13.5686816679
-13.590581977
-13.6124749463
-13.6343464546
-13.6561362177
-13.6775182318
-13.6982003868
-13.7178282573
-13.7361954327
-13.7531895959
-13.7689373799
-13.7837702156
-13.7983364336
-13.8136480236
-13.8311773023
-13.8528493043
-13.880918217
-13.9179067557
-13.965995158
-14.0259409162
-14.10113177
-14.1889244378
-14.2838534621
-14.3786893428
-14.4673015132
-14.5460535129
-14.6152179323
-14.6805879417
-14.7498487689
-14.8258861068
-14.9024462501
-14.9650918332
-15.0020884729
-15.0426368358
-15.1364118501
-15.2667108515
-15.3550312519
-15.3303132442
-15.1943471565
-15.0015465026
-14.8158443161
-14.6690065839
-14.565513043
-14.4966217665
-14.4526183422
-14.425199921
-14.4083503567
-14.3979372753
-14.3911990655
-14.3864790942
-14.3829819185
-14.3806071423
-14.3795992006
-14.3802929158
-14.3829086975
-14.3875312211
-14.3941063325
-14.4025016997
-14.4124974724
-14.423877077
-14.4364239255
-14.4497786342
-14.4634250589
-14.4772813305
-14.4913926599
-14.5062285095
-14.521912741
-14.5383720814
-14.5552369457
-14.5718609902
-14.5875204107
-14.6019626828
-14.6154562364
-14.6285524345
-14.6417410605
-14.6554109989
-14.6698457267
-14.6852893308
-14.7019018554
-14.7197694711
-14.7388734693
-14.7590972107
-14.7802188386
-14.8018919275
-14.8236341337
-14.8448420552
-14.8648334547
-14.8827832035
-14.89762426
-14.9080879107
-14.9126877086
-14.9096870128
-14.8970199677
-14.8724025966
-14.8332997221
-14.7772196776
-14.7017218231
-14.6047601049
-14.4844339515
-14.3392280237
-14.1668761747
-13.9638649972
-13.7247580478
-13.4425282365
-13.1081636228
-12.7125366141
-12.2491915196
-11.7202539673
-11.13576731
-10.4946828157
-9.79240912114
-12.6554752425
-13.8890444988
-13.6545070084
-13.378560598
-13.3170380162
-13.2927406638
-13.2623783621
-13.2305639958
-13.2038526943
-13.1833009016
-13.1678700405
-13.1564610004
-13.1480879969
-13.1422498718
-13.1382816223
-13.1359511734
-13.1347536815
-13.1345946994
-13.1351095607
-13.1362814165
-13.1377899718
-13.1397021421
-13.1417953248
-13.1440625482
-13.146404149
-13.1488223287
-13.1512915212
-13.1537926035
-13.1564599418
-13.1592359361
-13.1623548556
-13.1657119929
-13.1696324706
-13.1739017543
-13.1788104579
-13.1841534677
-13.1901167263
-13.1964489142
-13.2032953618
-13.2104118106
-13.2178467464
-13.225385191
-13.2330019253
-13.2405025317
-13.2477996787
-13.254723246
-13.2611604478
-13.266988408
-13.2720853097
-13.2764409897
-13.2800193549
-13.2828421859
-13.2850123522
-13.2866888776
-13.2880620133
-13.2893237611
-13.2906237545
-13.2920879955
-13.2940089648
-13.2967689846
-13.3009312019
-13.3069368503
-13.316167557
-13.3299518103
-13.3480007185
-13.3695112129
-13.3935382033
-13.419221952
-13.445869291
-13.4731025172
-13.5007126222
-13.5287205437
-13.5571510142
-13.5860895704
-13.6155090114
-13.6453676829
-13.6754663217
-13.7056128096
-13.735470189
-13.7646524057
-13.792629356
-13.8188157107
-13.842660065
-13.8639236204
-13.8830219303
-13.9015151557
-13.9224359793
-13.9501522514
-13.9909273036
-14.0499407364
-14.1305233008
-14.22863252
-14.3397501236
-14.4577939596
-14.5767808135
-14.6951289468
-14.8116594572
-14.9181205677
-14.9988272999
-15.0423541058
-15.0403367842
-15.0169675021
-15.0297119518
-15.0988680101
-15.1788831407
-15.2119010629
-15.1687462572
-15.0632598813
-14.9295113274
-14.8004837887
-14.6937710436
-14.6149079278
-14.5612670092
-14.5279930143
-14.5097597303
-14.5022920812
-14.5021070138
-14.5067807765
-14.5144728137
-14.5241614957
-14.5351473323
-14.5471098396
-14.5596263884
-14.5723768546
-14.584896901
-14.5968510289
-14.6078219776
-14.6175697424
-14.625839044
-14.6326033291
-14.6379297006
-14.6424526177
-14.64683306
-14.6518766498
-14.6578180983
-14.6649339589
-14.6730995735
-14.6819317913
-14.6907525906
-14.6989755261
-14.7064479094
-14.7134986246
-14.7206746062
-14.7284650816
-14.7372308195
-14.7472206138
-14.7586228866
-14.7715531016
-14.7860631446
-14.802109643
-14.8195694029
-14.8382110565
-14.8577330613
-14.877718904
-14.8975907133
-14.9166625633
-14.9341155196
-14.9489624814
-14.9599789475
-14.9656605362
-14.9642227028
-14.9535548453
-14.9312938786
-14.8948513013
-14.8416540068
-14.7691652099
-14.6751043863
-14.5572311151
-14.4134645404
-14.2411114798
-14.0364475689
-13.7941083076
-13.5071634306
-13.1672636416
-12.7665346074
-12.2988977124
-11.7636469098
-11.1633267194
-10.494886712
-9.75483535921
-12.9962690653
-14.5638018302
-13.9662711003
-13.5850883213
-13.5401067617
-13.5189359171
-13.491553694
-13.4591290993
-13.4294619105
-13.4040471902
-13.3824932084
-13.3642055786
-13.3486331574
-13.3353968677
-13.3240833357
-13.3144843855
-13.3063035356
-13.2994797589
-13.2937858556
-13.2892516529
-13.2857583252
-13.2833234
-13.2818373187
-13.2813426303
-13.281725513
-13.2829469757
-13.284990253
-13.2877601176
-13.2913000635
-13.2954646301
-13.3003874361
-13.3058634735
-13.312040258
-13.3186951946
-13.3259860031
-13.3336099792
-13.3417189647
-13.3500322873
-13.3586233401
-13.3672449496
-13.3759370305
-13.3844915131
-13.3929051673
-13.4010144892
-13.4087774671
-13.4160764646
-13.4228397074
-13.4289987053
-13.4344942319
-13.4392713984
-13.4432750895
-13.4464993975
-13.448921439
-13.4506244111
-13.4518164852
-13.4526741359
-13.4532661349
-13.4535310582
-13.4535321828
-13.4536108477
-13.4545758758
-13.4573584464
-13.4626714206
-13.4712825718
-13.4831219772
-13.4974931163
-13.5134779386
-13.530310005
-13.5474407447
-13.56461762
-13.5817680856
-13.5989645756
-13.6163314892
-13.6340517931
-13.6522764048
-13.6711688983
-13.690860444
-13.7115378433
-13.7333634417
-13.7564855884
-13.7808037451
-13.8060106169
-13.8313282652
-13.8558785587
-13.8787590532
-13.899999773
-13.9207231277
-13.9449228861
-13.9781366748
-14.0279135785
-14.0973489493
-14.185379604
-14.2921042173
-14.4130938348
-14.5427161519
-14.6704876127
-14.7853767702
-14.8745710825
-14.9233414055
-14.9315070072
-14.9163571095
-14.9121195761
-14.9487495355
-15.0144975294
-15.0694817843
-15.0849175219
-15.0524171074
-14.9824307946
-14.893037814
-14.8014622841
-14.7191197162
-14.651726433
-14.6001189282
-14.5625336221
-14.536190758
-14.5182312274
-14.5060948795
-14.4977385893
-14.4916944095
-14.487122658
-14.4836483577
-14.4811765221
-14.479706134
-14.4792912941
-14.4799761914
-14.4818093961
-14.4848018478
-14.4889660394
-14.494270842
-14.5006833553
-14.508233649
-14.5170672019
-14.5272097161
-14.5385988515
-14.551174247
-14.564847713
-14.5793835007
-14.5943111542
-14.6089446524
-14.6227730603
-14.6356482969
-14.647881426
-14.6599523137
-14.6723574272
-14.6854520118
-14.6995176049
-14.7147372321
-14.7312475313
-14.7490919458
-14.7682372511
-14.7885443206
-14.8097650275
-14.8315631562
-14.8535043585
-14.8750376297
-14.8954807004
-14.9140126023
-14.9296367547
-14.9411794914
-14.9471756286
-14.9459184797