/*--------------------------------*- C++ -*----------------------------------*\
| =========                 |                                                 |
| \\      /  F ield         | OpenFOAM: The Open Source CFD Toolbox           |
|  \\    /   O peration     | Version:  v1806                                 |
|   \\  /    A nd           | Web:      www.OpenFOAM.com                      |
|    \\/     M anipulation  |                                                 |
\*---------------------------------------------------------------------------*/
FoamFile
{
    version     2.0;
    format      ascii;
    class       surfaceScalarField;
    location    "15";
    object      phi;
}
// * * * * * * * * * * * * * * * * * * * * * * * * * * * * * * * * * * * * * //

dimensions      [0 3 -1 0 0 0 0];
oriented        oriented;


internalField   nonuniform List<scalar> 
24170
(
3.07352874405e-06
1.14877505658e-07
2.98666396771e-06
8.68650104275e-08
2.90676520082e-06
7.98992790688e-08
2.8298754849e-06
7.68904108698e-08
2.75618435746e-06
7.36917511775e-08
2.68582378446e-06
7.03612309906e-08
2.61866126119e-06
6.71631661321e-08
2.55448412993e-06
6.41777563888e-08
2.49306557877e-06
6.14191886186e-08
2.43417032918e-06
5.88958389235e-08
2.37754806297e-06
5.66228769468e-08
2.32292442833e-06
5.46241849824e-08
2.26998842731e-06
5.29365632735e-08
2.21836774781e-06
5.16211960174e-08
2.16757510403e-06
5.07931399548e-08
2.11685804596e-06
5.07174394534e-08
2.06458863734e-06
5.22696430586e-08
5.81114578398e-08
2.00647745437e-06
3.43163360866e-06
1.00492874096e-07
3.42664487201e-06
9.1853824841e-08
3.41984285247e-06
8.67016423662e-08
3.41008456839e-06
8.66492260457e-08
3.39782817256e-06
8.59486306451e-08
3.38372615759e-06
8.44637702463e-08
3.36815077315e-06
8.27390500257e-08
3.35132727924e-06
8.10017434291e-08
3.33341408607e-06
7.93328624588e-08
3.31451767096e-06
7.7792704186e-08
3.29469029718e-06
7.64506873e-08
3.27392438563e-06
7.53904942377e-08
3.2521421559e-06
7.47191700835e-08
3.22917231951e-06
7.45913775777e-08
3.20469844205e-06
7.52673189184e-08
3.17816323565e-06
7.72528607625e-08
3.14874961234e-06
8.16833437791e-08
8.97486696715e-08
3.11711262425e-06
3.68005503281e-06
8.29548917178e-08
3.68453999545e-06
8.73691834301e-08
3.68731883592e-06
8.39233257958e-08
3.6890230877e-06
8.49456019982e-08
3.68943078927e-06
8.5541507863e-08
3.68875207336e-06
8.51430674311e-08
3.68712168917e-06
8.43699983053e-08
3.68458282531e-06
8.35411489958e-08
3.68114517925e-06
8.27710458616e-08
3.67680063599e-06
8.21377513579e-08
3.67151999545e-06
8.1731830222e-08
3.66524618097e-06
8.1664776689e-08
3.65788561751e-06
8.20801937116e-08
3.64929598944e-06
8.31814414787e-08
3.6392745552e-06
8.52891644516e-08
3.62758650544e-06
8.8941260617e-08
3.6142067751e-06
9.50633664047e-08
1.03984664063e-07
3.59997123562e-06
3.93975830147e-06
6.85848415202e-08
3.9459122687e-06
8.12153252271e-08
3.94951798659e-06
8.03179299373e-08
3.95245292035e-06
8.20111312359e-08
3.95452690396e-06
8.34679755e-08
3.95582847512e-06
8.38419718519e-08
3.95647828803e-06
8.37206469161e-08
3.95651531648e-06
8.3504575258e-08
3.95593385434e-06
8.33529479506e-08
3.95470809376e-06
8.3363930899e-08
3.95279606457e-06
8.36442598546e-08
3.95013775744e-06
8.43234588841e-08
3.94665311766e-06
8.55651865351e-08
3.94224317674e-06
8.75917153697e-08
3.93680581828e-06
9.07268261843e-08
3.93030014775e-06
9.54471899277e-08
3.92294150987e-06
1.02422207746e-07
1.118302562e-07
3.9150961819e-06
4.21858113342e-06
5.71310245387e-08
4.22520413954e-06
7.45927115332e-08
4.22893400674e-06
7.65886036357e-08
4.23195683691e-06
7.89889095504e-08
4.23426162352e-06
8.11637647277e-08
4.23584818462e-06
8.22559818761e-08
4.23681696708e-06
8.27524167587e-08
4.2372179968e-06
8.31040818339e-08
4.23705440033e-06
8.35170672754e-08
4.23630723605e-06
8.41115987248e-08
4.23494421302e-06
8.50077728511e-08
4.23292133894e-06
8.6346804873e-08
4.23018558691e-06
8.83013950412e-08
4.22668421917e-06
9.10935256795e-08
4.22239167617e-06
9.5019790013e-08
4.21737243301e-06
1.00466807753e-07
4.21190477249e-06
1.07890222134e-07
1.17427169247e-07
4.2063083362e-06
4.51819288965e-06
4.80252006321e-08
4.52482886311e-06
6.79568873939e-08
4.52871940248e-06
7.2698390006e-08
4.5317808993e-06
7.59278280417e-08
4.5341905898e-06
7.8754502651e-08
4.53590033772e-06
8.05466738729e-08
4.5369768505e-06
8.16763417959e-08
4.53747372068e-06
8.26076430799e-08
4.53740295626e-06
8.35882535594e-08
4.53675350436e-06
8.47614577964e-08
4.53550332001e-06
8.62583527479e-08
4.53362449839e-06
8.82260013281e-08
4.53108962333e-06
9.08366286566e-08
4.52788566941e-06
9.42978250811e-08
4.52404342087e-06
9.88623674033e-08
4.5196896569e-06
1.0482088439e-07
4.51512349077e-06
1.12456670707e-07
1.21817947367e-07
4.51073295299e-06
4.83995646766e-06
4.07889699184e-08
4.84631568916e-06
6.15981276803e-08
4.85034666051e-06
6.86679763279e-08
4.85344675495e-06
7.28283193454e-08
4.85592680298e-06
7.62750243273e-08
4.85773667753e-06
7.87373536817e-08
4.85891009589e-06
8.05034634742e-08
4.85949681531e-06
8.20214480368e-08
4.85951541732e-06
8.35701618448e-08
4.85896229819e-06
8.53150727745e-08
4.8578254095e-06
8.73957209328e-08
4.85609269154e-06
8.99591815547e-08
4.85376118783e-06
9.31685781595e-08
4.85085275788e-06
9.72066878618e-08
4.8474411324e-06
1.02274410414e-07
4.84369055208e-06
1.08571836081e-07
4.83989671185e-06
1.16250830039e-07
1.25273882111e-07
4.83644140151e-06
5.1853507188e-06
3.50192283509e-08
5.19125850523e-06
5.56905731075e-08
5.19536987378e-06
6.45569393039e-08
5.19852253978e-06
6.96760415619e-08
5.20107403441e-06
7.37239280494e-08
5.2029962421e-06
7.68155559297e-08
5.20429517318e-06
7.92049424115e-08
5.20500985337e-06
8.13071788601e-08
5.20516249705e-06
8.34179242423e-08
5.20475748309e-06
8.57204875597e-08
5.20379424664e-06
8.83593514776e-08
5.20227782458e-06
9.14759830496e-08
5.20022945231e-06
9.52173164476e-08
5.19770179023e-06
9.97347071189e-08
5.19480094136e-06
1.05175604505e-07
5.1917120901e-06
1.11661008546e-07
5.18871830952e-06
1.19245030194e-07
1.27821769854e-07
5.18617074327e-06
5.55596624909e-06
3.03908069624e-08
5.56133940164e-06
5.03179309094e-08
5.56545739667e-06
6.04395010339e-08
5.56866917174e-06
6.64648248147e-08
5.5712978432e-06
7.10957963897e-08
5.57334133344e-06
7.47725900602e-08
5.57478762327e-06
7.77591623138e-08
5.5756630185e-06
8.04322812958e-08
5.57599195023e-06
8.30894767709e-08
5.57578799407e-06
8.59249178505e-08
5.57506377136e-06
8.90840289567e-08
5.57384206766e-06
9.2698121272e-08
5.57216667422e-06
9.68931292959e-08
5.5701155742e-06
1.01786211392e-07
5.56781680062e-06
1.07474767495e-07
5.56546251677e-06
1.14015651215e-07
5.56331174571e-06
1.21396126217e-07
1.29474737493e-07
5.56165943153e-06
5.95352508765e-06
2.664191069e-08
5.95834781305e-06
4.54954629325e-08
5.96240405844e-06
5.63835692328e-08
5.96567324885e-06
6.31959675711e-08
5.96839064922e-06
6.83787425195e-08
5.97057116803e-06
7.25924205932e-08
5.97219414175e-06
7.61365470474e-08
5.97327415099e-06
7.93526307735e-08
5.97383623642e-06
8.2527757294e-08
5.97390277134e-06
8.58587367347e-08
5.97349945543e-06
8.94877016647e-08
5.97266555564e-06
9.35323788534e-08
5.97146389988e-06
9.80951365558e-08
5.9699911507e-06
1.03259309083e-07
5.96838760172e-06
1.09078638519e-07
5.96684252673e-06
1.1556103484e-07
5.96558882946e-06
1.22650276783e-07
1.30187791508e-07
5.96487610198e-06
6.37988693409e-06
2.35675975918e-08
6.38418933354e-06
4.11936247806e-08
6.38813437477e-06
5.24390786452e-08
6.39145641371e-06
5.98744639416e-08
6.39427980098e-06
6.55558589248e-08
6.39662097372e-06
7.02517378527e-08
6.39845618735e-06
7.43018027692e-08
6.39979062664e-06
7.80186535894e-08
6.40064854525e-06
8.16702762567e-08
6.40105984064e-06
8.54478767182e-08
6.40106220522e-06
8.94857576526e-08
6.4007093112e-06
9.38856808268e-08
6.40007892975e-06
9.87259164527e-08
6.39927988434e-06
1.04058730813e-07
6.39845655778e-06
1.09902329221e-07
6.39778783727e-06
1.16230096866e-07
6.39747652873e-06
1.22961862736e-07
1.29943212961e-07
6.39772167932e-06
5.74303840372e-06
2.13638203339e-08
5.74631530137e-06
3.79171461359e-08
5.74954236584e-06
4.92124574556e-08
5.75238855606e-06
5.70287186708e-08
5.75487362201e-06
6.30712345419e-08
5.75700084802e-06
6.81249461051e-08
5.75874908679e-06
7.25539978067e-08
5.76011743507e-06
7.66507289566e-08
5.76112505436e-06
8.06630948788e-08
5.76180157524e-06
8.47717706324e-08
5.76218651951e-06
8.91012129185e-08
5.76233394053e-06
9.37387343984e-08
5.76231731183e-06
9.87430226159e-08
5.76223298275e-06
1.04143549136e-07
5.76220085643e-06
1.09934893857e-07
5.76236087667e-06
1.16070510165e-07
5.76286417986e-06
1.22459138819e-07
1.28949270649e-07
5.76385855401e-06
7.00032833145e-06
1.91914567882e-08
7.00372439736e-06
3.45215817712e-08
7.00729124142e-06
4.56460918602e-08
7.01059288461e-06
5.37275310249e-08
7.01356821418e-06
6.00963406222e-08
7.01620014143e-06
6.5493438453e-08
7.01846216286e-06
7.02923787377e-08
7.02034919953e-06
7.47640997414e-08
7.02188173816e-06
7.91309324693e-08
7.02309741122e-06
8.3556451478e-08
7.02404840756e-06
8.81506881399e-08
7.02480401283e-06
9.29835913033e-08
7.02545393496e-06
9.80936552562e-08
7.02610946453e-06
1.03488552186e-07
7.02690166001e-06
1.09143289433e-07
7.02797510294e-06
1.14997647093e-07
7.02947724692e-06
1.20957572091e-07
1.26886002227e-07
7.03154106499e-06
8.53298039993e-06
1.70584689266e-08
8.53647524791e-06
3.1027211028e-08
8.54038990061e-06
4.17319460229e-08
8.54421712051e-06
4.99008280466e-08
8.54780691526e-06
5.65070196597e-08
8.55110785665e-06
6.21929774266e-08
8.55408377733e-06
6.73169073515e-08
8.55672446394e-06
7.21238542277e-08
8.55905056337e-06
7.68052444037e-08
8.56110678038e-06
8.15007406176e-08
8.56295710754e-06
8.63007800374e-08
8.56468486015e-06
9.12564188529e-08
8.56639290576e-06
9.63861553452e-08
8.56820266645e-06
1.01679438251e-07
8.57024940757e-06
1.07097135642e-07
8.57267470459e-06
1.12573021779e-07
8.57561540497e-06
1.18017480458e-07
1.23312562128e-07
8.57918952176e-06
1.04013381963e-05
1.49397331799e-08
1.04049599347e-05
2.74060132234e-08
1.04092710363e-05
3.74213806893e-08
1.04137345893e-05
4.54377991573e-08
1.04181192401e-05
5.21229338636e-08
1.04223279813e-05
5.79847496713e-08
1.04263083339e-05
6.33371059115e-08
1.0430042711e-05
6.83899902827e-08
1.04335497784e-05
7.32987668437e-08
1.04368779981e-05
7.81729685009e-08
1.04400997053e-05
8.30796863213e-08
1.044330696e-05
8.80496675118e-08
1.04466095179e-05
9.30842034772e-08
1.04501303265e-05
9.81591770945e-08
1.04539997164e-05
1.0322835967e-07
1.04583466419e-05
1.08226680928e-07
1.04632894054e-05
1.13075309186e-07
1.17678421549e-07
1.04689239823e-05
1.2678971329e-05
1.27588595192e-08
1.268283363e-05
2.35442410728e-08
1.26876841396e-05
3.25714406419e-08
1.26929892009e-05
4.01333155474e-08
1.26984538564e-05
4.66588335213e-08
1.27039305683e-05
5.25086249921e-08
1.2709342348e-05
5.79258967082e-08
1.27146595156e-05
6.30734395569e-08
1.27198938234e-05
6.80649936667e-08
1.27250915476e-05
7.29758712128e-08
1.2730324851e-05
7.78468715183e-08
1.27356856526e-05
8.26894122808e-08
1.27412794433e-05
8.74908989772e-08
1.27472195312e-05
9.22195981674e-08
1.27536196636e-05
9.68287395543e-08
1.27605861828e-05
1.0126061596e-07
1.27682104776e-05
1.05451540864e-07
1.09329253691e-07
1.27765599553e-05
1.54555752747e-05
1.03641267549e-08
1.54599286778e-05
1.9191457094e-08
1.54656297143e-05
2.6870958383e-08
1.54721555068e-05
3.36080724788e-08
1.54791632379e-05
3.96516345631e-08
1.54864548054e-05
4.5217606091e-08
1.54939207524e-05
5.04604900212e-08
1.55015110209e-05
5.5483741012e-08
1.55092220885e-05
6.03544820222e-08
1.55170872401e-05
6.51112506977e-08
1.55251664223e-05
6.97681862229e-08
1.55335373188e-05
7.43190181374e-08
1.5542287242e-05
7.87414461918e-08
1.55515060726e-05
8.30012725896e-08
1.55612789362e-05
8.7056325714e-08
1.55716799382e-05
9.0860107357e-08
1.55827662405e-05
9.43656389777e-08
9.75232641986e-08
1.55945726304e-05
1.88405118247e-05
7.49027931221e-09
1.88458210704e-05
1.38827657399e-08
1.88529562028e-05
1.97363120187e-08
1.88613695469e-05
2.51952154525e-08
1.88706660056e-05
3.03556317967e-08
1.88805943549e-05
3.52897346158e-08
1.88910040534e-05
4.00512611996e-08
1.89018133417e-05
4.46749330189e-08
1.89129911937e-05
4.91771171869e-08
1.89245443772e-05
5.35585326238e-08
1.89365057093e-05
5.78073533361e-08
1.89489232423e-05
6.1901952204e-08
1.8961851679e-05
6.5813535328e-08
1.89753447038e-05
6.95087497342e-08
1.89894493128e-05
7.29522988712e-08
1.90042005679e-05
7.61093990363e-08
1.90196187153e-05
7.89481469259e-08
8.14373518976e-08
1.90357051999e-05
2.29672030456e-05
3.62497898136e-09
2.29743354808e-05
6.75078455478e-09
2.29839692602e-05
1.01030193762e-08
2.29954241503e-05
1.37407515045e-08
2.30082127874e-05
1.75674519367e-08
2.30220189676e-05
2.14839921236e-08
2.30366405953e-05
2.54301117314e-08
2.30519507108e-05
2.93652555452e-08
2.30678774299e-05
3.32509220238e-08
2.30843874441e-05
3.70489439871e-08
2.31014732573e-05
4.07221160192e-08
2.31191399465e-05
4.42356617619e-08
2.31373980544e-05
4.75560617834e-08
2.31562548956e-05
5.06523195387e-08
2.31757120281e-05
5.34958664126e-08
2.3195759283e-05
5.60625537921e-08
2.321637544e-05
5.83327788987e-08
6.02906039972e-08
2.32375225038e-05
1.68141289202e-05
2.01320924263e-10
1.68203195039e-05
5.60493004378e-10
1.68285082674e-05
1.91459461239e-09
1.68380801124e-05
4.16905699832e-09
1.68486595659e-05
6.98848376537e-09
1.68600216803e-05
1.01219077057e-08
1.68720174584e-05
1.34349830129e-08
1.6884543662e-05
1.68390152234e-08
1.68975361626e-05
2.02592313299e-08
1.69109539321e-05
2.36311088006e-08
1.69247735653e-05
2.69033926469e-08
1.69389755538e-05
3.00335897553e-08
1.69535458077e-05
3.29868458028e-08
1.69684655214e-05
3.57325629693e-08
1.69837163188e-05
3.82462080493e-08
1.69992711582e-05
4.05078052862e-08
1.70151012062e-05
4.25040039757e-08
4.42242909483e-08
1.70311678581e-05
1.46382287812e-05
-3.45843445243e-09
1.46446960726e-05
-5.9065228693e-09
1.46529480303e-05
-6.33705494506e-09
1.4662313067e-05
-5.19568848012e-09
1.46724815692e-05
-3.17992217236e-09
1.46832896843e-05
-6.85865997979e-10
1.46946166097e-05
2.10800131319e-09
1.47063774465e-05
5.07873481138e-09
1.47185176411e-05
8.11897480872e-09
1.47310034278e-05
1.11459618565e-08
1.47438079513e-05
1.40988278626e-08
1.47569093608e-05
1.69329306421e-08
1.47702838794e-05
1.96123072948e-08
1.47839093659e-05
2.21079445163e-08
1.47977595038e-05
2.43961627988e-08
1.48118091079e-05
2.64592293937e-08
1.48260287646e-05
2.82846056694e-08
2.98643688878e-08
1.48403898782e-05
1.27442249037e-05
-7.55101130012e-09
1.27511495378e-05
-1.28307457448e-08
1.27594890689e-05
-1.46763367494e-08
1.2768574514e-05
-1.42808412346e-08
1.27782310848e-05
-1.28362710685e-08
1.27883640591e-05
-1.08186647669e-08
1.27988786979e-05
-8.40636567594e-09
1.28097099001e-05
-5.75237363583e-09
1.28208220506e-05
-2.99290017404e-09
1.28321922047e-05
-2.24039367226e-10
1.28437996424e-05
2.49161463351e-09
1.28556228774e-05
5.10997275355e-09
1.28676390126e-05
7.59637187253e-09
1.28798237982e-05
9.92359338896e-09
1.28921503827e-05
1.20699022484e-08
1.29045905361e-05
1.40196656886e-08
1.29171131659e-05
1.57625410933e-08
1.72931447106e-08
1.29296849002e-05
1.10957212954e-05
-1.23427689242e-08
1.11032617444e-05
-2.03707995277e-08
1.11116271587e-05
-2.30412830954e-08
1.11203249335e-05
-2.29782576095e-08
1.11293866993e-05
-2.18976918124e-08
1.11387755231e-05
-2.0207296352e-08
1.11484214159e-05
-1.80519821659e-08
1.11582890505e-05
-1.56197410712e-08
1.11683648035e-05
-1.30684015025e-08
1.11786354863e-05
-1.04945554052e-08
1.11890834593e-05
-7.95600675091e-09
1.11996878035e-05
-5.49441596856e-09
1.12104272478e-05
-3.14260074739e-09
1.12212780909e-05
-9.27382530841e-10
1.12322180978e-05
1.13066030749e-09
1.12432232705e-05
3.01455654802e-09
1.1254275779e-05
4.71092546945e-09
6.207597635e-09
1.12653614932e-05
9.66107843438e-06
-1.82062336113e-08
9.66933406526e-06
-2.86259716416e-08
9.67757425947e-06
-3.12810849257e-08
9.68577281742e-06
-3.11763860002e-08
9.69417521902e-06
-3.0299738859e-08
9.70275696326e-06
-2.87886009306e-08
9.71147102479e-06
-2.67656861617e-08
9.72031876733e-06
-2.44671551263e-08
9.7293110356e-06
-2.20603292759e-08
9.73844762997e-06
-1.96308668514e-08
9.74771881605e-06
-1.72269509553e-08
9.75710895022e-06
-1.48842952136e-08
9.76659822512e-06
-1.26318014725e-08
9.77616347557e-06
-1.04922520387e-08
9.78577790927e-06
-8.48355856851e-09
9.79541340564e-06
-6.62047166352e-09
9.8050419608e-06
-4.91719100022e-09
-3.38793753692e-09
9.81463790854e-06
8.41281863472e-06
-2.56719044408e-08
8.42174502918e-06
-3.75518694015e-08
8.42963921891e-06
-3.91747549532e-08
8.4372819965e-06
-3.88187458301e-08
8.44503839798e-06
-3.80556807036e-08
8.45285408746e-06
-3.66039568775e-08
8.46071124085e-06
-3.46223890262e-08
8.46864058071e-06
-3.23960624006e-08
8.47666472341e-06
-3.00840810783e-08
8.48478905024e-06
-2.77547850931e-08
8.49300891316e-06
-2.54465136889e-08
8.50131392003e-06
-2.3189021827e-08
8.5096885697e-06
-2.10062394187e-08
8.51811250518e-06
-1.89158971688e-08
8.52656080606e-06
-1.69315135223e-08
8.53500696843e-06
-1.50661686953e-08
8.54343009452e-06
-1.33402019913e-08
-1.1790190887e-08
8.55183285272e-06
7.32699169219e-06
-3.53788124885e-08
7.3362949975e-06
-4.68546872717e-08
7.3435918052e-06
-4.64711579088e-08
7.35059977666e-06
-4.5826205096e-08
7.35762119882e-06
-4.50766830837e-08
7.3645955973e-06
-4.3577865495e-08
7.37156337113e-06
-4.15897074814e-08
7.37857976289e-06
-3.94120051928e-08
7.38566985738e-06
-3.71737396294e-08
7.39283883452e-06
-3.4923449445e-08
7.40008357914e-06
-3.26908589798e-08
7.40739590783e-06
-3.05010746163e-08
7.41476253581e-06
-2.83725386761e-08
7.42216432724e-06
-2.63173435856e-08
7.42957448949e-06
-2.43412951116e-08
7.43695622043e-06
-2.24475375845e-08
7.44426274617e-06
-2.06465153912e-08
-1.89768834745e-08
7.45144951908e-06
6.38290411173e-06
-4.82164754219e-08
6.3920151137e-06
-5.59652259411e-08
6.39871973249e-06
-5.31752989203e-08
6.40523078903e-06
-5.23370431024e-08
6.41158598856e-06
-5.14312806555e-08
6.41778008647e-06
-4.97715808835e-08
6.4239198263e-06
-4.77289817056e-08
6.43007545809e-06
-4.55671903351e-08
6.43627467483e-06
-4.33725677671e-08
6.44252657137e-06
-4.11749244486e-08
6.44883242961e-06
-3.89966299098e-08
6.45518857763e-06
-3.6856728534e-08
6.46158562077e-06
-3.47692761943e-08
6.46800895967e-06
-3.2740328137e-08
6.47443520635e-06
-3.07671617935e-08
6.48082506557e-06
-2.88370834054e-08
6.48711550663e-06
-2.69366979399e-08
-2.50848581061e-08
6.49322329381e-06
5.56201349451e-06
-6.47649465783e-08
5.56961155265e-06
-6.35627758804e-08
5.57549387004e-06
-5.90572756615e-08
5.58120058529e-06
-5.80433338184e-08
5.58652159149e-06
-5.67516459542e-08
5.59156807381e-06
-5.48175506503e-08
5.59647608738e-06
-5.26364984613e-08
5.60130951582e-06
-5.04001446644e-08
5.60609752969e-06
-4.81601218447e-08
5.61085802628e-06
-4.59352687525e-08
5.61560333923e-06
-4.37416038757e-08
5.62034045468e-06
-4.15933964433e-08
5.62507169494e-06
-3.95000741934e-08
5.62979549294e-06
-3.74637457953e-08
5.63450344296e-06
-3.5474718869e-08
5.63916620644e-06
-3.34994501735e-08
5.64368970343e-06
-3.14602667071e-08
-2.91417034783e-08
5.64774674878e-06
4.84606710871e-06
-8.32242327356e-08
4.84774005865e-06
-6.52351855621e-08
4.84854506743e-06
-5.98618489167e-08
4.84806705781e-06
-5.75648149564e-08
4.84640856279e-06
-5.50924210181e-08
4.84399823825e-06
-5.24066260723e-08
4.84109796009e-06
-4.9735645681e-08
4.83785936351e-06
-4.71609918881e-08
4.83439470432e-06
-4.46950139121e-08
4.83079662874e-06
-4.23369076639e-08
4.82714109181e-06
-4.00856799055e-08
4.82348857432e-06
-3.79403185931e-08
4.81988719559e-06
-3.58981790559e-08
4.816377331e-06
-3.39534162566e-08
4.81299691067e-06
-3.20938177693e-08
4.80978373598e-06
-3.02859674354e-08
4.80676633896e-06
-2.84426550212e-08
-2.5759504607e-08
4.80338417304e-06
4.11945204161e-06
4.05421689145e-06
3.9943550847e-06
3.93679034116e-06
3.88169798256e-06
3.82929142109e-06
3.77955584301e-06
3.73239491465e-06
3.68769994018e-06
3.64536308587e-06
3.6052774979e-06
3.56733727287e-06
3.53143918147e-06
3.49748586166e-06
3.46539212805e-06
3.43510620676e-06
3.40666356431e-06
3.38090419205e-06
6.08434545656e-08
-6.08411006234e-08
9.76074630718e-08
-3.67614182079e-08
9.6102925452e-08
1.50535544918e-09
5.86630800726e-08
3.74415584338e-08
-2.32826750718e-08
8.19458395846e-08
-1.44169845346e-07
1.20888348757e-07
-2.76310203552e-07
1.32140164638e-07
-4.16869184413e-07
1.40560024051e-07
-5.64980276144e-07
1.48111048353e-07
-7.19718188451e-07
1.54739148786e-07
-8.80180470838e-07
1.60462479437e-07
-1.0455338717e-06
1.65354812716e-07
-1.21503616254e-06
1.69502620768e-07
-1.3880261918e-06
1.72991529235e-07
-1.56392760041e-06
1.75901753807e-07
-1.74223336466e-06
1.78307267927e-07
-1.92250838339e-06
1.80275240403e-07
-2.10437336624e-06
1.8186644258e-07
-2.28750810001e-06
1.83134942852e-07
-2.47163538343e-06
1.84128637657e-07
-2.65652421705e-06
1.84888942282e-07
-2.8419742329e-06
1.85451290252e-07
-3.02781901737e-06
1.85844873234e-07
-3.21391115209e-06
1.86093306853e-07
-3.40012538285e-06
1.8621436266e-07
-3.58634508762e-06
1.86220722249e-07
-3.77246486103e-06
1.86119833089e-07
-3.95837862269e-06
1.85914669551e-07
-4.14398206845e-06
1.8560358088e-07
-4.32916223176e-06
1.85181032713e-07
-4.51379953817e-06
1.84637458989e-07
-4.69775859579e-06
1.83959942529e-07
-4.88089027154e-06
1.83131967482e-07
-5.06302342101e-06
1.82134078056e-07
-5.24396671573e-06
1.80943650418e-07
-5.42350126347e-06
1.79535568804e-07
-5.60138283464e-06
1.77882076705e-07
-5.77733533034e-06
1.75953680733e-07
-5.95105386067e-06
1.73719219054e-07
-6.12219962281e-06
1.71147110564e-07
-6.29040458734e-06
1.68205793447e-07
-6.45526856671e-06
1.64865439748e-07
-6.61636649291e-06
1.61098822397e-07
-6.7732483655e-06
1.56883380891e-07
-6.92544968573e-06
1.52202204053e-07
-7.07249428327e-06
1.47046115516e-07
-7.21390780475e-06
1.41414427334e-07
-7.34922284869e-06
1.35316600781e-07
-7.47799395501e-06
1.28772059097e-07
-7.59980298547e-06
1.2181071813e-07
-7.71427333988e-06
1.14471502252e-07
-7.82107287407e-06
1.06801464115e-07
-7.91992441621e-06
9.88529885395e-08
-8.010604398e-06
9.06821376465e-08
-8.09294812955e-06
8.23453501744e-08
-8.16684328626e-06
7.38975449855e-08
-8.23223069598e-06
6.5389317871e-08
-8.28909438189e-06
5.68663191926e-08
-8.33746039871e-06
4.83680692181e-08
-8.37738638948e-06
3.99288739377e-08
-8.40896059325e-06
3.15765199656e-08
-8.43229265156e-06
2.33351358697e-08
-8.44751532447e-06
1.52250196005e-08
-8.45477771004e-06
7.26562641982e-09
-8.45422705938e-06
-5.48178634995e-10
-8.44608869399e-06
-8.13491040245e-09
-8.43072041657e-06
-1.53656963333e-08
-8.40851842142e-06
-2.21984363417e-08
-8.37988758432e-06
-2.86283502379e-08
-8.34520624683e-06
-3.46778711546e-08
-8.30480796685e-06
-4.03959704021e-08
-8.2589472174e-06
-4.58573137032e-08
-8.20778033407e-06
-5.1164667726e-08
-8.15132897584e-06
-5.64476301364e-08
-8.08946295821e-06
-6.18633982624e-08
-8.02186523426e-06
-6.75931987859e-08
-7.94802029326e-06
-7.38415471829e-08
-7.86718523747e-06
-8.08299542741e-08
-7.77838872263e-06
-8.87931763327e-08
-7.6804139237e-06
-9.79692707552e-08
-7.57182041552e-06
-1.08589831312e-07
-7.45095700077e-06
-1.20857525233e-07
-7.31603068683e-06
-1.34922995294e-07
-7.16517288533e-06
-1.50851104319e-07
-6.99657800095e-06
-1.6859080042e-07
-6.80863302755e-06
-1.87938175546e-07
-6.60010899295e-06
-2.08521833794e-07
-6.37030853732e-06
-2.29799914331e-07
-6.11922312819e-06
-2.51091035643e-07
-5.84761356815e-06
-2.7162436902e-07
-5.55701724435e-06
-2.90611016656e-07
-5.2497021283e-06
-3.07330364482e-07
-4.92853247419e-06
-3.21183982086e-07
-4.596801397e-06
-3.31747180499e-07
-4.25801719338e-06
-3.38799739223e-07
-3.91571114642e-06
-3.42322989913e-07
-3.57327151707e-06
-3.42454904554e-07
-3.23380867428e-06
-3.39477944024e-07
-2.89999923465e-06
-3.33820920021e-07
-2.57410460077e-06
-3.25903166117e-07
-2.25789904936e-06
-3.16207102019e-07
-1.95284152002e-06
-3.05047157264e-07
-1.66005762569e-06
-2.92762142694e-07
-1.38030809256e-06
-2.79708781481e-07
-1.11466467021e-06
-2.65596267681e-07
-8.63105157894e-07
-2.51489400879e-07
-6.27069469055e-07
-2.35957697012e-07
-4.05788766359e-07
-2.21176588667e-07
-1.74623836855e-07
-2.3104824796e-07
6.90475314405e-08
-2.43547183186e-07
3.01310779389e-07
-2.32182592927e-07
5.05539875183e-07
-2.04165710925e-07
6.83983709999e-07
-1.78406304372e-07
8.41838927662e-07
-1.57818159071e-07
9.8236481942e-07
-1.40508274847e-07
1.10768872697e-06
-1.25302992069e-07
1.21933273938e-06
-1.11638721771e-07
1.31853870484e-06
-9.919856207e-08
1.40633789414e-06
-8.78038875829e-08
1.4836626501e-06
-7.73187657557e-08
1.55132642725e-06
-6.76530313846e-08
1.6100812354e-06
-5.87234272401e-08
1.66058518287e-06
-5.04731987136e-08
1.70346367635e-06
-4.2840623474e-08
1.73927188764e-06
-3.57859824833e-08
1.76855246968e-06
-2.92579839363e-08
1.79178610746e-06
-2.32273243436e-08
1.80945137602e-06
-1.76570847323e-08
1.8219852778e-06
-1.25393251374e-08
1.82986193172e-06
-7.8788425086e-09
1.83362545717e-06
-3.77730161269e-09
1.833976932e-06
-3.6161671973e-10
1.83142531491e-06
2.53132975905e-09
1.82619920507e-06
5.2090440923e-09
1.81847373599e-06
7.69932833492e-09
1.80848702647e-06
9.96289570926e-09
1.79645518353e-06
1.19997114231e-08
1.78258833792e-06
1.38339448537e-08
1.76706497933e-06
1.54816721329e-08
1.75005921407e-06
1.6963341164e-08
1.73172400049e-06
1.82928073072e-08
1.7122023838e-06
1.94853586274e-08
1.69161899219e-06
2.0552872365e-08
1.67008720118e-06
2.15070874647e-08
1.64770841373e-06
2.23573499755e-08
1.62457670418e-06
2.31137109643e-08
1.60077609498e-06
2.37842264647e-08
1.57638442879e-06
2.43774767779e-08
1.55147020692e-06
2.49005870885e-08
1.5260965418e-06
2.53613497419e-08
1.50031833103e-06
2.57656504111e-08
1.47418589723e-06
2.61206777426e-08
1.44774193892e-06
2.6431519927e-08
1.42102553199e-06
2.6704652078e-08
1.39406784463e-06
2.69451402645e-08
1.36689696947e-06
2.71591582037e-08
1.33953460513e-06
2.7349910765e-08
1.31200081421e-06
2.752239465e-08
1.28430774625e-06
2.76809911011e-08
1.25646570129e-06
2.78312060727e-08
1.22847866158e-06
2.79755046931e-08
1.20034914292e-06
2.81193450645e-08
1.17207179072e-06
2.82664282879e-08
1.14364107377e-06
2.84212769151e-08
1.11504301084e-06
2.85878368236e-08
1.08626186105e-06
2.87725479248e-08
1.05726951807e-06
2.89829317253e-08
1.02803259756e-06
2.92292330446e-08
9.98505463895e-07
2.95185666923e-08
9.68635311203e-07
2.98633080756e-08
9.38348429005e-07
3.02790097771e-08
9.07555236717e-07
3.07869120683e-08
8.76138493524e-07
3.14092379145e-08
8.43952839484e-07
3.21795902061e-08
8.10795773376e-07
3.31496189919e-08
7.76381957852e-07
3.44076139534e-08
7.40248781251e-07
3.61255277347e-08
7.01491854541e-07
3.87510586948e-08
6.5848949286e-07
4.29967020241e-08
6.59885659855e-08
5.92497976261e-07
-2.38113094611e-08
-3.7026363748e-08
-9.62719117678e-08
3.57020117582e-08
-2.0077427177e-07
1.06008699385e-07
-3.14708304609e-07
1.51376360535e-07
-4.25115292928e-07
1.92353177279e-07
-5.32979814159e-07
2.28753473328e-07
-6.56162729931e-07
2.55323339992e-07
-7.91612144821e-07
2.76010158699e-07
-9.36327544727e-07
2.92826821462e-07
-1.08832900809e-06
3.06741478815e-07
-1.2461997812e-06
3.18333717693e-07
-1.40884433362e-06
3.2800038968e-07
-1.57538018257e-06
3.36039011355e-07
-1.7450753682e-06
3.42687825532e-07
-1.91731936996e-06
3.48146297619e-07
-2.09159711366e-06
3.52586124129e-07
-2.26747861126e-06
3.5615721132e-07
-2.44460223935e-06
3.58991100417e-07
-2.62266978666e-06
3.61202882371e-07
-2.80143255129e-06
3.62892399287e-07
-2.98068828509e-06
3.64144985828e-07
-3.16026834224e-06
3.65032194604e-07
-3.34003545911e-06
3.65612287387e-07
-3.51987227843e-06
3.65930925287e-07
-3.69967947761e-06
3.66021813164e-07
-3.8793655728e-06
3.65907499303e-07
-4.05884554252e-06
3.65600057497e-07
-4.23803214594e-06
3.65101949806e-07
-4.41683494621e-06
3.64406695986e-07
-4.59515290674e-06
3.63499665501e-07
-4.77287365435e-06
3.62358605907e-07
-4.94986723424e-06
3.60954266582e-07
-5.12598553554e-06
3.59250777249e-07
-5.30105677127e-06
3.57206134023e-07
-5.47488501477e-06
3.54772500502e-07
-5.64724528026e-06
3.51896762213e-07
-5.8178834365e-06
3.48520991911e-07
-5.98651206186e-06
3.44583377987e-07
-6.15281113406e-06
3.40019206661e-07
-6.3164252771e-06
3.34762465615e-07
-6.47696609999e-06
3.28747652563e-07
-6.63401171467e-06
3.21912352658e-07
-6.78711181487e-06
3.1420001679e-07
-6.93579040345e-06
3.05563293855e-07
-7.07955427277e-06
2.95967165099e-07
-7.21789917604e-06
2.85392322493e-07
-7.35032163397e-06
2.73837977339e-07
-7.4763279778e-06
2.61324279617e-07
-7.59544796375e-06
2.47893183434e-07
-7.70724418211e-06
2.33608334409e-07
-7.81132433905e-06
2.18552971272e-07
-7.90734775081e-06
2.02826514797e-07
-7.99503297015e-06
1.86539751613e-07
-8.07415875079e-06
1.69809735381e-07
-8.14456516836e-06
1.52753551619e-07
-8.20614867367e-06
1.35483167721e-07
-8.25885853508e-06
1.18101241243e-07
-8.30268860699e-06
1.00698745511e-07
-8.33767314288e-06
8.33549434531e-08
-8.36387557204e-06
6.61339752147e-08
-8.38138904642e-06
4.90926075939e-08
-8.39033189782e-06
3.22808781422e-08
-8.39083866941e-06
1.57345828503e-08
-8.38306868456e-06
-5.01262683103e-10
-8.36743401012e-06
-1.61798574152e-08
-8.34450709511e-06
-3.10585398283e-08
-8.31476397528e-06
-4.51056919463e-08
-8.27864777756e-06
-5.83113046247e-08
-8.23658592351e-06
-7.06871687106e-08
-8.18897824541e-06
-8.22823833896e-08
-8.13617799229e-06
-9.31933885164e-08
-8.07846127004e-06
-1.03570967098e-07
-8.01599805809e-06
-1.13625065661e-07
-7.94881687159e-06
-1.23625622278e-07
-7.87677679723e-06
-1.3390023362e-07
-7.7995373771e-06
-1.44828663379e-07
-7.71653966503e-06
-1.56835432138e-07
-7.62698661376e-06
-1.70378748076e-07
-7.52983869164e-06
-1.85937014096e-07
-7.42381117334e-06
-2.03992064451e-07
-7.30739239724e-06
-2.25004291083e-07
-7.17887119021e-06
-2.49373889697e-07
-7.03639813652e-06
-2.7739145871e-07
-6.8780685302e-06
-3.09175038835e-07
-6.70205228429e-06
-3.44601550497e-07
-6.50674272404e-06
-3.83242020754e-07
-6.29093370163e-06
-4.24326894843e-07
-6.05398280556e-06
-4.66749065517e-07
-5.79596175456e-06
-5.09119518757e-07
-5.51772395222e-06
-5.49873103773e-07