/*--------------------------------*- C++ -*----------------------------------*\
| =========                 |                                                 |
| \\      /  F ield         | OpenFOAM: The Open Source CFD Toolbox           |
|  \\    /   O peration     | Version:  v1806                                 |
|   \\  /    A nd           | Web:      www.OpenFOAM.com                      |
|    \\/     M anipulation  |                                                 |
\*---------------------------------------------------------------------------*/
FoamFile
{
    version     2.0;
    format      ascii;
    class       volScalarField;
    location    "15";
    object      rho;
}
// * * * * * * * * * * * * * * * * * * * * * * * * * * * * * * * * * * * * * //

dimensions      [0 0 0 0 0 0 0];


internalField   nonuniform List<scalar> 
12225
(
0.584452070694
0.646591886076
0.626578261499
0.626587448686
0.614669297566
0.61034497494
0.604384304667
0.600327158421
0.59815068465
0.599026626439
0.604438155624
0.613034271744
0.620002873012
0.631903322544
0.655451928597
0.68592739841
0.725023626558
0.75829977074
0.753638642563
0.695807742387
0.662714852592
0.667467250122
0.658206671443
0.65575157851
0.651904021357
0.649471288726
0.648073202682
0.648399843092
0.651826966191
0.658146546828
0.664821041258
0.674781924647
0.692449850771
0.71505271254
0.739675164891
0.742292075555
0.608372588497
0.676429959701
0.658837633549
0.660299168645
0.650609875631
0.647214547494
0.642672901182
0.639599364818
0.637472499894
0.636796552426
0.638284439742
0.642095286633
0.647748156575
0.656824382787
0.671565744202
0.689813687521
0.706479825163
0.701594434947
0.665357601557
0.690097322274
0.662484493921
0.668594685867
0.659663458491
0.65792074043
0.654681713033
0.65271907025
0.651375660439
0.651075614333
0.652163413543
0.654837096643
0.659254804299
0.666329291653
0.676870563971
0.688700905127
0.696266465095
0.686912114329
0.640473987823
0.688815996277
0.664354982764
0.6711424075
0.663200489414
0.662380794402
0.660059352026
0.659027454192
0.658637208103
0.659213810984
0.660904913911
0.663822166581
0.668199611068
0.674449363533
0.682444006229
0.689869885946
0.69188948999
0.681691669249
0.647676458201
0.692831026992
0.667422767177
0.675708110888
0.668299767305
0.668226170831
0.666466544734
0.665961872514
0.666042589472
0.666974974381
0.668819686381
0.671628490884
0.675556776697
0.680675562913
0.686355924724
0.690380693488
0.689165091597
0.679500981715
0.646813797995
0.694359229765
0.670021282222
0.679194643646
0.672452325033
0.673036451201
0.671793282691
0.671737098972
0.672177438142
0.67333218968
0.67520788635
0.677805331855
0.681146897185
0.685075873273
0.68875172215
0.69027953763
0.687271761371
0.678428445967
0.648179633298
0.695788315559
0.672223959347
0.682156314458
0.675980910243
0.67710659385
0.676265723176
0.676535457443
0.677179886957
0.678398671056
0.680171661256
0.682451749396
0.685137995021
0.687933164476
0.689956722239
0.689732139352
0.685777569861
0.677773805929
0.649219395939
0.696604455662
0.673994801001
0.684473883182
0.678828267446
0.680417010177
0.679909503165
0.680407738071
0.681139304928
0.682310693709
0.683887790209
0.68577096224
0.687770372508
0.689520466673
0.690227202665
0.688789578361
0.684381036618
0.677092895365
0.65002045259
0.696949221824
0.675205192769
0.686080644369
0.680882211614
0.682851852828
0.682590163695
0.683223409352
0.683969391801
0.685041704012
0.686369117041
0.687802160064
0.689103131938
0.68991307896
0.689580177219
0.687331159781
0.682752852305
0.676135760223
0.649897028088
0.697035788919
0.675558618995
0.686794130888
0.681851850414
0.684040910199
0.683865161337
0.684529886473
0.685229499598
0.686148623922
0.687177728068
0.688162388967
0.688865075289
0.68897364394
0.687977412329
0.685358718523
0.680958438412
0.675090043016
0.645821918119
0.696921533949
0.674050014248
0.685877138217
0.680873206119
0.683163168086
0.683007808639
0.683675827265
0.684283742397
0.685045246719
0.685908169301
0.686697281843
0.687165906637
0.687017978559
0.685863030326
0.683346155183
0.679403151252
0.674339055205
0.642462502293
0.696236696312
0.672531136271
0.684777583957
0.679952316588
0.682417747721
0.682366655391
0.683116260451
0.683818986812
0.684665860082
0.685544363902
0.686274689677
0.686576909961
0.686237365402
0.684935843609
0.682461324798
0.678846789395
0.674360545034
0.638383899061
0.695379198138
0.670800323289
0.683593265837
0.678983606352
0.681809253469
0.682070574555
0.683046945725
0.683865784865
0.684720555483
0.685491580762
0.68598427455
0.685955983554
0.685258900734
0.683724755987
0.681227004991
0.677910127235
0.673924022418
0.633077933937
0.694438797156
0.668626603958
0.682155433033
0.677767834108
0.681018637154
0.681634586112
0.682878350933
0.683831652657
0.684652365115
0.685255469271
0.685437417779
0.685018781316
0.683977965312
0.68223324145
0.679759792234
0.676715707419
0.67324303214
0.627493761548
0.693427516757
0.66614255393
0.680396802422
0.676124655524
0.679740884989
0.680620578948
0.68206113631
0.683073260846
0.683848967251
0.684259253905
0.684187996019
0.68347325346
0.682221627738
0.680390786542
0.678033196229
0.675285775575
0.672246604453
0.622446197045
0.692498444577
0.663621595086
0.678462989307
0.674155163382
0.677989285439
0.678979588861
0.680481856304
0.681470156586
0.682131350603
0.682395403495
0.682135312191
0.681267783347
0.679927644356
0.678144338336
0.675948933059
0.673512010817
0.670828547276
0.617676874989
0.691782630712
0.661215345507
0.676533420865
0.672044837875
0.675948053713
0.676900195025
0.678363899069
0.679264315273
0.679809890543
0.679949652443
0.679575667778
0.678639801538
0.677309244591
0.675625400046
0.673614651672
0.671442152931
0.669070793077
0.615045543605
0.691676866945
0.659934501909
0.675437266801
0.670654517106
0.674412491177
0.675137916765
0.676396603001
0.677082016375
0.677423712168
0.677386395778
0.676884646959
0.675884544331
0.674568193101
0.67297015575
0.671104700688
0.669125500764
0.666986514696
0.62050577543
0.692342109777
0.661542989307
0.67617794582
0.670913209569
0.673994008961
0.674074556732
0.674673839579
0.674765632987
0.674579363163
0.674110572893
0.673291312475
0.672083521453
0.670655265824
0.669036143401
0.667230314703
0.665375771788
0.663436430388
0.624787956761
0.693413102231
0.663452573349
0.677457034483
0.671820697664
0.674361922638
0.673932685041
0.67405495653
0.673692805092
0.673132756803
0.672362421506
0.671337666275
0.669986511477
0.668501121453
0.66687153423
0.665121492663
0.663345164211
0.66153194513
0.627996577709
0.694486058812
0.665312936539
0.67877838821
0.67285393966
0.674923672547
0.674080164699
0.673787672189
0.673071558206
0.672212309451
0.671198353819
0.670009168392
0.668559346548
0.667017975513
0.665387626074
0.663667328437
0.661957378294
0.660214592581
0.63252982366
0.695923860841
0.667136683906
0.680111409831
0.673889193031
0.675502955939
0.674260878889
0.673589591419
0.672543494608
0.671393101212
0.670170516832
0.668810666354
0.667247300617
0.665627311039
0.663976393797
0.66224427757
0.66055380612
0.658847346632
0.633657482056
0.696698210063
0.669330350164
0.681637987704
0.675154464121
0.676319103232
0.674702429792
0.673664805393
0.672318008258
0.670927495449
0.669503613443
0.668004835685
0.666343639904
0.664672397706
0.662973054372
0.661233325979
0.659540086666
0.65789221442
0.64575918377
0.699183112924
0.670767822904
0.682620018795
0.675817708744
0.676542411103
0.674565647021
0.673216309487
0.671594538112
0.669966082787
0.668344248934
0.666709856309
0.664942511439
0.663188919891
0.661440476865
0.659640779778
0.657872659172
0.656137861693
0.627254707497
0.697799032675
0.674508169915
0.68498853096
0.678223094894
0.678523238858
0.676322026595
0.674711683337
0.672871926764
0.671036290617
0.669249500032
0.667484591505
0.665630185077
0.663794645425
0.661974554575
0.66013016322
0.658333620165
0.656733546886
0.691065144003
0.704543708293
0.675528884543
0.685719455627
0.678470149321
0.678288880107
0.675686277694
0.673721892532
0.671546524701
0.669378786526
0.667242720181
0.665273735709
0.663290667399
0.661331719253
0.659445262753
0.657534181121
0.655602670139
0.653481894262
0.575608444716
0.695156312638
0.685306531184
0.691466992691
0.685020858545
0.684511980434
0.682096775424
0.68031452222
0.678406736282
0.676508124951
0.674758230052
0.673129465707
0.671428481939
0.66973942799
0.668070493892
0.666270758952
0.664369571738
0.662866034368
0.822698621783
0.718133437665
0.690914219513
0.697960986803
0.691351160505
0.690331119257
0.687272886036
0.684549473777
0.681441428433
0.678085579313
0.674592434973
0.671323847217
0.668014737041
0.664571298536
0.661080757623
0.657531014553
0.653878594252
0.650332454704
0.648837103533
0.679875968189
0.67588400171
0.677407926839
0.669718448857
0.668741729832
0.666132940536
0.664123577514
0.662083151737
0.660296679702
0.658863341367
0.657527081028
0.65612616119
0.655053530059
0.654306312822
0.653685332344
0.653378555111
0.652626653898
0.500153657349
0.499794629249
0.499610834941
0.499628619131
0.499840285692
0.500205018967
0.500628738982
0.501076538966
0.501523075115
0.501950636132
0.502347297406
0.502705746564
0.503021998922
0.503294577366
0.503523778815
0.503711325841
0.503859655058
0.503972128541
0.504051946057
0.504102246773
0.504126514182
0.504127133329
0.504107585611
0.504068710125
0.504012584999
0.503938851082
0.5038492499
0.50374351907
0.503622370178
0.503484969395
0.50333160391
0.503161710653
0.502975683569
0.502772686373
0.502552912401
0.502316471327
0.502064478534
0.501796203351
0.501512821992
0.501214435641
0.500902433865
0.500577643088
0.500241778246
0.499896577037
0.499544183179
0.499187207604
0.498828266154
0.49847050701
0.498117185852
0.497771245463
0.497435519914
0.497111324403
0.496801797672
0.496511065612
0.4962444494
0.496006975834
0.495803994944
0.495640784331
0.495522795459
0.495455172777
0.495441900462
0.495484064394
0.495582440003
0.495739534882
0.495956023609
0.496228959188
0.496556365805
0.496936193896
0.497365116045
0.497840290221
0.498357356028
0.498912348814
0.499500391897
0.500117143637
0.500757828596
0.501418355942
0.502094638218
0.502782027546
0.503476626682
0.504175721582
0.504877177742
0.505577649783
0.506275058494
0.506966760592
0.507653617074
0.508333098062
0.509005293555
0.509676558096
0.510343251868
0.511008772731
0.511673639306
0.512337798723
0.513002862059
0.513641652074
0.514238871074
0.514831993884
0.515452439585
0.51608513424
0.516728036399
0.517375175727
0.518132318126
0.518977747794
0.519085077147
0.519088052687
0.519254939773
0.519641315354
0.520212610664
0.520496701144
0.520846580736
0.521153902784
0.521415594187
0.521655679658
0.521869098579
0.522062370073
0.522239649276
0.522403900211
0.522558184894
0.522705813021
0.522847725608
0.5229829311
0.523108046146
0.523221830621
0.523325632097
0.523420598836
0.523509624942
0.523593996979
0.523674503864
0.523751700174
0.523826027607
0.523897962409
0.52396796717
0.524036346045
0.524103297105
0.524168775091
0.524232788403
0.524295184936
0.524355876373
0.524415162601
0.524472478466
0.524527520304
0.524578321964
0.524626141831
0.524670093929
0.524708674415
0.524740208251
0.52476290053
0.524775657033
0.524777688852
0.524768308456
0.524746983906
0.524712637736
0.524663753718
0.524598617466
0.524515602098
0.52441294264
0.52428883396
0.524141239849
0.523967938497
0.523765984343
0.52353179233
0.523259991666
0.522944855611
0.522578282839
0.52214890831
0.52164118824
0.52103804107
0.520318445746
0.519465825938
0.518467005666
0.517299286847
0.515949918779
0.514422581288
0.512735699935
0.510929925686
0.509064179393
0.507082670466
0.505037059553
0.5030035825
0.501090964549
0.499584226455
0.500054848063
0.499813872642
0.499909476214
0.500197556668
0.50054854903
0.500907623495
0.501253011405
0.50157507498
0.501869806266
0.502135095633
0.502370325164
0.502574518708
0.502748190869
0.502891515411
0.503005754244
0.503092027951
0.503152229138
0.503188259338
0.503202708036
0.503197167126
0.503174281309
0.503135532967
0.50308334933
0.503017966404
0.502940856155
0.502851200404
0.502749945375
0.50263630511
0.502510193635
0.502370380532
0.502216837156
0.502048681426
0.501865475153
0.50166615475
0.501451185087
0.501219967855
0.500972916496
0.500709847668
0.500431342879
0.500137343907
0.499828863399
0.499506711058
0.499172365253
0.498827571154
0.498474535228
0.498115973084
0.497755168017
0.497395637204
0.49704189269
0.496698943315
0.496374244999
0.496072658898
0.495796918694
0.495549790631
0.495334993513
0.495156179727
0.495016985702
0.494922926772
0.494879774664
0.494889439382
0.49495322438
0.495073285699
0.495249340388
0.495477761309
0.495759260636
0.496095665267
0.496486585757
0.496931321051
0.497428637798
0.497977268251
0.498575079716
0.499219788179
0.499907957754
0.500635968077
0.501399695481
0.502194513489
0.503015364176
0.503856998416
0.504713964367
0.505582261431
0.506458721329
0.507339344817
0.508219659787
0.509097397762
0.50997369134
0.510842642693
0.511696908958
0.512545627257
0.513409336697
0.514269669886
0.515096549765
0.515924373112
0.516794347757
0.517677359499
0.518489347387
0.519226424133
0.519998651759
0.520624068699
0.521246459392
0.521903986716
0.522535462859
0.523299035821
0.523851199942
0.524451953131
0.524999264146
0.525524152207
0.525815857421
0.526025488643
0.526187514529
0.52637709842
0.52660165766
0.526836291982
0.527069191809
0.52730007015
0.527528972608
0.527756234941
0.527983376771
0.528212285133
0.528443626027
0.528674605162
0.528901309444
0.529121844583
0.529336104566
0.529545754675
0.529752685971
0.529957770979
0.530161636141
0.530364635029
0.53056716693
0.530769326493
0.530971117086
0.531172474301
0.531373480298
0.531574178352
0.531774775863
0.531975525502
0.532177051428
0.532380197052
0.53258563464
0.532792916481
0.533001638748
0.533212909313
0.533427070461
0.533643837631
0.533862353561
0.534082194466
0.534303757572
0.534528024368
0.534756215107
0.534989342518
0.535228521599
0.535474959871
0.535729874439
0.535993959441
0.536267090764
0.536548459124
0.536836105495
0.537127457633
0.537418965179
0.537707375923
0.537987706487
0.538254402811
0.538502029734
0.538726492585
0.5389240257
0.539091583894
0.539232791483
0.539339899314
0.539413731631
0.539455875928
0.539464734483
0.539433175429
0.539351079305
0.539213808073
0.538952695053
0.538659889331
0.538315074308
0.537926288231
0.537538126715
0.537128980311
0.500415325582
0.500342998944
0.500382709178
0.500503434638
0.500631095752
0.500737096964
0.500831125851
0.500920601042
0.501009758859
0.501098546245
0.501185795138
0.501269288759
0.501346885951
0.501416405407
0.501476278951
0.501525223958
0.501562717902
0.501588435872
0.501602810668
0.501606314667
0.501599912025
0.501583653559
0.501559148931
0.501526064078
0.501484850172
0.50143479123
0.501376133284
0.501307641195
0.501228934718
0.501138684516
0.501036363104
0.500920539313
0.500790880293
0.500646361447
0.500486668101
0.500311283764
0.500120661414
0.499914229034
0.499692538725
0.499455858865
0.499205080961
0.498941205416
0.498665762552
0.498380614793
0.498088063351
0.497790785657
0.497492008869
0.497195251218
0.496904482721
0.496623964466
0.496359789344
0.496118282387
0.495906305538
0.495728293566
0.495587695579
0.495487254944
0.495429265147
0.495413597729
0.495439325763
0.495507923566
0.495622013876
0.495783696192
0.495997987214
0.496268930459
0.496595445999
0.496978789041
0.497420342727
0.497920376311
0.498477507827
0.499089467309
0.499752651036
0.500462709493
0.501214584037
0.502002880687
0.502822068531
0.503666569451
0.50453097767
0.50540988003
0.506298133437
0.50719073105
0.508085185534
0.508978134517
0.509864649689
0.510741366231
0.511611431831
0.512475699093
0.513319102178
0.51413781903
0.514954884217
0.515779310621
0.51657658431
0.517318526362
0.518080629626
0.518839540946
0.519560719177
0.520247057111
0.520873628333
0.521343925986
0.52188866586
0.522624026369
0.523432752178
0.52400094961
0.524285814597
0.524586664052
0.524740354566
0.524950944047
0.525302024675
0.525804275248
0.526294501952
0.526735621384
0.527135170339
0.527497419695
0.527830111653
0.528142045339
0.528438506574
0.528723032523
0.528998806601
0.529268290424
0.529532248805
0.529788377349
0.530034199826
0.530269091271
0.530494366262
0.530712263689
0.530923909739
0.531130006511
0.531331000341
0.53152723448
0.53171900052
0.531906744538
0.532091107886
0.532272748833
0.532452128616
0.532629588588
0.532805487367
0.532980250348
0.533154534041
0.533328730827
0.533502874229
0.533675605715
0.533846649017
0.534016864922
0.534187439361
0.534358102477
0.534527440344
0.534694377379
0.534858492698
0.53501987683
0.535178500429
0.535334292963
0.535487144246
0.535637135511
0.535784190014
0.535928365084
0.536069924507
0.536209384833
0.536347458976
0.536485281647
0.53662400063
0.536765257637
0.536910679004
0.537061872215
0.537220434199
0.537388103423
0.537566104487
0.537755930691
0.537960180278
0.538179312515
0.538410174639
0.538649898925
0.538893539366
0.539130918286
0.539349338463
0.539522811714
0.539624813396
0.539637702383
0.539543537162
0.539338542946
0.539072444945
0.538897163626
0.500883876335
0.500777210534
0.500526990076
0.500394564408
0.500325331192
0.500271858316
0.500240940316
0.500234080662
0.500250041931
0.5002856039
0.500336891898
0.500399299024
0.50046904604
0.500542367134
0.500616382459
0.500688525482
0.500757051286
0.500820574479
0.500878594366
0.50093009605
0.500975459979
0.501014379485
0.501047053027
0.501072852512
0.501092193098
0.501103695555
0.501107076939
0.501101048146
0.501084855822
0.501056877722
0.50101626157
0.500961686932
0.500892317908
0.500806810294
0.500705229379
0.500586635053
0.500451082516
0.500298418372
0.500129201265
0.499943685517
0.499743026899
0.499528453845
0.49930183933
0.499065434702
0.498821961092
0.498574595143
0.498327075233
0.498083219576
0.497847469915
0.49762460103
0.497419239931
0.497234912133
0.497077304134
0.496951260243
0.496861272478
0.496811099633
0.496804205711
0.49684227479
0.49692394537
0.497046536419
0.497209473073
0.497413973453
0.497662971308
0.497961293495
0.498314879049
0.4987274028
0.499200783719
0.4997359259
0.500332371639
0.500988111451
0.501699663496
0.502461954229
0.503268536866
0.504112604722
0.504986947117
0.505883468782
0.506795005927
0.507716150023
0.508639937582
0.509559742758
0.510473383638
0.511381535314
0.512276023615
0.513147343464
0.514003495509
0.514852010821
0.515678341445
0.516448670439
0.517208784109
0.517968616255
0.518693478405
0.519366005746
0.519997944923
0.520610124087
0.521171340633
0.521731980897
0.522352657064
0.523026960811
0.523804179867
0.524542909096
0.525049786704
0.525251362298
0.525388478299
0.525576388575
0.525745715008
0.526051984923
0.526548052156
0.527182038157
0.527807881326
0.528359254343
0.528834386598
0.529247696851
0.529614534516
0.529947585087
0.530255137502
0.530543014181
0.530815710436
0.531076654649
0.531326869155
0.531565276359
0.531790790394
0.532004467604
0.532209357828
0.53240776615
0.532600834453
0.532789164822
0.532973279033
0.533153676134
0.533330897659
0.533505462126
0.533678131902
0.533849396312
0.534019422926
0.53418851697
0.534357078971
0.534525788108
0.534695117643
0.534865062923
0.535034716074
0.535202549396
0.535368065239
0.535532800476
0.535698630904
0.535865561201
0.536032492273
0.536198529843
0.536363437804
0.536527402698
0.536690697675
0.536853625381
0.537016408957
0.537179275071
0.537342116592
0.537504832902
0.537667329733
0.537829488333
0.537991036333
0.538151462919
0.538310109041
0.538466258337
0.5386194778
0.538769273626
0.538915193754
0.53905738017
0.539196406699
0.539333604494
0.53947234879
0.539614878941
0.539763124548
0.539920341004
0.540088344089
0.540265432428
0.540447867796
0.540626875216
0.540783754361
0.540911267919
0.5409963666
0.54104166526
0.541104547463
0.541312706326
0.501420354344
0.500803447626
0.500165314567
0.499924195592
0.499837647452
0.499780963319
0.499748086964
0.499737569772
0.499750297857
0.499784243212
0.499837323169
0.499906271366
0.499987917289
0.500078634689
0.500175560371
0.500275711153
0.500377148624
0.500477666
0.500576187912
0.500671634754
0.500763544325
0.500850738373
0.500933594226
0.501010949808
0.501082380809
0.501146852264
0.50120378663
0.501251518243
0.501289142786
0.501315027732
0.501328166759
0.501326813686
0.501310321234
0.501277503713
0.501227789674
0.501160418984
0.501075683077
0.500972998587
0.50085293219
0.500715840532
0.500562802695
0.500394970746
0.500214187664
0.500022549964
0.499822716513
0.499617571697
0.499410643272
0.499205631028
0.499006509223
0.498817837828
0.498645706171
0.49849439416
0.498369185377
0.498275179718
0.498216395555
0.498196307869
0.498218735609
0.498286193487
0.498399143168
0.498559027766
0.498766986427
0.499023502902
0.499329241233
0.499684125617
0.500089525347
0.50054839561
0.501063363034
0.501636299815
0.502267239661
0.502955017009
0.503696753624
0.504487967252
0.505321594559
0.50619162245
0.507091151335
0.508011404581
0.508943497902
0.509883849494
0.510828566899
0.511764681274
0.51268570723
0.513601514426
0.514505436342
0.515378753816
0.516232633217
0.517080824997
0.517902469272
0.518677429772
0.51939696929
0.520095781088
0.520790952875
0.52143031728
0.522052820268
0.522641841789
0.523251412832
0.523967436473
0.524739470497
0.525490012612
0.52613502676
0.526540036607
0.526690512269
0.526716287848
0.52681620024
0.52700794199
0.527264341048
0.52765275808
0.52816466243
0.528742837339
0.529303810763
0.529806604482
0.530245269345
0.53062862562
0.530968314747
0.531274880775
0.531556206421
0.531818267116
0.532065730415
0.532301769043
0.532527228534
0.532741375191
0.532943874511
0.533136676428
0.533322866927
0.533504227368
0.53368129637
0.533854159621
0.534022912232
0.534187758644
0.534349046489
0.534507161299
0.534662404255
0.534815099165
0.53496571193
0.535114688031
0.535262630344
0.5354102187
0.535557817488
0.53570500441
0.535850079392
0.535991483483
0.536128845768
0.536264598268
0.536401051478
0.536538647692
0.536676687565
0.536814358299
0.536951416398
0.537087947405
0.537224204883
0.537360484255
0.537496976318
0.537633838276
0.537771240786
0.537909294641
0.538048082841
0.538187547906
0.538327657525
0.538468391648
0.538609595851
0.538751082082
0.538892939073
0.539035228713
0.5391780828
0.539322005305
0.539467480068
0.53961546636
0.53976820425
0.539926733459
0.540091378709
0.540263706597
0.54044324851
0.540627066806
0.540812118174
0.540991933969
0.541155968987
0.541301653598
0.541429463107
0.541557728067
0.541754307488
0.542130086219
0.501904872947
0.500194458446
0.499334415307
0.499309237996
0.499397614399
0.499437818665
0.499456820165
0.499473593553
0.499501401943
0.499545553527
0.499608099054
0.499687153676
0.499780937438
0.499886119505
0.500000342941
0.500120564349
0.500244874451
0.500371027215
0.500497925747
0.500623632319
0.500747849724
0.500869476153
0.500987864458
0.501101936362
0.50121150391
0.501314844994
0.501411187128
0.501498961923
0.501577052605
0.501643657637
0.501697619642
0.501737430569
0.501762082852
0.501770166972
0.501761553666
0.501735285901
0.501691368751
0.501629658638
0.501550812644
0.501455192227
0.501344156995
0.501218979056
0.501081727887
0.500934592999
0.500780340003
0.500621832046
0.500462568622
0.500305861629
0.500155604112
0.500016262599
0.49989371825
0.499792221773
0.49971755553
0.499674992783
0.499669268385
0.499704594423
0.499784840484
0.499909409217
0.500076886091
0.500286435384
0.500538176799
0.500832376237
0.501170855507
0.501554907183
0.501989273354
0.502477494828
0.503023199833
0.503628730936
0.504293951008
0.505016192806
0.505793262123
0.506619504811
0.507486142562
0.508384737462
0.509311316773
0.510256088623
0.511205310149
0.512153459107
0.513104287552
0.51404833045
0.514960867551
0.515877189452
0.516780409101
0.517656771796
0.518494400245
0.519288485367
0.520060800969
0.520804441318
0.521519048911
0.522222608616
0.522873082213
0.523514789909
0.524223880198
0.524940863917
0.525672492745
0.526386664452
0.527016895506
0.527519849725
0.527870234465
0.528034665712
0.528082524235
0.528146028593
0.528308955019
0.528552343964
0.528869955589
0.529280577034
0.529756774396
0.530256871714
0.530738415982
0.531180243471
0.531576702467
0.53193101921
0.532249477747
0.532538921805
0.532805236991
0.533053314331
0.533287114074
0.533508943114
0.533719307028
0.533917487778
0.534103708138
0.534280459067
0.534450482266
0.53461530532
0.534775335849
0.534930619832
0.535081210982
0.535227329287
0.53536934634
0.535507757702
0.535643139187
0.535776269248
0.535907785728
0.536038276587
0.536168453173
0.53629907346
0.536430281013
0.536560965473
0.536689082689
0.536812642696
0.536931765069
0.537049024209
0.537166728879
0.537285579295
0.537405042838
0.537524509538
0.537643711331
0.537762676203
0.537881568002
0.538000403405
0.538119278584
0.538238271264
0.538357469783
0.538477034528
0.538597056638
0.538717643708
0.538838852396
0.538960762461
0.539083362754
0.539206680366
0.539330962377
0.539456435648
0.539583483434
0.539712829768
0.539845346874
0.539982231294
0.540125676344
0.540276839065
0.540436332215
0.540605713387
0.540784316542
0.540969386109
0.541158672909
0.54134738545
0.541527194751
0.541697626492
0.541862980859
0.542046012206
0.542311457042
0.542744432126
0.502169529734
0.498910638172
0.498279122775
0.498791306363
0.499109256176
0.499248721741
0.499320545972
0.499374509777
0.499435723249
0.499511170956
0.499604157964
0.499713054273
0.499836573214
0.499971496658
0.500115978609
0.500267020417
0.500423151495
0.500581868575
0.500742195387
0.500902676796
0.501062550306
0.501220264591
0.501375817451
0.501527715634
0.501675242729
0.501817202472
0.501952753039
0.502080113371
0.50219825561
0.502305452065
0.502400601148
0.50248195489
0.502548792324
0.502599957832
0.502634864823
0.502652857195
0.502654228414
0.50263860181
0.502606748003
0.502559238023
0.50249745118
0.502422690091
0.50233700732
0.502242425018
0.502141488863
0.502036515064
0.501930488512
0.50182610124
0.501726198111
0.501634203747
0.501556719513
0.501497336608
0.501462494132
0.501459523249
0.501494932021
0.501574712951
0.501702177909
0.501874161954
0.502088946161
0.502344649754
0.502640278707
0.502973468586
0.503344398179
0.503755380438
0.504213898794
0.504724069466
0.505291503901
0.505920559606
0.506610896558
0.50735842133
0.508160009779
0.509012829156
0.509904093542
0.510819722853
0.511756803519
0.512709485012
0.51366277679
0.514610848267
0.515563312413
0.516502908966
0.517420835723
0.518302849455
0.519145203284
0.519973709494
0.520778158902
0.521547009008
0.522278544809
0.522972839501
0.523666653781
0.524383803483
0.525080886496
0.525792038519
0.526507184587
0.527181524772
0.527812184539
0.528354046432
0.52877811671
0.529078902502
0.529275248793
0.529383516569
0.529480775456
0.529635543951
0.529861821454
0.53014357522
0.530481845517
0.530874279849
0.531297226197
0.531725845988
0.532138670937
0.532524084803
0.532877340617
0.533198717193
0.533490926422
0.533757928135
0.534003733045
0.534232211428
0.534446455855
0.534648263291
0.534837884406
0.53501498279
0.535180487689
0.535336931559
0.535486908657
0.535631836102
0.535772227832
0.535908223051
0.536039966875
0.536167718213
0.53629189927
0.536413046731
0.5365317167
0.536648398724
0.53676353158
0.53687769852
0.536991653111
0.537106126042
0.53722103477
0.537334900755
0.537445439832
0.537550738696
0.537651449524
0.537750110433
0.537849018963
0.537948859003
0.538049271999
0.538149858032
0.538250478841
0.538351280539
0.538452301817
0.538553637863
0.538655307353
0.538757383098
0.538859932387
0.538963009634
0.539066722866
0.539171207143
0.53927654621
0.539382828947
0.539490075739
0.539598409015
0.539708146622
0.539819632664
0.539933310128
0.540050076493
0.540170950154
0.540297180063
0.540430820173
0.540573061548
0.540724637837
0.540887037196
0.541059787071
0.541240569041
0.541428205557
0.541619712653
0.541809441105
0.541999177434
0.542196541776
0.54242624702
0.542745996599
0.543218108884
0.502099436271
0.497144157804
0.497324046608
0.498501757389
0.498955511609
0.499160264985
0.499286535217
0.499397354088
0.499515591846
0.499645670936
0.499790640243
0.49994786104
0.500117043721
0.500295086706
0.50048104961
0.500672165629
0.500867479565
0.501064811635
0.501263608479
0.501461910239
0.501659516041
0.501855061689
0.502047893312
0.502236929431
0.502421953452
0.502601277439
0.502774273409
0.502939493143
0.503095989407
0.503242135366
0.503377002178
0.503499282137
0.503608168267
0.503702539244
0.503782357582
0.503846895308
0.503896315656
0.503930683294
0.503950771921
0.503957099904
0.503951120462
0.503934045709
0.503907725462
0.503873836447
0.503834298282
0.503790687107
0.50374464708
0.50369754099
0.503650916965
0.503606560981
0.503569766322
0.503546697801
0.503545463367
0.503577763756
0.503655354789
0.503788543442
0.503977770023
0.504216262678
0.504499780194
0.504823125501
0.505179316521
0.505560863052
0.505962098602
0.506393347143
0.506863116237
0.507379317973
0.50794973552
0.5085832749
0.509283190513
0.510041256433
0.510849793907
0.51170949438
0.512609957089
0.513524617341
0.514468054137
0.515426258593
0.516376591757
0.51731132704
0.518218885227
0.51909449414
0.519959455308
0.520801827607
0.521609841805
0.522384112421
0.523121265798
0.523825893823
0.524519962466
0.525223025994
0.525937276911
0.526646453133
0.527318674115
0.527976358485
0.528583342226
0.5291270974
0.529605712647
0.529997543215
0.530295660593
0.530509017824
0.530669209508
0.530805167402
0.53096705815
0.531177977463
0.5314331537
0.531724596946
0.532051218022
0.532405347172
0.532772290507
0.533138629162
0.533492930251
0.533827872614
0.534139432451
0.53442653147
0.534689995204
0.534931923024
0.535155058457
0.535362377185
0.535556275531
0.535738081936
0.53590792133
0.536065722047
0.536212706886
0.536351235088
0.536483515355
0.536610822254
0.536733689925
0.536852290638
0.53696676002
0.537077310348
0.537184298291
0.537288181165
0.537389461133
0.537488621129
0.537586246539
0.537683037971
0.537779931051
0.537877598925
0.537975658502
0.538072383367
0.538165315766
0.538252964901
0.538336211473
0.538417466716
0.538498776952
0.538580750447
0.53866319748
0.538745852218
0.538828748548
0.538911994768
0.538995705181
0.539079927979
0.539164647664
0.539249905687
0.539335748417
0.539422271468
0.539509599844