/*--------------------------------*- C++ -*----------------------------------*\
| =========                 |                                                 |
| \\      /  F ield         | OpenFOAM: The Open Source CFD Toolbox           |
|  \\    /   O peration     | Version:  v1806                                 |
|   \\  /    A nd           | Web:      www.OpenFOAM.com                      |
|    \\/     M anipulation  |                                                 |
\*---------------------------------------------------------------------------*/
FoamFile
{
    version     2.0;
    format      ascii;
    class       volScalarField;
    location    "15";
    object      sensitivity;
}
// * * * * * * * * * * * * * * * * * * * * * * * * * * * * * * * * * * * * * //

dimensions      [0 2 -3 0 0 0 0];


internalField   nonuniform List<scalar> 
12225
(
-2.74092789941
-8.49645584675
-6.36110171088
-7.13247826629
-6.77587311165
-6.97086749651
-7.06341303847
-7.35038137583
-7.72838720218
-8.18521720715
-8.61947276829
-8.88545176959
-8.86942565754
-8.65326791814
-8.87807290688
-10.9687237478
-15.7266960796
-18.5713831632
-18.8397302785
-8.71588256387
-10.3346609413
-10.1292589399
-10.6696738018
-11.1177726464
-11.7204007302
-12.3982087208
-13.1394002543
-13.8786748946
-14.5479112149
-15.0397123351
-15.3100255485
-15.5446442682
-16.4234458255
-19.029382384
-23.0673467914
-23.3392300325
10.482098138
-13.1392983415
-7.36378905873
-9.190134541
-8.72373104539
-9.13492205121
-9.38336299627
-9.79469536055
-10.2198889555
-10.6337798824
-10.9511888893
-11.0899683656
-11.0478294265
-11.0782858822
-11.8627550904
-14.2121139956
-17.4648391053
-17.8161199315
-24.5256057739
-8.19728732229
-9.68800656846
-9.4733418289
-9.76467408609
-10.0904923522
-10.4842091179
-10.9600779998
-11.4557798141
-11.9157793909
-12.2506783587
-12.3782452888
-12.3024587905
-12.2472624593
-12.7264273358
-14.1498176674
-15.6963198684
-15.0976539106
3.03232830896
-9.42316411173
-8.43188038289
-8.94198874635
-8.94770262309
-9.2413737526
-9.5545869843
-9.97377680258
-10.4349573167
-10.8955744901
-11.2840946497
-11.5405911196
-11.6893847443
-11.9224026423
-12.5670064443
-13.6829472077
-14.4406928615
-13.588491185
-11.1786425943
-9.87776793952
-8.94489659593
-9.40886296709
-9.42519553864
-9.67292171167
-9.91317723376
-10.2275169511
-10.5566930874
-10.8723587356
-11.1256684636
-11.2909399351
-11.420446937
-11.6804378977
-12.2574544352
-13.0310114157
-13.3325556577
-12.5294317115
-6.73222515722
-9.25777070035
-9.01917911505
-9.3243107289
-9.42835053163
-9.65778475827
-9.89948725025
-10.1875586543
-10.4796750435
-10.7469681722
-10.955040456
-11.0967752654
-11.2314021841
-11.4831515283
-11.9318116674
-12.3984878842
-12.4259681995
-11.7347850884
-8.17547702338
-9.42919172121
-9.13696087833
-9.42435466832
-9.52464370883
-9.72216705529
-9.92984051388
-10.1707931206
-10.4109660186
-10.6259288019
-10.7931966638
-10.9169746186
-11.0502683445
-11.2707183046
-11.5861373739
-11.8236311488
-11.7027838206
-11.1215567142
-8.51033823248
-9.36553733397
-9.30221968495
-9.50058725453
-9.62186622857
-9.78685226197
-9.96563764495
-10.1624495769
-10.3545802276
-10.5220596509
-10.6528251655
-10.7567856342
-10.8747520566
-11.0455673325
-11.239730029
-11.3194080484
-11.1268706105
-10.6387891147
-8.95245429809
-9.35840531234
-9.45446479509
-9.58044422379
-9.71103862898
-9.84609832409
-9.99676526015
-10.1535902108
-10.303036905
-10.4294787608
-10.5281793229
-10.6100390309
-10.7019174966
-10.815548907
-10.9092783812
-10.8859297385
-10.6640500034
-10.2499341855
-9.36658014156
-9.35309819644
-9.59896209357
-9.65218772835
-9.78741245878
-9.89365269765
-10.0179278132
-10.1390165827
-10.2512837751
-10.3427555629
-10.4131043945
-10.4710623856
-10.5311087391
-10.5892236339
-10.6057519493
-10.5181512668
-10.2882707623
-9.93215539291
-9.66434029565
-9.36088165729
-9.69490005215
-9.69398431063
-9.82628730015
-9.90895061488
-10.0105093944
-10.1029708195
-10.1859699012
-10.2501114379
-10.2967101825
-10.3317012798
-10.3610515786
-10.3743679181
-10.3397952642
-10.2180605882
-9.99258499166
-9.67972924081
-9.89440848214
-9.3886463304
-9.76506750624
-9.72389224924
-9.84797900835
-9.91011345168
-9.99080810681
-10.0584970876
-10.1160510494
-10.1561148598
-10.1809562322
-10.1931290308
-10.1932896986
-10.1699267916
-10.098975813
-9.95759396673
-9.74052235601
-9.46361335169
-10.0921012473
-9.41963403425
-9.81908606623
-9.74178667941
-9.8520899865
-9.89278437181
-9.95095060163
-9.99362889128
-10.0257846027
-10.0419954898
-10.0436587907
-10.0315335316
-10.003514915
-9.94867304626
-9.85147877434
-9.6997001058
-9.49533123304
-9.25192746236
-10.2712475008
-9.45302090925
-9.86464175345
-9.75531489561
-9.84638431426
-9.864235056
-9.89773946934
-9.91481546451
-9.9213036927
-9.91263387816
-9.89037095545
-9.85362132502
-9.79946735791
-9.72028906193
-9.60629098233
-9.45239873708
-9.26315462069
-9.05077597421
-10.3899998031
-9.49535176863
-9.89511688777
-9.7646492993
-9.83236009418
-9.82801909175
-9.83657791441
-9.82882253786
-9.81007646426
-9.77764112737
-9.73185818841
-9.67225383879
-9.59670071981
-9.50035244758
-9.37776385954
-9.2275840129
-9.05501231761
-8.8704570919
-10.4141131955
-9.52716511012
-9.89595656656
-9.75361770958
-9.79660726243
-9.77158017922
-9.75644766121
-9.72586204919
-9.68460249284
-9.63076421163
-9.56501905865
-9.4872946867
-9.39660650738
-9.29027828433
-9.16568580072
-9.02301420007
-8.86739275058
-8.70725535162
-10.3766859043
-9.5547073892
-9.86460536574
-9.72087310761
-9.73735632843
-9.6946118952
-9.6580755627
-9.60801183346
-9.54789462105
-9.47722447266
-9.39662605696
-9.30678239637
-9.20749524664
-9.09755375101
-8.975668815
-8.84268744596
-8.70313714153
-8.56428084985
-10.3156141541
-9.5738248839
-9.81529689842
-9.67404627062
-9.66623417257
-9.60988926146
-9.5565991858
-9.49218290329
-9.41874482298
-9.33686186177
-9.24725277205
-9.15117680401
-9.04887975126
-8.93987121972
-8.82333161842
-8.70020757415
-8.57415499946
-8.45154877411
-10.2173285771
-9.54502260768
-9.78450846293
-9.63863464097
-9.62328415752
-9.55865874828
-9.49806419655
-9.4269807136
-9.34824542587
-9.2626793129
-9.17109023289
-9.0751082744
-8.97494182076
-8.87065031939
-8.76134256813
-8.64801724608
-8.534136427
-8.42644372793
-10.4738345076
-9.62743001797
-9.77536707088
-9.62609217525
-9.6052403678
-9.53610979908
-9.47102166851
-9.39559096517
-9.31303244605
-9.22401160533
-9.1292059056
-9.03077494747
-8.92955192077
-8.82494159666
-8.71631882146
-8.60404359034
-8.49052147036
-8.38045883044
-9.54538227842
-9.35830201126
-9.8850429918
-9.71155641925
-9.70761315839
-9.63214621546
-9.56570513459
-9.48734550958
-9.40518742274
-9.31842739594
-9.2297184159
-9.13899989167
-9.04676658989
-8.95340983945
-8.85844096863
-8.7622639184
-8.66877161116
-8.58089745113
-12.9780393663
-10.055762276
-9.69791078295
-9.59444700353
-9.56327550135
-9.49366867842
-9.42274956533
-9.34183529157
-9.25472722708
-9.16215185828
-9.06395309187
-8.96487521667
-8.86513589508
-8.76438479319
-8.6612597572
-8.55670703367
-8.4511975024
-8.36519104103
-3.09175764224
-8.76325202945
-10.265219329
-10.0200733239
-10.0654201801
-9.96362633789
-9.89309947623
-9.80314459591
-9.7124750947
-9.61685021466
-9.5187923097
-9.4165067413
-9.31149370397
-9.20320713385
-9.09103492145
-8.97480240248
-8.8574261141
-8.70562384812
-26.8828235322
-10.2444159099
-9.67653163101
-9.50438744843
-9.47225475707
-9.41327654313
-9.33785675774
-9.26787165611
-9.19831966536
-9.13394295147
-9.07548590882
-9.02193385032
-8.97192161636
-8.92735822589
-8.88831954821
-8.85520037961
-8.82794329135
-8.85875303442
21.1294942494
-10.5224966285
-9.8950832745
-10.4682850705
-10.2949791849
-10.2031096074
-10.1067125659
-9.98742352187
-9.86362267519
-9.72528914355
-9.57331997434
-9.40824827652
-9.22909706483
-9.03750694818
-8.83871372066
-8.64259627459
-8.46319054102
-8.26247483481
-54.8013415174
-5.1205866421
-11.8249876641
-9.40439485842
-10.0417396117
-9.82082000126
-9.81004482143
-9.75447953153
-9.71244642285
-9.67255745223
-9.63513325757
-9.59826931089
-9.56357667351
-9.53424559766
-9.51538733418
-9.51129850712
-9.51563278463
-9.55819346486
33.1762698688
-17.5509470598
-7.82460979326
-10.8935778563
-9.8292369545
-9.96914846105
-9.76606464689
-9.65169480913
-9.51330918769
-9.3812061296
-9.24864399381
-9.11634442056
-8.98596518717
-8.85934729928
-8.73606310115
-8.61385250132
-8.48680786892
-8.2930561231
-35.4135123225
-5.89507614072
-12.8923803022
-10.6103548653
-11.2853944861
-11.0107138988
-11.0294939721
-10.9503041181
-10.8964515077
-10.831589249
-10.769267058
-10.7036114659
-10.6329973764
-10.5544332452
-10.4638440714
-10.3568875579
-10.2194720905
-10.1092478111
-2.74768274828
-8.35406938658
-6.8341892955
-7.04505226333
-6.85077582346
-6.72656492419
-6.58796763451
-6.4482892569
-6.31279808671
-6.18180728627
-6.05728231967
-5.93997184037
-5.83038292405
-5.72584837367
-5.61984204301
-5.51435570441
-5.43958190428
-5.40405205952
0.00857913438762
0.0139969800983
0.0166647843538
0.0115770831572
-0.00483862522108
-0.0261997160163
-0.0362140234013
-0.0557422876204
-0.0843082132856
-0.119256203384
-0.15794708492
-0.198707244171
-0.24056754001
-0.28317309563
-0.326490999318
-0.370422990474
-0.414961672436
-0.45977343943
-0.504600545894
-0.548976629521
-0.592567908323
-0.63494011053
-0.675806314638
-0.714903268986
-0.751979539774
-0.786939883558
-0.819632650824
-0.8500198725
-0.877900139653
-0.903255883373
-0.925895270742
-0.945769190723
-0.962673394283
-0.976527970263
-0.987146288664
-0.994383570177
-0.998125997973
-0.9981748372
-0.994405504572
-0.986603239127
-0.974688388165
-0.958435931742
-0.937807831037
-0.912607611798
-0.882860753749
-0.848462411667
-0.809467391289
-0.765929342716
-0.717965440797
-0.665721338432
-0.60937037877
-0.549181831065
-0.485282671615
-0.418022400792
-0.347626658233
-0.274395357824
-0.198545108661
-0.120416956513
-0.0402831492119
0.0415360887423
0.124754062459
0.208899546191
0.293343826743
0.376498892883
0.455884480316
0.533131559707
0.608722389859
0.682913992209
0.755933757336
0.827710831779
0.89822080565
0.967248921075
1.03459041463
1.09992964784
1.16288613591
1.22302927949
1.27983637507
1.33292647206
1.3819272062
1.42651431779
1.46631235423
1.50105188914
1.53051740961
1.55449284076
1.57277502367
1.58517110479
1.59155066452
1.5920019306
1.58676791632
1.57710135799
1.56394601549
1.54800943811
1.52925846448
1.50660416441
1.47794857683
1.44145543199
1.39628831388
1.34224434712
1.27719519926
1.19675243276
1.09718408613
0.975816424959
0.83823664515
0.710024357133
0.580196486509
0.427007808758
0.286988863926
0.127912345927
-0.0761023562996
-0.144970579545
-0.114468805436
-0.175037651645
-0.223266684044
-0.268823523116
-0.309515983006
-0.345345057785
-0.376694960066
-0.404056048231
-0.427911425249
-0.448748915884
-0.467031464765
-0.483156171275
-0.49736847127
-0.509849143527
-0.520739389142
-0.530175823772
-0.538252017973
-0.545020774466
-0.550514989289
-0.554806472769
-0.557927692363
-0.560040129599
-0.561328646478
-0.561637683129
-0.56111240008
-0.559889315815
-0.558047302507
-0.555583667479
-0.55247244809
-0.548749669994
-0.544574683349
-0.540068354254
-0.535284333689
-0.530168464489
-0.524652768649
-0.518743425946
-0.512474977664
-0.505915900281
-0.499124205642
-0.492212502965
-0.485320116527
-0.478652083147
-0.472368427458
-0.466618854346
-0.461480433319
-0.457085180588
-0.45348668435
-0.450700152557
-0.448551947315
-0.446921609978
-0.445680889238
-0.444824577256
-0.444157585921
-0.443467211811
-0.44237416059
-0.440447599335
-0.437149520212
-0.431927374728
-0.42390879664
-0.412221321837
-0.396299945061
-0.376102410263
-0.355602791482
-0.333415255299
-0.311633809325
-0.294466834054
-0.284634014144
-0.274401829212
-0.260581229954
-0.155682241226
-0.00683603328392
0.00538873449562
0.0204831049004
0.0303531489722
0.0327262045744
0.0281302428354
0.0198381642356
0.00926654225104
-0.000901035379747
-0.00771480378443
-0.00901962268574
-0.00400646195637
0.00718004330414
0.0237482527187
0.0445218075563
0.0683048745991
0.0938522659813
0.12017942335
0.146411650868
0.172020230913
0.196628206895
0.220123857233
0.242626541566
0.264427434132
0.285995347385
0.307870306772
0.330762094073
0.355338174294
0.382403110342
0.412630080136
0.446758558609
0.485338761193
0.528931225675
0.577933005531
0.632636983648
0.69320694245
0.759695625898
0.832074172748
0.910171691372
0.993812683909
1.08266694268
1.17643239031
1.27466995625
1.37698970771
1.48289006595
1.59190189522
1.70349494813
1.81715755346
1.93235259454
2.04849343107
2.16511201756
2.28170121024
2.39784705656
2.51308152786
2.62701626884
2.7392050956
2.84930331449
2.95691173756
3.0616741154
3.16322001673
3.26126947114
3.35583977534
3.44736797876
3.53824835138
3.62832086006
3.71368056707
3.79251929269
3.86362812695
3.92609346567
3.97914212217
4.02220583768
4.05490555129
4.07710842189
4.08890321096
4.0905194014
4.08231251749
4.06465155913
4.03790994874
4.00225683619
3.95752669885
3.90310602495
3.83796939582
3.76064297104
3.66935865434
3.56224896291
3.43773195649
3.29503375806
3.13433358153
2.95775391791
2.76967578768
2.5749659715
2.37780451929
2.18199934164
1.99216812621
1.81276781107
1.6455909919
1.48827464461
1.33482511889
1.17758829339
1.01837323753
0.868639427692
0.741001455215
0.610602698
0.443875349973
0.303166460128
0.196863900841
0.032692159093
-0.255636117928
-0.344114359619
-0.307996908005
-0.392324087943
-0.513090928181
-0.608695482492
-0.695000727253
-0.77299265658
-0.843874802529
-0.908556377207
-0.967802275302
-1.02227154199
-1.07253459764
-1.11908387226
-1.16226770217
-1.20228284605
-1.23917787561
-1.27291443722
-1.30342641708
-1.33063991756
-1.3545892587
-1.37533645429
-1.39291448901
-1.40726378058
-1.41813004187
-1.42550925271
-1.43020489286
-1.43256393214
-1.43279585346
-1.43084373186
-1.42675323884
-1.42058256347
-1.41244455874
-1.40249337973
-1.39082696673
-1.37743931181
-1.36226537748
-1.34527969995
-1.32652170558
-1.30607440174
-1.28409961309
-1.26083524472
-1.23657344487
-1.21159557097
-1.18616085674
-1.16050630491
-1.13494210122
-1.1098002657
-1.08537680661
-1.06180993805
-1.03920457108
-1.01762871876
-0.997168434415
-0.977726880814
-0.959095963285
-0.940925095016
-0.922928879772
-0.904778457628
-0.886081583687
-0.866345393832
-0.844731225592
-0.820196067347
-0.791646722704
-0.758698571124
-0.721140501437
-0.681166710994
-0.635663722355
-0.593113903122
-0.558315351402
-0.540373957749
-0.531362985196
-0.536214560778
-0.530257815423
0.00696435623521
0.0185343885187
0.0239965873979
0.0351349887801
0.051666717418
0.0686232260359
0.0840407599747
0.0994489662532
0.117481190665
0.139493033492
0.165619766388
0.195104252484
0.227010811903
0.260486617976
0.29484895006
0.329653964534
0.364542177986
0.399330653424
0.43384721627
0.467998407674
0.501694016123
0.534892530249
0.56753825271
0.599601573556
0.631108344533
0.662060524087
0.692538526578
0.722618539048
0.752476917077
0.782258637627
0.812198926278
0.842508573959
0.873450526227
0.905233479054
0.93810574071
0.972275015626
1.00790023603
1.04514959819
1.08412424896
1.124914582
1.16751561075
1.21192562449
1.25802822771
1.30570785826
1.35473842889
1.40488414991
1.45584043086
1.5072562707
1.55877486324
1.61001860781
1.66060687783
1.71015480076
1.75837212853
1.80492106285
1.84951563187
1.891852583
1.93168448373
1.96877415434
2.00291919284
2.03392088741
2.06154958014
2.08547785219
2.10443361964
2.11744027674
2.12878516649
2.14074880592
2.1542607269
2.16997809687
2.18863438906
2.21089578959
2.23723294719
2.26782865087
2.3025335344
2.34090061779
2.38218094314
2.42536577494
2.469242557
2.51245981388
2.5534792223
2.59056413563
2.62175029875
2.64487661629
2.65757163167
2.65725861513
2.64125542237
2.60704137878
2.55240471926
2.47580807369
2.37705474316
2.25768152021
2.12076103167
1.97039004825
1.81234029083
1.65214933775
1.49263056044
1.33388837607
1.17692470165
1.02456991193
0.883703814939
0.764450568587
0.662783590409
0.547740498945
0.411971158083
0.308862553791
0.257603001346
0.0703333534564
-0.145215113672
-0.261882794111
-0.299129481296
-0.373823133968
-0.514687492567
-0.640796831793
-0.728475777143
-0.798235026157
-0.856779409125
-0.908018453274
-0.954046340443
-0.996043217477
-1.03462589568
-1.07011607745
-1.10266604604
-1.13231025855
-1.15900804497
-1.18272327128
-1.20352300653
-1.22161431145
-1.23735711099
-1.25114415491
-1.26331503129
-1.27413312081
-1.28387192301
-1.29283291209
-1.30123758571
-1.30902271088
-1.3161993991
-1.32231430701
-1.32748672184
-1.33179190923
-1.33528587183
-1.33808779029
-1.34033037801
-1.3421333483
-1.34348792471
-1.3443085471
-1.34450076486
-1.34403312209
-1.34292931603
-1.34122244848
-1.33889418782
-1.33586805743
-1.33202590323
-1.32724889942
-1.32140691701
-1.31437827656
-1.30602043667
-1.29621883782
-1.28486481891
-1.27192353303
-1.25737071068
-1.2412286981
-1.22345453835
-1.20411216944
-1.18328869104
-1.16113159009
-1.13771301262
-1.11304373206
-1.08705646544
-1.05944372089
-1.0296279446
-0.997356970851
-0.962750761767
-0.925895916431
-0.889138551857
-0.850733622078
-0.81527616876
-0.788409518841
-0.770584919407
-0.762021148737
-0.771187372536
-0.776340515083
-0.0320068465153
-0.0174866877676
0.027780274315
0.072570239196
0.113470598553
0.145118335452
0.168140239863
0.187925764992
0.209558011525
0.235259471158
0.265209238568
0.298626593592
0.334617357416
0.372470132567
0.411673037331
0.451921201331
0.492984695628
0.534727887762
0.577016798851
0.619785450495
0.662949299221
0.706447082986
0.750252235277
0.794358283234
0.838771331983
0.883539728958
0.928748471328
0.974490822924
1.02089863391
1.06810605541
1.11627358378
1.16551739798
1.21597061523
1.2677344519
1.32086686771
1.37538673718
1.43130062173
1.4885608747
1.54707675906
1.60674782632
1.66741270914
1.72890053698
1.79098083829
1.85341830144
1.91593608122
1.97824989569
2.04006234112
2.10109630724
2.16108808371
2.21977490602
2.27699425135
2.33260125932
2.38650301356
2.43866210194
2.48911652221
2.5379070302
2.58512179511
2.63085578242
2.67525884466
2.71840749664
2.76048290392
2.80151995257
2.84250681757
2.88142104547
2.91517509639
2.94220756316
2.96201171376
2.97413217817
2.97833056999
2.97472209154
2.96377387076
2.94625708897
2.92313328844
2.89545312989
2.86421527936
2.83033209682
2.79453549478
2.75735683407
2.71907049347
2.67965219763
2.63874094144
2.59561033061
2.54914032325
2.49783883484
2.43982275866
2.37288030885
2.29474653134
2.20316886838
2.09739980122
1.97845906758
1.84801612948
1.70732731356
1.55688311127
1.39707473028
1.22954763184
1.05826375588
0.89267709003
0.742995498724
0.613849693153
0.493310386146
0.366669940384
0.243566097752
0.174562247682
0.127669168029
0.0278263511297
-0.111781016169
-0.187191876129
-0.253622303236
-0.358630106137
-0.508179423399
-0.668101416598
-0.801716029038
-0.902941549592
-0.986994440166
-1.06008552352
-1.12553214839
-1.18485640839
-1.23881116675
-1.28781148145
-1.33222020357
-1.37238017454
-1.408608816
-1.44114265688
-1.47019556334
-1.49599669121
-1.51882066062
-1.53888949272
-1.55633523654
-1.57122466183
-1.58357671758
-1.59339013837
-1.60054714681
-1.60486148252
-1.60624322181
-1.6048688316
-1.60143251496
-1.59624487425
-1.58955809832
-1.58166718968
-1.57291566162
-1.56367024344
-1.55419024464
-1.54454081727
-1.53465810755
-1.52445621746
-1.51389659781
-1.50297287828
-1.49167869315
-1.47999641676
-1.46790935327
-1.45540097972
-1.44247086255
-1.4291275161
-1.41539109781
-1.40127833108
-1.3868376896
-1.37212264174
-1.35718173561
-1.34204042189
-1.32674075186
-1.31128969671
-1.29571734504
-1.28000231518
-1.26414454973
-1.24808907241
-1.23166737031
-1.21461330057
-1.19646327262
-1.17652481529
-1.15492874391
-1.13198397656
-1.10790526321
-1.08523175367
-1.06298638787
-1.04438615161
-1.03208708974
-1.01359108462
-0.994296228344
-0.98829714921
-0.969156519497
-0.100507022344
0.0253173500116
0.121092970331
0.165173577352
0.19782336721
0.220507482012
0.235572542536
0.249110150688
0.265685341768
0.286722892147
0.311903615536
0.340377931646
0.371396370653
0.404458716073
0.439243306021
0.475585169944
0.513354025357
0.552477675552
0.5928654493
0.634425266964
0.677057982596
0.720686468558
0.765204637543
0.810542487216
0.856650024786
0.903500261485
0.951081226161
0.999431995648
1.04860447007
1.09867605552
1.14972322465
1.20183978141
1.255094046
1.30951262828
1.36512308202
1.42189362136
1.47974534825
1.53856252603
1.59819053008
1.65841487969
1.71897420736
1.77955870063
1.83980483477
1.89930657753
1.95761855064
2.01426875826
2.06878079246
2.12066007084
2.16945796212
2.21477269306
2.25624445154
2.29359209492
2.32663972963
2.35525954997
2.37940576795
2.39909005589
2.41436765143
2.42528415472
2.43188424661
2.43426823736
2.43253358188
2.42645916847
2.41659146874
2.40658043013
2.39864908978
2.39377059593
2.39248198626
2.39483771101
2.40051038542
2.40883213368
2.41890263665
2.4297173542
2.44025654549
2.44960265004
2.45696326262
2.46169045698
2.46323883726
2.46112337456
2.45479343325
2.44357436998
2.42656218773
2.40259436234
2.37025618387
2.32793722385
2.27392461802
2.20673890024
2.12529596296
2.02969393405
1.92068074829
1.80023282144
1.66916132828
1.52597949764
1.36975800753
1.20252375644
1.03041343485
0.861083988803
0.702481723215
0.552934986921
0.403303438042
0.252113254412
0.123835762253
0.0435007612869
-0.00688982538954
-0.0960512679061
-0.178329077299
-0.23101867578
-0.275782812337
-0.375474213885
-0.522555589948
-0.684780690537
-0.833888172726
-0.956731720521
-1.05188023127
-1.12823492638
-1.19080087687
-1.24306500268
-1.28739098178
-1.32550280673
-1.35872018968
-1.38807586864
-1.41434640345
-1.43804306442
-1.45943844413
-1.47866441185
-1.49582587582
-1.51104848332
-1.52448689295
-1.53628185784
-1.54655371059
-1.55533892386
-1.56259052564
-1.56835347491
-1.57283852367
-1.57629629518
-1.57884265304
-1.58028527399
-1.58070344574
-1.58024741136
-1.57910806686
-1.57749537778
-1.57562871613
-1.57358603498
-1.57128798367
-1.56858348864
-1.56533911813
-1.56147299693
-1.5569538292
-1.55179177757
-1.54601446044
-1.53965817331
-1.53274696878
-1.52530314743
-1.51734903383
-1.50890324112
-1.49992907569
-1.49039346644
-1.48028242439
-1.46962561955
-1.45843361951
-1.44671109215
-1.43447197284
-1.4218223222
-1.40886007836
-1.39571663073
-1.38250295636
-1.36919108289
-1.35569853854
-1.34171333408
-1.32668817684
-1.31100151286
-1.29515074856
-1.27912507529
-1.26522918289
-1.25234561483
-1.24354758699
-1.23945955459
-1.2210892372
-1.19242232741
-1.17292295262
-1.13057176416
-0.139127564607
0.235535683377
0.304434649801
0.271686527448
0.262791430705
0.265789850513
0.273214871144
0.284208964075
0.299641460339
0.319243166319
0.342215864701
0.367893210991
0.395804960538
0.425704839802
0.457429271346
0.490916824074
0.52610253729
0.562957826492
0.601423883642
0.641478456262
0.683059609414
0.726120045131
0.770608476676
0.816493337626
0.863712047687
0.912255149488
0.962097220161
1.01324686433
1.06569571743
1.11946749645
1.17456374311
1.23097310501
1.28866583006
1.34759028731
1.40764287918
1.46867400494
1.53052089738
1.59294454417
1.65568136885
1.71841543666
1.7808020959
1.84244223882
1.90291325941
1.9617491261
2.0184821096
2.07262284977
2.12370613703
2.17129599893
2.2150154937
2.25454227807
2.28968094221
2.32034915185
2.34655083118
2.3683898639
2.38605230954
2.39977952048
2.40983835778
2.41650906328
2.42009256871
2.42095512321
2.41957799845
2.41637988961
2.41045110878
2.40146753674
2.38782258557
2.36992715244
2.34839813471
2.3241834191
2.29841367602
2.27221794027
2.24655851174
2.22211938171
2.19927163532
2.17809456917
2.15842743847
2.13998982751
2.12244703458
2.10546253127
2.08867176213
2.07162791014
2.05363689949
2.03348961251
2.00933939707
1.97872606646
1.93872989118
1.88655355907
1.82029691653
1.73850568742
1.64141356518
1.53044928566
1.4059179945
1.26883612358
1.12176774794
0.971251750637
0.822933402466
0.676039049133
0.528029513853
0.370509553529
0.209684584514
0.0714887227965
-0.0221108293082
-0.100780992872
-0.199688580586
-0.284892486052
-0.322471276203
-0.366105142988
-0.449373257774
-0.581304893811
-0.734372597923
-0.883125929621
-1.01459898473
-1.12527610094
-1.21530299073
-1.28990839035
-1.35304740506
-1.40783556206
-1.45648514064
-1.50047129798
-1.54074471181
-1.57785291818
-1.61207730927
-1.64345649318
-1.6719018001
-1.69729207581
-1.71957116937
-1.73874455306
-1.75486386307
-1.76802267611
-1.77829422613
-1.78579662715
-1.79074326169
-1.79341354446
-1.79401327542
-1.79285664753
-1.78982478752
-1.78532581085
-1.77945616525
-1.77236397342
-1.76427153198
-1.75548366558
-1.74628771715
-1.73685044179
-1.72722782947
-1.71743238918
-1.70747624085
-1.6973732678
-1.6871279233
-1.67672942884
-1.66615760518
-1.655384607
-1.64437976219
-1.63311270531
-1.621563955
-1.60974473464
-1.5976943423
-1.58546337998
-1.57310282468
-1.56069108884
-1.54831465481
-1.53607862029
-1.52411094695
-1.51257902827
-1.50160777252
-1.49132771079
-1.48187248358
-1.47322164477
-1.46534431912
-1.45794919722
-1.45042451377
-1.44296535573
-1.43604590905
-1.42949875033
-1.42574341107
-1.42287144709
-1.42456333234
-1.43081462679
-1.42388993531
-1.40250044617
-1.38594599206
-1.33753858902
-0.0917436447574
0.609600325965
0.507253291811
0.353445717176
0.313808929961
0.309651955463
0.317049391845
0.326512987251
0.338325985497
0.352699431324
0.369542752453
0.388852428364
0.4105276229
0.43452722754
0.460753824277
0.489152418577
0.519619122581
0.552099929143
0.586505123996
0.622779105429
0.660847784663
0.700684632263
0.742214222531
0.785408653686
0.830218784295
0.876623516271
0.924573565672
0.974061422549
1.02504939563
1.07751711948
1.13141186771
1.18668638159
1.24325120992
1.3009741444
1.35971024478
1.41925011358
1.47934828832
1.53970455281
1.59999530379
1.65982571947
1.71878059872
1.77638281615
1.83213568239
1.88549527683
1.93591994997
1.9828571108
2.02579314023
2.06424487629
2.0978255932
2.12624651891
2.14933920351
2.16711127525
2.17970657752
2.18735709721
2.1903647807
2.18908248043
2.18380569221
2.17471272767
2.16215472499
2.14644588936
2.12768833553
2.10655016328
2.0855871808
2.06404638265
2.04209808265
2.0198566906
1.99720622515
1.97407803503
1.95050777961
1.92664024918
1.90269676871
1.87890386162
1.8554434462
1.83242690467
1.80988704012
1.78781004895
1.76619175
1.74505143701
1.72435364408
1.70395923233
1.68345407686
1.66199403402
1.63813846058
1.60969818645
1.57380012457
1.52727139133
1.46699230456
1.39080668964
1.2983618728
1.19174560263
1.07581083152
0.953866402231
0.830723425206
0.70830487658
0.584913488207
0.445691009375
0.295792737072
0.141737374037
0.00579521314183
-0.0932187717226
-0.190421366689
-0.301643620168
-0.389609106521
-0.43543355374
-0.474159186172
-0.551492905046
-0.666117825947
-0.803135136935
-0.94161227912
-1.06928416812
-1.18190784886
-1.27889525682
-1.36048131713
-1.42932902008
-1.48783681744
-1.53806592301
-1.581570196
-1.61949495583
-1.65268606566
-1.6817918298
-1.70729700878
-1.7295517711
-1.74881583577
-1.7653292088
-1.77933714278
-1.79109770487
-1.80086865981
-1.80888271257
-1.8153808295
-1.82055586697
-1.82451500352
-1.82722155972
-1.82858832744
-1.82864404409
-1.82731994107
-1.82459919073
-1.82065101453
-1.81575174716
-1.810216805
-1.80437740096
-1.79846874406
-1.7925740321
-1.78665539377
-1.78063493029
-1.77444182112
-1.76802362892
-1.7613326824
-1.75432636706
-1.74696815249
-1.73923239937
-1.73110338293
-1.72257085195
-1.71362242188
-1.70426150997
-1.69453276821
-1.68449937956
-1.67421595647
-1.66373033062
-1.65310131592
-1.64243048201
-1.63184992435
-1.62151758572
-1.61158559458
-1.60221205665
-1.59354953739
-1.58557195746
-1.57826665262
-1.57135995258
-1.56429100283
-1.5570275711
-1.55002865133
-1.54329861966
-1.53988904309
-1.53755612693
-1.54081987059
-1.55139889606
-1.55802719911
-1.55547875818
-1.55905564188
-1.52720993663
0.0635862941118
1.07450255572
0.666971293781
0.414770957661
0.375106742435
0.368823258358
0.37240630282
0.372391726268
0.374472904711
0.37956025874
0.387892651368
0.399590401988
0.414377653724
0.432093264687
0.452489744543
0.475395695264
0.500612176089
0.52801615695
0.557457544272
0.588870220399
0.622148376317
0.657238737443
0.694060177143
0.732570020337
0.772675795647
0.814333521169
0.857457895151
0.901986391268
0.947822824912
0.994884613313
1.04306164376
1.09222421384
1.14222864058
1.19290211198
1.24404343587
1.29540777626
1.34674604074
1.39774342992
1.44807675029
1.49737048488
1.54523899803
1.59124638273
1.63494998336
1.67587182791
1.71355005533
1.74752950237
1.77740535467
1.80284136397
1.82359851329
1.83952266352
1.85062507647
1.85713733835
1.85939943402
1.85779889327
1.85276706413
1.84470348517
1.8337632689
1.82001691334
1.80357117675
1.78474897664
1.7635480975
1.73941059655
1.71490208991
1.68797553259
1.65965695698
1.63028671373
1.60029923059
1.5701359386
1.54017367172
1.51069394827
1.48187570299
1.45379797085
1.42649466101
1.40001986629
1.37451271208
1.35027671654
1.3278098954
1.30767763173
1.29041596543
1.27607154737
1.26391075086
1.25220010104
1.23822394474
1.21846494265
1.18900490456
1.14618779797
1.08730853424
1.01141636058
0.920463781689
0.818660686741
0.713799552574
0.608117560851
0.500253151293
0.381988336949
0.256339428364
0.112444107767
-0.0215772561586
-0.134379700388
-0.236218406823
-0.334705338031
-0.429701133828
-0.509475389082
-0.558610975869
-0.599221458237
-0.666837263136
-0.769723459065
-0.890919168828
-1.01625336898
-1.13555058947
-1.24438153574
-1.34157347176
-1.42699741477
-1.50068254406
-1.56392201765
-1.61817694264
-1.6649366442
-1.70550381391
-1.74101825354
-1.77239954151
-1.80039040302
-1.82549903125
-1.84804605145
-1.86819893215
-1.88605349544
-1.90166683765
-1.91509281873
-1.92637065497
-1.93554472475
-1.94266516018
-1.94780099051
-1.95102059992
-1.95238487575
-1.95206697849
-1.95025157355
-1.94709326727
-1.94278474254
-1.93748614907
-1.93139447788
-1.92477378537
-1.91788241027
-1.9108912497
-1.90384765164
-1.89671027329
-1.88940959167
-1.88188965263
-1.87411812008
-1.86607841919
-1.85776629798
-1.84918246135
-1.84033481031
-1.83123596089
-1.82190845738
-1.8123815775
-1.80269797604
-1.79291613709
-1.78310408989
-1.77332691176
-1.76364498845
-1.75412169702
-1.74484516614
-1.73591181207
-1.72743836542
-1.71955845637
-1.71240073029
-1.70607510206