/*--------------------------------*- C++ -*----------------------------------*\
| =========                 |                                                 |
| \\      /  F ield         | OpenFOAM: The Open Source CFD Toolbox           |
|  \\    /   O peration     | Version:  v1806                                 |
|   \\  /    A nd           | Web:      www.OpenFOAM.com                      |
|    \\/     M anipulation  |                                                 |
\*---------------------------------------------------------------------------*/
FoamFile
{
    version     2.0;
    format      ascii;
    class       volVectorField;
    location    "15";
    object      U;
}
// * * * * * * * * * * * * * * * * * * * * * * * * * * * * * * * * * * * * * //

dimensions      [0 1 -1 0 0 0 0];


internalField   nonuniform List<vector> 
12225
(
(9.73889912121 0.0399029467248 0)
(9.50300565608 0.0407689980407 0)
(9.24747403913 0.0400747809747 0)
(8.99680159347 0.0403523663132 0)
(8.75933167497 0.0403370094977 0)
(8.53386632732 0.0399220809851 0)
(8.31855582178 0.0393379222505 0)
(8.11261852124 0.0387293414956 0)
(7.91564633067 0.0381490268081 0)
(7.72708780969 0.0376179594089 0)
(7.54618108121 0.0371575990856 0)
(7.37204128788 0.0367984204362 0)
(7.2037102405 0.0365816583013 0)
(7.04013103235 0.0365653938675 0)
(6.88002902387 0.0368450730578 0)
(6.72158317304 0.0376263248387 0)
(6.56211824872 0.0395887721798 0)
(6.38601604115 0.0389236918352 0)
(10.0165343657 0.0712691190324 0)
(10.0366700055 0.0697182850902 0)
(10.0242305565 0.0668034768653 0)
(9.99645250432 0.0675362003939 0)
(9.96275425541 0.0683687387198 0)
(9.92424967731 0.0686983581428 0)
(9.88091942547 0.0688982181582 0)
(9.83337935041 0.0691987616201 0)
(9.78240399343 0.0696447064156 0)
(9.72851841719 0.0702356799017 0)
(9.67195350654 0.0709971201158 0)
(9.61272558402 0.071993877203 0)
(9.55068173352 0.0733302839716 0)
(9.48547534644 0.0751646368655 0)
(9.41646461585 0.0777627150624 0)
(9.34247056793 0.0816540952578 0)
(9.26237996834 0.0881978857044 0)
(9.16560280415 0.102038998887 0)
(10.0212441266 0.0580351428883 0)
(10.0534489187 0.0580077815046 0)
(10.0676083858 0.056111947128 0)
(10.0719047944 0.0587066074602 0)
(10.0736129706 0.0615592529632 0)
(10.0733392274 0.063719008808 0)
(10.0703951842 0.0656430053216 0)
(10.0647086782 0.0676492627698 0)
(10.0565073082 0.0698036762511 0)
(10.0459215778 0.072113530153 0)
(10.0329086167 0.0746313257299 0)
(10.0173098259 0.0774739326396 0)
(9.99889206601 0.080821867667 0)
(9.97733794849 0.0849405419231 0)
(9.95220521226 0.0902541781854 0)
(9.92287764275 0.0975185504497 0)
(9.88927270665 0.108213905617 0)
(9.84706002387 0.123527482865 0)
(10.0159915793 0.0475746414747 0)
(10.0432942083 0.054979070124 0)
(10.0592990812 0.0564789356842 0)
(10.0668013824 0.0603916549611 0)
(10.0720972786 0.0640809204517 0)
(10.076348468 0.0668117536211 0)
(10.0790203702 0.0691566211032 0)
(10.0799392139 0.0715435826244 0)
(10.0792287403 0.0741015785279 0)
(10.0769641104 0.0768742698787 0)
(10.0730778474 0.0799473876643 0)
(10.0674072103 0.0834763126836 0)
(10.059744429 0.0876869935507 0)
(10.0498530929 0.0928975540394 0)
(10.0374782143 0.0995845741901 0)
(10.0223937898 0.10850079 0)
(10.0049170417 0.120844260166 0)
(9.98354943035 0.137274671682 0)
(10.0116556302 0.0394805940858 0)
(10.0337827794 0.0508896544631 0)
(10.049024727 0.0536939756146 0)
(10.0568617032 0.0573032307231 0)
(10.0622836085 0.0608976462861 0)
(10.066770124 0.0638148340693 0)
(10.0699691982 0.0664591489242 0)
(10.0716677128 0.0692161903367 0)
(10.0719461638 0.0722247462928 0)
(10.0708882309 0.075542625856 0)
(10.0684645216 0.0792687285824 0)
(10.0645617925 0.0835737862698 0)
(10.0590354648 0.0887020628826 0)
(10.0517430957 0.0949882689363 0)
(10.0425797184 0.10290470982 0)
(10.0315513081 0.11312463616 0)
(10.0190958816 0.126565540598 0)
(10.0048681004 0.143781444423 0)
(10.0084803252 0.0330195124509 0)
(10.0262261815 0.0465424102635 0)
(10.0402407959 0.0510198418509 0)
(10.0481666081 0.0551836332445 0)
(10.0535551636 0.059411643336 0)
(10.0579480633 0.0630849388316 0)
(10.0611685898 0.0664198187102 0)
(10.062996211 0.0697767164719 0)
(10.0634743741 0.0733495415038 0)
(10.0626898667 0.0772487457504 0)
(10.060645602 0.0816064314514 0)
(10.0572725384 0.0866136347413 0)
(10.0524809464 0.0925272229777 0)
(10.0462039608 0.0996825330739 0)
(10.0384432737 0.108520916775 0)
(10.0293403893 0.119612730418 0)
(10.0193761608 0.133638398488 0)
(10.0086804859 0.151039810079 0)
(10.0061555987 0.0278800594296 0)
(10.0202983761 0.0422976652433 0)
(10.0328729117 0.0482835778934 0)
(10.0406946436 0.0529836356328 0)
(10.0460150827 0.0575555070629 0)
(10.0502712743 0.061611050774 0)
(10.0534497596 0.065299109051 0)
(10.0553538564 0.0689828863457 0)
(10.0559948713 0.0729120682616 0)
(10.0554520091 0.0772404529025 0)
(10.0537499239 0.0821175507601 0)
(10.0508567341 0.0877357782303 0)
(10.0467306329 0.0943442183321 0)
(10.0413670212 0.102256734516 0)
(10.034845133 0.111861881289 0)
(10.0273856544 0.123618325784 0)
(10.0194713254 0.138008602207 0)
(10.0113726261 0.155318149112 0)
(10.0044747628 0.0237863868751 0)
(10.015704486 0.0382910349457 0)
(10.0267698047 0.0454704296698 0)
(10.034322046 0.0507341202895 0)
(10.0395665544 0.0556580012091 0)
(10.0437206539 0.0601433400352 0)
(10.0468885834 0.0643115660858 0)
(10.0489109188 0.0684918798299 0)
(10.0497724352 0.0729463404334 0)
(10.0495390722 0.0778462594313 0)
(10.0482517029 0.0833457396766 0)
(10.0459131394 0.0896311347432 0)
(10.0425264493 0.0969367869459 0)
(10.038139748 0.105546795245 0)
(10.0328878467 0.115790457825 0)
(10.0270336383 0.12802122074 0)
(10.0210365657 0.142564062413 0)
(10.0152236271 0.15956407463 0)
(10.0032642457 0.0205101104416 0)
(10.0121746808 0.0346054591004 0)
(10.0217710355 0.0426345601094 0)
(10.0289241113 0.0484476987041 0)
(10.0340710603 0.0537163129838 0)
(10.0381497878 0.0585908700397 0)
(10.0413276506 0.0631936823984 0)
(10.0434885921 0.0678123743586 0)
(10.0446029357 0.0727086677322 0)
(10.0447250941 0.0780707961232 0)
(10.0439097509 0.0840630257896 0)
(10.0421915264 0.0908692486596 0)
(10.0396131474 0.098707571882 0)
(10.0362639548 0.107827312474 0)
(10.0323136757 0.118495943157 0)
(10.0280386227 0.130971662479 0)
(10.0238531533 0.145455974311 0)
(10.0200854004 0.161987015087 0)
(10.0023953935 0.0178670580524 0)
(10.0094852712 0.0312708700794 0)
(10.0177264354 0.0398194444728 0)
(10.0243952603 0.0461147407998 0)
(10.0294175704 0.0517095950277 0)
(10.0334456783 0.0569350264569 0)
(10.0366617547 0.0619406939602 0)
(10.0389914009 0.0669816726534 0)
(10.040401686 0.072311759168 0)
(10.0409380359 0.0781286221037 0)
(10.0406647174 0.0846008547823 0)
(10.0396415455 0.0919026162258 0)
(10.0379420343 0.100226588503 0)
(10.0356835898 0.109779070907 0)
(10.0330525467 0.120763895235 0)
(10.0303185013 0.133355447259 0)
(10.0278416338 0.147661400451 0)
(10.0259575287 0.163648715324 0)
(10.0017712755 0.0157146299239 0)
(10.0074501305 0.0282956867102 0)
(10.0144934397 0.0370814900046 0)
(10.0206413255 0.0437525062051 0)
(10.0255176181 0.0496353967873 0)
(10.0295191959 0.055165609527 0)
(10.0328064661 0.0605280991405 0)
(10.035337921 0.0659525164623 0)
(10.0370847427 0.0716760331393 0)
(10.0380859788 0.077894660752 0)
(10.0384112773 0.0847734276158 0)
(10.0381383301 0.0924712639369 0)
(10.0373622308 0.101151770246 0)
(10.0362166749 0.110978052675 0)
(10.034890557 0.122097063031 0)
(10.0336336892 0.134616451225 0)
(10.0327472634 0.148578109261 0)
(10.032567194 0.163908498413 0)
(10.0013575691 0.0140484606765 0)
(10.0060470818 0.025827935351 0)
(10.0121502529 0.0346404450852 0)
(10.0178236264 0.0415575351849 0)
(10.0225568951 0.0476643496373 0)
(10.026557197 0.053433690984 0)
(10.0299438595 0.0590793014873 0)
(10.0326944341 0.0648133026963 0)
(10.034787112 0.0708539007891 0)
(10.0362572939 0.0773886691512 0)
(10.037176225 0.0845745034407 0)
(10.0376311283 0.092553898585 0)
(10.0377282797 0.101463168266 0)
(10.0376065201 0.11142788811 0)
(10.037447241 0.122549357373 0)
(10.0374753738 0.134886481748 0)
(10.0379416459 0.148438024473 0)
(10.0391910298 0.163108544173 0)
(10.0010507935 0.0126568716932 0)
(10.004968003 0.023625048047 0)
(10.0102769753 0.0322932004291 0)
(10.015504995 0.0393387481374 0)
(10.0200946005 0.0456118823023 0)
(10.0241081604 0.0515707660118 0)
(10.0276172597 0.0574456873831 0)
(10.0306093883 0.063435766375 0)
(10.0330705183 0.0697389017615 0)
(10.0350342185 0.0765285046343 0)
(10.0365713316 0.083948734987 0)
(10.0377736349 0.0921237030845 0)
(10.0387523271 0.101163160962 0)
(10.0396450256 0.111158707294 0)
(10.0406202879 0.122173305465 0)
(10.0418754866 0.134228020883 0)
(10.0436118539 0.147291021233 0)
(10.0461865909 0.161252339372 0)
(10.0007985959 0.0112860379162 0)
(10.0040600402 0.0213464310395 0)
(10.0086508608 0.0297107577409 0)
(10.0134450306 0.0367752166955 0)
(10.0178981578 0.0431593086944 0)
(10.0219622049 0.0492695560695 0)
(10.0256561033 0.0553377866649 0)
(10.0289683006 0.0615486699035 0)
(10.0318909769 0.0680761878208 0)
(10.0344557174 0.0750730258417 0)
(10.0367297648 0.0826644006941 0)
(10.0388034092 0.0909518747726 0)
(10.040785227 0.100016429074 0)
(10.0428034568 0.109915903471 0)
(10.0450060434 0.120678110337 0)
(10.0475569857 0.132292712041 0)
(10.0506066162 0.14470628964 0)
(10.0545297738 0.157806166663 0)
(10.000604211 0.00993350621052 0)
(10.0033503062 0.0190009094009 0)
(10.0073453963 0.0268848536443 0)
(10.0117614645 0.0338063810065 0)
(10.0161112613 0.0401884755215 0)
(10.0202781567 0.0463618327881 0)
(10.0242325861 0.0525402127753 0)
(10.0279558566 0.0588881701305 0)
(10.0314426282 0.0655519920801 0)
(10.0347209767 0.0726575134596 0)
(10.0378508251 0.0803051228338 0)
(10.0409142088 0.0885701971133 0)
(10.0440087913 0.0975043863366 0)
(10.0472453667 0.107134455173 0)
(10.0507448215 0.117458730839 0)
(10.05463442 0.128443776596 0)
(10.059014509 0.140023422157 0)
(10.0642823917 0.152088750587 0)
(10.0004693609 0.00856882468503 0)
(10.0028560513 0.0165446998287 0)
(10.0064238022 0.0237542910885 0)
(10.0105764452 0.0303279585707 0)
(10.0149026992 0.0365388905207 0)
(10.0192552088 0.0426319768672 0)
(10.0235672296 0.0487839388172 0)
(10.0278078038 0.0551304972319 0)
(10.0319686745 0.0617859490105 0)
(10.0360712757 0.0688445173045 0)
(10.0401637074 0.0763773537542 0)
(10.044312985 0.0844316598298 0)
(10.048598168 0.0930313353735 0)
(10.0531057914 0.102176886365 0)
(10.0579255281 0.111844793988 0)
(10.0631472721 0.121987236458 0)
(10.068824944 0.132533838229 0)
(10.075382358 0.143385058863 0)
(10.0003940437 0.00712241676974 0)
(10.0025873803 0.0138623234951 0)
(10.0059366376 0.0201696666638 0)
(10.0100022418 0.0261389233056 0)
(10.0144414117 0.0319381415662 0)
(10.0191011343 0.037729152027 0)
(10.0238913463 0.0436386893287 0)
(10.028767452 0.0497650102795 0)
(10.0337129751 0.0561865391649 0)
(10.0387381293 0.0629633687506 0)
(10.0438746535 0.0701357914086 0)
(10.0491689825 0.0777237692016 0)
(10.0546758268 0.085727413467 0)
(10.0604533408 0.0941277969525 0)
(10.0665586789 0.102888018061 0)
(10.0730466151 0.111954590582 0)
(10.07993054 0.121260332543 0)
(10.0876622661 0.130719880042 0)
(10.0003775105 0.00546860881539 0)
(10.0025533199 0.0107346991844 0)
(10.0059292133 0.0158503388222 0)
(10.0101430356 0.0209004663232 0)
(10.0148901351 0.0259785545666 0)
(10.0200197474 0.0311708832693 0)
(10.0254294847 0.0365480552547 0)
(10.0310625302 0.0421646769706 0)
(10.0368904234 0.0480605514415 0)
(10.0429083239 0.054260986189 0)
(10.0491285626 0.0607764549865 0)
(10.055574343 0.0676027085477 0)
(10.0622741881 0.0747213162113 0)
(10.0692577719 0.0821008381149 0)
(10.0765523113 0.0896982443042 0)
(10.0841827799 0.0974609259927 0)
(10.0921305315 0.105329175707 0)
(10.1008755498 0.113233249478 0)
(10.0004351816 0.00336583870425 0)
(10.0028094096 0.00672261821389 0)
(10.0065232441 0.0102210880321 0)
(10.0111980727 0.0139371956255 0)
(10.0165184893 0.0178910158341 0)
(10.0223306549 0.0220915219901 0)
(10.0285274959 0.02654994971 0)
(10.035042996 0.0312751501546 0)
(10.0418353044 0.0362682393394 0)
(10.0488830419 0.0415218306049 0)
(10.0561792405 0.0470203758261 0)
(10.063725215 0.0527407658536 0)
(10.0715255713 0.0586522635884 0)
(10.0795849057 0.0647173715162 0)
(10.087905327 0.0708926970309 0)
(10.0964879833 0.0771308122094 0)
(10.105289493 0.0833818591645 0)
(10.1148137364 0.0895918224641 0)
(10.0005794038 0.00108950559597 0)
(10.0033752541 0.00239022973169 0)
(10.0077285309 0.00416554163361 0)
(10.0131166163 0.00646102629182 0)
(10.0191587199 0.00919903266197 0)
(10.025701341 0.0123058181476 0)
(10.0326503758 0.0157400802068 0)
(10.0399404429 0.019473126885 0)
(10.0475216894 0.023475469242 0)
(10.0553629069 0.027715402387 0)
(10.0634470718 0.0321609163096 0)
(10.0717639335 0.0367790056108 0)
(10.0803047765 0.0415348821726 0)
(10.0890599707 0.04639102936 0)
(10.0980179386 0.0513082010947 0)
(10.1071677579 0.0562461988094 0)
(10.1164549162 0.0611658107071 0)
(10.1263895195 0.0660270389142 0)
(10.0007680498 -0.00112316433757 0)
(10.0041186386 -0.00173842548674 0)
(10.009258129 -0.00144876433322 0)
(10.0154250523 -0.000309526913008 0)
(10.0221569289 0.00144904545596 0)
(10.0293301422 0.00366815228135 0)
(10.0368861002 0.00626871425058 0)
(10.0447685062 0.00919468898419 0)
(10.0529250272 0.0123918768775 0)
(10.0613232782 0.0158102858023 0)
(10.0699458343 0.0194074002566 0)
(10.0787799495 0.0231455112284 0)
(10.087811372 0.0269885796406 0)
(10.0970237458 0.0309001906204 0)
(10.1063991234 0.0348440464635 0)
(10.1159220891 0.0387843872407 0)
(10.1255348587 0.042687240602 0)
(10.1357646679 0.046518784556 0)
(10.0010585015 -0.00353816892283 0)
(10.0052228923 -0.00607952042258 0)
(10.0113965247 -0.00708333969233 0)
(10.0184479064 -0.0068713535411 0)
(10.0258628764 -0.00591178135215 0)
(10.0336146386 -0.0044370895645 0)
(10.0417020637 -0.00253856117222 0)
(10.0500743743 -0.000288762366255 0)
(10.0586769375 0.00223833404942 0)
(10.0674821243 0.00498181985355 0)
(10.076479589 0.0078942063869 0)
(10.0856586227 0.0109372469086 0)
(10.0950024406 0.0140747678661 0)
(10.1044903914 0.0172707851952 0)
(10.1141002676 0.0204894057848 0)
(10.1238126352 0.0236970142188 0)
(10.1335655601 0.0268627307456 0)
(10.1438807078 0.0299589377426 0)
(10.0015175603 -0.00630520605337 0)
(10.0068680478 -0.0107641100102 0)
(10.0143549724 -0.0127724440957 0)
(10.0223420414 -0.0132211909918 0)
(10.0303822711 -0.0128855302042 0)
(10.0386458433 -0.0120208068169 0)
(10.0472011575 -0.0107116431201 0)
(10.0559947879 -0.00905594583944 0)
(10.064973601 -0.00715104608396 0)
(10.0741233139 -0.00506402320911 0)
(10.0834417582 -0.00283395017227 0)
(10.0929187796 -0.000490158842506 0)
(10.1025337131 0.00193847640699 0)
(10.1122612148 0.00442155348336 0)
(10.1220769395 0.00692744334473 0)
(10.1319627571 0.00942417965159 0)
(10.141860652 0.011882127484 0)
(10.1523147323 0.0142722886069 0)
(10.0022520097 -0.00962363842361 0)
(10.0093232797 -0.0158718897418 0)
(10.0184078157 -0.0184416329824 0)
(10.0272948468 -0.0192592716092 0)
(10.0358522551 -0.0193715135039 0)
(10.0445427773 -0.0189378797054 0)
(10.0534742168 -0.0180083071708 0)
(10.0625700094 -0.0167113056881 0)
(10.0717878613 -0.0151703871614 0)
(10.0811407956 -0.0134609900941 0)
(10.0906453391 -0.0116248973325 0)
(10.1002961068 -0.00969229723274 0)
(10.1100696121 -0.00769139765263 0)
(10.1199358906 -0.00565038803217 0)
(10.1298644559 -0.00359609844697 0)
(10.1398288303 -0.00155498280958 0)
(10.149762554 0.000444421427845 0)
(10.1601876164 0.0023720800487 0)
(10.0034616008 -0.0137761224423 0)
(10.0129825983 -0.0214269393513 0)
(10.0238781436 -0.0239830119146 0)
(10.0335208838 -0.0249643462407 0)
(10.0424932531 -0.0255032952678 0)
(10.0515992914 -0.0255568036761 0)
(10.0609159271 -0.0251426537861 0)
(10.070319566 -0.0244029495506 0)
(10.0797819936 -0.0234474530364 0)
(10.0893436306 -0.0223273052155 0)
(10.0990346127 -0.0210695226028 0)
(10.1088518915 -0.0197001576091 0)
(10.1187712459 -0.0182477751408 0)
(10.128762262 -0.0167398343465 0)
(10.1387941134 -0.0152010260226 0)
(10.1488395183 -0.013655759121 0)
(10.1588306996 -0.0121346456718 0)
(10.1693156741 -0.0106822380082 0)
(10.0053609063 -0.0191293945184 0)
(10.0182539443 -0.0273143444707 0)
(10.0309893854 -0.0291683843483 0)
(10.0410693366 -0.0299546402459 0)
(10.0502446922 -0.0304263158164 0)
(10.0596098 -0.0303535720329 0)
(10.0691516401 -0.0298593926313 0)
(10.0787196924 -0.0291556960422 0)
(10.0883198346 -0.0283401825413 0)
(10.0980162717 -0.0274282773077 0)
(10.107840301 -0.0264210265431 0)
(10.1177819677 -0.0253315580352 0)
(10.1278125955 -0.0241813295516 0)
(10.1379009441 -0.0229910707348 0)
(10.1480149099 -0.0217762185117 0)
(10.1581182961 -0.0205499060352 0)
(10.1681191227 -0.0193359836676 0)
(10.1784949603 -0.0181911190834 0)
(10.0084827295 -0.0261639214108 0)
(10.0258583679 -0.0333558949696 0)
(10.0402868631 -0.0345900146097 0)
(10.0506478947 -0.0361206311265 0)
(10.0601039877 -0.0374020873125 0)
(10.0697767579 -0.03789771201 0)
(10.0794967745 -0.0378606460487 0)
(10.0891353144 -0.0375883322122 0)
(10.0987672933 -0.0371898286139 0)
(10.1084887201 -0.0366725458091 0)
(10.1183305539 -0.036033810333 0)
(10.1282751355 -0.0352881402293 0)
(10.1382909733 -0.0344600246324 0)
(10.1483498283 -0.0335710364292 0)
(10.158424609 -0.0326319883772 0)
(10.1684781952 -0.0316425935751 0)
(10.1783999144 -0.0306069448504 0)
(10.1886198269 -0.029582009526 0)
(10.0128297191 -0.0353799643405 0)
(10.0354373105 -0.037649121819 0)
(10.050297515 -0.0357771264958 0)
(10.0599891179 -0.0363361197929 0)
(10.0690942487 -0.0372477371569 0)
(10.0783772332 -0.0376246734968 0)
(10.0874337406 -0.0376709801029 0)
(10.0961723769 -0.0376268586195 0)
(10.10474817 -0.0375480178127 0)
(10.1132961396 -0.0374070797078 0)
(10.1218579887 -0.0371789861232 0)
(10.1304217339 -0.0368616188405 0)
(10.1389672193 -0.0364666144079 0)
(10.1474847243 -0.0360044008083 0)
(10.1559704613 -0.0354723630496 0)
(10.1644075846 -0.0348424457462 0)
(10.1726766701 -0.0340516500614 0)
(10.1809492498 -0.0329954817501 0)
(10.016269723 -0.0493324498553 0)
(10.0397854237 -0.0509457032712 0)
(10.0458903437 -0.048680465451 0)
(10.0441246304 -0.0486726286207 0)
(10.040813279 -0.0488573494703 0)
(10.0366068137 -0.048604257038 0)
(10.0311793651 -0.0481294002996 0)
(10.0247075623 -0.047627131919 0)
(10.0176008447 -0.0471417021428 0)
(10.0101833478 -0.0466543869716 0)
(10.0026373047 -0.0461454999599 0)
(9.99506413949 -0.045609911453 0)
(9.98754127962 -0.045051161384 0)
(9.98014724121 -0.0444714225666 0)
(9.97296564723 -0.04386148886 0)
(9.96608436147 -0.0431803353199 0)
(9.95955026675 -0.0423134885478 0)
(9.95329717131 -0.0405784398925 0)
(9.85272737937 -0.0291875431072 0)
(9.72360756297 -0.0315909783745 0)
(9.57935971923 -0.031603444444 0)
(9.43628968561 -0.0321530750975 0)
(9.30107829455 -0.0324847285308 0)
(9.17335754585 -0.0324504974318 0)
(9.0520093515 -0.0322029488062 0)
(8.93665375411 -0.0318610943783 0)
(8.82723039882 -0.0314719214621 0)
(8.7236168932 -0.0310488486451 0)
(8.62556579396 -0.0305982606172 0)
(8.53277543475 -0.0301276923596 0)
(8.44495487522 -0.0296451256007 0)
(8.36184991272 -0.0291561046318 0)
(8.28324689962 -0.0286602379217 0)
(8.20897513967 -0.0281399819536 0)
(8.1391397434 -0.0275289073991 0)
(8.07206573863 -0.0261788594459 0)
(0.02907737168 -0.111810113046 2.01397516198e-19)
(0.0613940318023 -0.11108213035 0)
(0.0905791505123 -0.111078953467 0)
(0.0848990050388 -0.0743910477152 0)
(0.0486624190498 0.0176764566166 0)
(-0.0771188769265 0.12509503303 -1.41088563654e-19)
(-0.18864443411 0.142415538433 0)
(-0.309768080541 0.149651731644 0)
(-0.438437170388 0.155452899131 4.73859744659e-20)
(-0.573657407794 0.160150521547 0)
(-0.714549679828 0.163826838027 -3.31241486221e-20)
(-0.860323121919 0.166607999921 0)
(-1.01027023485 0.168621321873 -2.62911538271e-20)
(-1.16376473511 0.169981306148 -2.4203844636e-20)
(-1.32025542154 0.170787615216 0)
(-1.47926009823 0.171126324111 2.15222954794e-20)
(-1.64035940482 0.171071541678 2.06833829874e-20)
(-1.80319061218 0.170687074799 2.00759856566e-20)
(-1.96744220686 0.170027581945 0)
(-2.13284777538 0.169139779459 0)
(-2.29918075204 0.168063069149 0)
(-2.46624865118 0.16683041222 0)
(-2.63388804323 0.165468774631 0)
(-2.8019590625 0.16399984917 0)
(-2.97034064207 0.162440322944 -1.93022428351e-20)
(-3.13892557232 0.160802590351 -1.94613804586e-20)
(-3.30761586061 0.159094961404 0)
(-3.47631848166 0.157322226933 1.98836091513e-20)
(-3.64494125912 0.155485842726 2.01362673508e-20)
(-3.81338912955 0.153584421799 2.04110850168e-20)
(-3.98156036462 0.151613852111 0)
(-4.14934336981 0.149567684587 0)
(-4.31661333492 0.147437228398 -2.13371930121e-20)
(-4.48322935602 0.145211888809 0)
(-4.64903140872 0.142879263681 0)
(-4.81383787225 0.14042551102 -2.23645624411e-20)
(-4.97744300813 0.137835565968 0)
(-5.13961516549 0.135093604929 0)
(-5.30009514847 0.132183410354 0)
(-5.4585953809 0.129088991356 0)
(-5.61479943185 0.125795175827 0)
(-5.76836279501 0.122288503445 4.90262177506e-20)
(-5.91891483646 0.118558096253 0)
(-6.06606257348 0.114596617487 0)
(-6.20939571025 0.110400911458 5.10700669197e-20)
(-6.34849261816 0.105972601506 5.1710438688e-20)
(-6.48292673115 0.10131859737 0)
(-6.61227360563 0.0964516523887 0)
(-6.73611881678 0.0913904372838 5.34547749012e-20)
(-6.85406648488 0.0861592503726 0)
(-6.96574817481 0.0807871729587 -5.44329074709e-20)
(-7.07083177105 0.0753067277718 0)
(-7.16902963513 0.0697517709356 5.52310938712e-20)
(-7.26010423392 0.0641557385312 0)
(-7.34386966255 0.0585503086511 5.58263424486e-20)
(-7.42018835985 0.0529648861744 5.60418803042e-20)
(-7.48896417333 0.0474262209415 0)
(-7.55013429456 0.0419586597655 0)
(-7.60366547085 0.0365840912491 0)
(-7.64955663704 0.0313213417683 5.63102517132e-20)
(-7.68784680321 0.0261837573113 0)
(-7.71862018466 0.0211749634936 0)
(-7.74200054856 0.0162809836141 0)
(-7.75812143306 0.0114754636936 0)
(-7.76709759895 0.00675823797833 0)
(-7.76905766815 0.00220618946313 0)
(-7.76430629019 -0.00209439572953 0)
(-7.75318120646 -0.006116697576 -5.36936272769e-20)
(-7.73605148418 -0.00986256284605 0)
(-7.71327624713 -0.0133509072192 -5.23965116047e-20)
(-7.68518309913 -0.0166145337446 -5.16719604888e-20)
(-7.65204871824 -0.0196981364627 0)
(-7.61408015917 -0.0226592763404 5.0068740486e-20)
(-7.57139496225 -0.0255679147633 0)
(-7.52399884016 -0.0285081001312 -4.82387160249e-20)
(-7.4717572951 -0.0315774619568 0)
(-7.41435974554 -0.0348892365981 4.61245962372e-20)
(-7.35127647309 -0.0385701922646 -4.49291542212e-20)
(-7.28171142433 -0.0427595886935 0)
(-7.20455833525 -0.0476029539482 0)
(-7.11837485098 -0.0532447970892 0)
(-7.02138948701 -0.0598109073955 0)
(-6.9115516872 -0.0673906645824 -3.65655440413e-20)
(-6.78663189067 -0.0760150965238 3.41514746336e-20)
(-6.64438290551 -0.0856403703703 -6.27656164759e-20)
(-6.48275422917 -0.0961275730924 -5.64243392091e-20)
(-6.30011615604 -0.107238433655 -4.9191406486e-20)
(-6.09545361721 -0.118643405818 0)
(-5.86851029583 -0.12995068607 0)
(-5.6198903916 -0.140735773881 0)
(-5.35105910552 -0.150578555889 -9.89209613868e-21)
(-5.06426195247 -0.159105858392 0)
(-4.76237162659 -0.166007629182 0)
(-4.44869369594 -0.171059098487 3.242170533e-20)
(-4.12676100102 -0.174138020879 0)
(-3.80011441436 -0.175229681661 -6.84889765484e-20)
(-3.47214238493 -0.174397179173 0)
(-3.1459284274 -0.171724171865 1.13285936423e-19)
(-2.82416315118 -0.167334182292 0)
(-2.50901292968 -0.16143511174 0)
(-2.20223659332 -0.154348649306 0)
(-1.90526469511 -0.14651608357 2.50191812557e-19)
(-1.61928033388 -0.138627700083 0)
(-1.34522751406 -0.132110156193 3.69786289793e-19)
(-1.08363312692 -0.128580035821 4.58033799164e-19)
(-0.83576082987 -0.129729592456 0)
(-0.602620977272 -0.135166595624 0)
(-0.374979577184 -0.146117339518 0)
(-0.157404552071 -0.165189901603 1.61119932876e-18)
(0.0810769687557 -0.17236863775 0)
(0.278283622359 -0.149465895812 0)
(0.439988131527 -0.124222512533 1.09855976205e-18)
(0.597379194889 -0.102971830933 8.53147449939e-19)
(0.746407748381 -0.0860809761114 0)
(0.884138249214 -0.0726345048711 -6.19026047079e-19)
(1.00968857318 -0.0617273209212 -5.53677343374e-19)
(1.12316365356 -0.0526905722504 5.05168897353e-19)
(1.22507848041 -0.0450431211093 0)
(1.31611531712 -0.0384584321773 0)
(1.39700396017 -0.0327028234562 0)
(1.46847328761 -0.0276172252239 -3.95874555789e-19)
(1.53121297932 -0.0230832790095 0)
(1.58586152113 -0.01902039101 -3.67250452033e-19)
(1.63300110686 -0.0153633364179 0)
(1.6731718433 -0.012069220978 0)
(1.70687380512 -0.00909792034515 0)
(1.73457884988 -0.00642268380077 3.3467687918e-19)
(1.75672557822 -0.00401668304746 3.2999588045e-19)
(1.77373091801 -0.00187205984448 0)
(1.78599565883 8.33930938252e-06 0)
(1.79393452958 0.00158994238204 0)
(1.79815942109 0.00284646221503 0)
(1.79951514318 0.0038262395813 0)
(1.79816665085 0.00463066416967 0)
(1.79429638446 0.00530846971979 6.35821509626e-19)
(1.78809558029 0.00588042190442 0)
(1.77976643543 0.00635824934698 0)
(1.76950427859 0.0067549222802 0)
(1.7574914968 0.00707886276169 -6.43047984591e-19)
(1.74389607384 0.00733941352884 -6.46795621247e-19)
(1.72887491701 0.00754349751454 6.51227244335e-19)
(1.71257037723 0.00769853786629 6.56309819357e-19)
(1.69511015494 0.00781033733755 0)
(1.67660717858 0.00788295909185 0)
(1.65716253183 0.00791946546586 0)
(1.63686865575 0.00792347153203 6.82665484995e-19)
(1.61580912829 0.00789807512856 0)
(1.59405978533 0.00784926219071 0)
(1.57169235439 0.00778256304801 -7.08426014087e-19)
(1.54877159979 0.00770093627942 0)
(1.52535238103 0.0076054471663 -7.28407771821e-19)
(1.5014822299 0.00749864538129 0)
(1.47720357647 0.00738374182417 -7.50693148357e-19)
(1.45255521234 0.00726174283477 0)
(1.42757231254 0.00713179710033 0)
(1.40228069004 0.00699310123488 0)
(1.37669708103 0.00685284534957 0)
(1.35084026087 0.00671845755366 0)
(1.32473022472 0.00658528006246 0)
(1.29837094008 0.00644547759441 0)
(1.27175150797 0.006305121164 0)
(1.24486982756 0.00617990088176 -8.84148308056e-19)
(1.21772725064 0.00607503369963 0)
(1.19031119695 0.00599095209181 0)
(1.16259919473 0.00592908582174 -9.44353867696e-19)
(1.13457135011 0.0058886647847 0)
(1.10621356073 0.00586108645266 0)
(1.07749768624 0.00584325224587 -1.0160304236e-18)
(1.04837902869 0.00585611058147 0)
(1.01881402052 0.00591973598046 0)
(0.988753074693 0.00603103465217 -1.10336874061e-18)
(0.958105797666 0.00618233126785 1.13709390314e-18)
(0.92671945761 0.00637730589913 -1.17372526375e-18)
(0.894407496733 0.00663728896905 0)
(0.860970338181 0.00697242200788 0)
(0.826171671609 0.0073821498632 -2.6133823779e-18)
(0.789765191905 0.0078697605438 0)
(0.750757668708 0.00854991158088 2.8470501449e-18)
(0.715980487634 0.00934766222399 2.9913584486e-18)
(0.599480243342 0.0123361552515 0)
(-0.000950344951089 -0.125046088709 -6.20703871281e-19)
(-0.0411901978806 -0.0236987486774 0)
(-0.14382527812 0.122779074626 2.19800295177e-19)
(-0.235182127349 0.198406392719 -1.39388864815e-19)
(-0.324107586523 0.258482152626 -1.01447529543e-19)
(-0.41956009869 0.308859736347 4.03040885255e-20)
(-0.525341029639 0.341572195733 6.85468272595e-20)
(-0.642023664723 0.36616322201 0)
(-0.767856842693 0.385720726958 -2.59152055568e-20)
(-0.900941952222 0.401422551473 4.7158288174e-20)
(-1.03988318306 0.413986974855 6.44383651525e-20)
(-1.18362325444 0.423929239713 -4.0146413493e-20)
(-1.3313151445 0.431649697726 5.64576629368e-20)
(-1.48225966936 0.437476537952 1.77426860699e-20)
(-1.6358708344 0.441688075062 0)
(-1.79165466004 0.444525154865 -1.66694435899e-20)
(-1.94919475579 0.446198126764 -1.63717890114e-20)
(-2.10814120818 0.44689119769 -1.61942297113e-20)
(-2.26820170933 0.446764984262 3.2840081461e-20)
(-2.42913339694 0.445958513395 0)
(-2.59073576606 0.444590463091 3.29518681088e-20)
(-2.75284355714 0.442760556792 0)
(-2.91532050526 0.440550508043 -3.35160265983e-20)
(-3.07805316906 0.438025417448 0)
(-3.24094521368 0.435234762768 5.13473082935e-20)
(-3.40391198434 0.432213865911 -1.77123990074e-20)
(-3.56687553991 0.428984947917 -3.5516806252e-20)
(-3.729760091 0.425558571034 -5.39829648839e-20)
(-3.89248770776 0.421934645787 -1.81791761246e-20)
(-4.05497452668 0.418103748283 -1.85320745692e-20)
(-4.21712706177 0.414047982288 0)
(-4.37883900778 0.409742067043 -3.89573581215e-20)
(-4.53998804633 0.405154035348 1.96607043669e-20)
(-4.70043305325 0.400246153421 0)
(-4.8600112266 0.394975554035 0)
(-5.01853559637 0.389295166585 2.08592971768e-20)
(-5.1757926468 0.383154539602 0)
(-5.33154053061 0.376501062108 0)
(-5.48550755323 0.369281151774 0)
(-5.63739128351 0.361441912379 0)
(-5.78685805099 0.352932975689 0)
(-5.93354357615 0.343708976218 4.73793012041e-20)
(-6.07705514497 0.333732233852 9.56109878971e-20)
(-6.21697594047 0.322975610955 0)
(-6.35287086005 0.311424793154 4.97515948973e-20)
(-6.48429287396 0.29908031024 -4.97306122532e-20)
(-6.61078963385 0.285959354949 0)
(-6.73191129952 0.272097527962 0)
(-6.84721972346 0.257549458958 -1.56246401659e-19)
(-6.95629827082 0.242388094396 -1.05690276643e-19)
(-7.05876222669 0.226702570695 5.30474149758e-20)
(-7.15426898817 0.210594249763 1.07976363669e-19)
(-7.24252673282 0.194171088434 5.48755230481e-20)
(-7.32329859493 0.177542612281 0)
(-7.39640215568 0.160815639056 -1.65685872712e-19)
(-7.46170398118 0.144091504717 -5.53397638256e-20)
(-7.51911187158 0.127464027747 0)
(-7.56856525167 0.11101913879 1.12461228798e-19)
(-7.61003220734 0.0948349007578 -1.12809206397e-19)
(-7.64351499238 0.0789818216108 -5.61956730581e-20)
(-7.66905422199 0.063519828495 0)
(-7.68676797858 0.048487704867 0)
(-7.69680655473 0.0338932787408 0)
(-7.69927598302 0.0197512179791 1.12658165301e-19)
(-7.69415323346 0.00618715230025 0)
(-7.68230878016 -0.00659441959911 -1.11179121524e-19)
(-7.66405905716 -0.0184963870828 0)
(-7.63981923127 -0.0295000023122 -5.4755927275e-20)
(-7.60998661477 -0.0396204065616 0)
(-7.574939458 -0.0489061347179 -5.34913858215e-20)
(-7.53502459965 -0.0574423589221 -5.27912183468e-20)
(-7.49053919791 -0.0653526199217 0)
(-7.44170962763 -0.0728025527787 -5.09187440832e-20)
(-7.388668067 -0.0799998259507 0)