/*--------------------------------*- C++ -*----------------------------------*\
| =========                 |                                                 |
| \\      /  F ield         | OpenFOAM: The Open Source CFD Toolbox           |
|  \\    /   O peration     | Version:  v1806                                 |
|   \\  /    A nd           | Web:      www.OpenFOAM.com                      |
|    \\/     M anipulation  |                                                 |
\*---------------------------------------------------------------------------*/
FoamFile
{
    version     2.0;
    format      ascii;
    class       volScalarField;
    location    "3";
    object      p;
}
// * * * * * * * * * * * * * * * * * * * * * * * * * * * * * * * * * * * * * //

dimensions      [0 2 -2 0 0 0 0];


internalField   nonuniform List<scalar> 
12225
(
-1.7346790397
-2.24070107598
-2.55037060716
-2.73981349074
-2.86302208095
-2.94765965915
-3.00890123505
-3.05516231788
-3.09082386993
-3.1178657764
-3.13680507402
-3.14727273998
-3.14829397168
-3.13839106341
-3.11547707781
-3.0765709672
-3.01671158962
-2.92772497655
-1.86771297567
-2.28109459608
-2.56948670588
-2.75067562023
-2.86978507312
-2.95236310556
-3.01260385712
-3.05840850787
-3.09389577317
-3.12091764162
-3.13993947397
-3.15058170998
-3.15188762662
-3.14242473798
-3.12020822859
-3.08253068319
-3.02609652078
-2.96018815185
-1.98780310853
-2.30909514747
-2.57153651823
-2.74584064447
-2.86351723554
-2.94672235408
-3.00833472176
-3.05566731581
-3.09260787942
-3.12095582754
-3.1412173233
-3.15310417282
-3.15579243723
-3.14804361284
-3.12821378019
-3.09434281931
-3.04488669111
-2.98715217602
-2.09555393555
-2.34485195288
-2.58070079615
-2.74816515205
-2.86483336904
-2.94889883433
-3.0118938817
-3.06061469619
-3.09879702821
-3.12825613049
-3.14959828042
-3.16267996423
-3.16686736508
-3.161187065
-3.14442433984
-3.11536213769
-3.07351478864
-3.02313935369
-2.19362733648
-2.38719755708
-2.5953066603
-2.75365024429
-2.86780367906
-2.95165676794
-3.01525116122
-3.06481657054
-3.10390612503
-3.13432944911
-3.15677867059
-3.17125099286
-3.17730930379
-3.17426060255
-3.16131649588
-3.13788074384
-3.10410198536
-3.06260297953
-2.28326048095
-2.43388900986
-2.61478955873
-2.76236205481
-2.87295283546
-2.95607367672
-3.0200811416
-3.07053053487
-3.11072777848
-3.14243671736
-3.1664144548
-3.18279219056
-3.19133357886
-3.19162942826
-3.1832909182
-3.16622905394
-3.14104653696
-3.10992370883
-2.36552730304
-2.48327737609
-2.63876413692
-2.77450804566
-2.88058483346
-2.9624135655
-3.02654600091
-3.07777332371
-3.11910128628
-3.15222028588
-3.17793959308
-3.19652319881
-3.2079368994
-3.21204836876
-3.20882702157
-3.19859033714
-3.18228237889
-3.16200762156
-2.44137170481
-2.534073459
-2.66667110386
-2.79010877255
-2.89086951376
-2.97086174958
-3.03482557274
-3.08672683177
-3.12922706894
-3.16391698052
-3.19164267094
-3.21279209895
-3.22752271002
-3.2359548948
-3.23836036727
-3.23536628744
-3.22815427986
-3.21878729626
-2.51160399697
-2.58528780671
-2.69785796676
-2.80905710582
-2.90391783692
-2.98158926428
-3.04510546589
-3.09758001752
-3.14129499332
-3.17771433333
-3.20770185424
-3.23175274542
-3.25019501794
-3.26336518566
-3.27177429609
-3.2762666032
-3.27816269162
-3.27939918831
-2.57690044176
-2.6361759041
-2.73163737147
-2.83113002309
-2.91976573823
-2.99472950096
-3.05755087579
-3.11050645908
-3.15547697017
-3.19377566776
-3.22626224265
-3.25351686254
-3.27600874928
-3.29424601436
-3.30891309254
-3.32098629448
-3.33183079005
-3.34317657538
-2.637811022
-2.68617399469
-2.76730711119
-2.85597718623
-2.93833487254
-3.01033779902
-3.07227569605
-3.1256447503
-3.17191821775
-3.2122393284
-3.24743996986
-3.27815849533
-3.30496887692
-3.32850259554
-3.34955212008
-3.3691496835
-3.38862778007
-3.40944058035
-2.69008539409
-2.73088839848
-2.80119481347
-2.88094082761
-2.95770150345
-3.0268766107
-3.08788637981
-3.1415923716
-3.18910383453
-3.23139364866
-3.2692462334
-3.30332349034
-3.33426097448
-3.36275445214
-3.38964302044
-3.41595078087
-3.44292952917
-3.47176562243
-2.73907951666
-2.7739949918
-2.83532925001
-2.9071870691
-2.97870388452
-3.04509645713
-3.10514644737
-3.15917376357
-3.20794842758
-3.25226887936
-3.29285438822
-3.33036880266
-3.36547214668
-3.39889390696
-3.43147129347
-3.46418702173
-3.4981776921
-3.53436150971
-2.79136712524
-2.82119902603
-2.87435326528
-2.93856941394
-3.0047129555
-3.06812656569
-3.12712647727
-3.18154573975
-3.23181141472
-3.27852585525
-3.32231832896
-3.36381899827
-3.40368500312
-3.44262963919
-3.48145162744
-3.52103443491
-3.56236082731
-3.60603582274
-2.84600443975
-2.87168715945
-2.91782656502
-2.97511288716
-3.03613109907
-3.09660546831
-3.15459787669
-3.20954868161
-3.26156865525
-3.31105026123
-3.35850377349
-3.40448778357
-3.44960995556
-3.49451907903
-3.53992120133
-3.586555073
-3.63520751524
-3.68616262101
-2.9014520676
-2.92398505007
-2.96458139066
-3.01614763751
-3.07278378892
-3.13074434614
-3.18802272466
-3.24379390966
-3.29789538266
-3.35051778376
-3.40201910111
-3.45285541757
-3.50352551892
-3.55457549926
-3.60655973061
-3.66004796144
-3.71560097209
-3.77320539596
-2.95515539399
-2.97557554118
-3.01236146083
-3.05991317418
-3.11348824907
-3.16985787029
-3.22707387408
-3.28415568659
-3.34073925748
-3.39682480258
-3.45261602062
-3.50842277432
-3.56461247524
-3.62157348822
-3.6796972564
-3.73935110002
-3.80089379861
-3.86403230158
-3.00269157915
-3.02210361999
-3.05709650619
-3.10287303721
-3.15535818895
-3.21166746826
-3.26992932917
-3.32908885996
-3.3886496912
-3.44846394014
-3.50859010175
-3.56919081749
-3.63048424989
-3.69269693939
-3.75605214562
-3.82073900095
-3.88694387649
-3.95417440139
-3.03600028469
-3.05580082917
-3.09163107139
-3.13869701757
-3.19293289082
-3.25146906811
-3.31243887845
-3.37476836215
-3.43791501707
-3.5016567034
-3.56595521879
-3.63085636336
-3.69644732838
-3.76281239871
-3.83002879484
-3.89814018518
-3.96719529802
-4.03656250036
-3.03837072212
-3.06039547419
-3.10042605563
-3.15251458844
-3.2117144848
-3.2747624832
-3.33975466035
-3.40571715179
-3.47223228552
-3.53915075879
-3.60646618745
-3.67420090007
-3.74239969284
-3.81107569084
-3.88023955505
-3.94985813465
-4.01992055459
-4.08973406888
-3.02039462497
-3.04583966884
-3.09212274266
-3.15121405403
-3.21673320858
-3.28494115922
-3.35400695736
-3.42323225747
-3.49244069687
-3.56167184061
-3.63100511484
-3.7005163625
-3.77023705608
-3.84017578221
-3.91029804717
-3.98055957308
-4.0509115578
-4.12067270584
-2.98650254932
-3.0173706929
-3.07288539129
-3.14142767709
-3.21467939978
-3.28858785338
-3.36172752848
-3.43390561573
-3.50535137899
-3.57635605841
-3.64714747766
-3.71786299168
-3.78855805847
-3.85922880649
-3.92982697249
-4.0002826645
-4.07053886353
-4.13990595105
-2.93934742511
-2.97856438283
-3.04698078144
-3.1273309991
-3.20920589598
-3.28882438009
-3.36565247378
-3.44027331164
-3.51342999928
-3.58571496339
-3.65751764416
-3.72904474633
-3.80037794795
-3.87150056324
-3.9423516138
-4.0128291224
-4.08286959098
-4.1517832405
-2.880511688
-2.93246719771
-3.01817680947
-3.1123137516
-3.2030297554
-3.28785072688
-3.36769462999
-3.44412310945
-3.51844562367
-3.59155835133
-3.6639961393
-3.73602964793
-3.80774799552
-3.87912605013
-3.95006271671
-4.02042247104
-4.09008619416
-4.15833983315
-2.81077321068
-2.88200234266
-2.98981564182
-3.09889552884
-3.19788698477
-3.28697578186
-3.36899159463
-3.44656706196
-3.52156754235
-3.59516292931
-3.66801260314
-3.74043066913
-3.81250992201
-3.88420365857
-3.95537494422
-4.02582632611
-4.09535574512
-4.16319325634
-2.73031177926
-2.83029624908
-2.96474917801
-3.08868995346
-3.19467003872
-3.28681097447
-3.37004753791
-3.44802879174
-3.52310391311
-3.59666416283
-3.66945967296
-3.74183374608
-3.81387912926
-3.88554028317
-3.95665614313
-4.02696588049
-4.09611307215
-4.16300384599
-2.63889935919
-2.78087362861
-2.94509742814
-3.08241221584
-3.19376191318
-3.287975434
-3.371983311
-3.450285997
-3.52558938915
-3.5994135224
-3.67253474097
-3.74528455502
-3.81773129
-3.88980948802
-3.96135691915
-4.0320961198
-4.10155917645
-4.16828834221
-2.53611846646
-2.73784724417
-2.93201640369
-3.07919510511
-3.19297421574
-3.28699048119
-3.36998358322
-3.4472060276
-3.52165572887
-3.59492777303
-3.66778008154
-3.74048859167
-3.81307161426
-3.88543290306
-3.95741982508
-4.02880576553
-4.09911487665
-4.16625373792
-2.42079622324
-2.70605701794
-2.93064886137
-3.08739743144
-3.20390659836
-3.29791259872
-3.37979766733
-3.45559685121
-3.52867125595
-3.60076159958
-3.67266254087
-3.74463944821
-3.81668853549
-3.88870353156
-3.96056976142
-4.0322282171
-4.10369164428
-4.17378669514
-2.2889232751
-2.66070185105
-2.90870966468
-3.07493880558
-3.19636223309
-3.29300754787
-3.37631499975
-3.45289398443
-3.52641823075
-3.59879427939
-3.67090075029
-3.74304499635
-3.81524727489
-3.88741901222
-3.95947765803
-4.03147442797
-4.10383905985
-4.1795255254
-2.12227115071
-2.12664558085
-2.13320717938
-2.14667488092
-2.17169480783
-2.21223791215
-2.26978510759
-2.34540988035
-2.43991513057
-2.55376086275
-2.68711904328
-2.83990194474
-3.01181822178
-3.20239900063
-3.41105245775
-3.63708414764
-3.87974432165
-4.13823972559
-4.41177181555
-4.69954021387
-5.00077111269
-5.31471337191
-5.64065960416
-5.97793640095
-6.3259191305
-6.68401765429
-7.05168580145
-7.42840379963
-7.81368425846
-8.20705153109
-8.60804307127
-9.01618493456
-9.43098959666
-9.85192523465
-10.2784069322
-10.7097592894
-11.1452022682
-11.5838049385
-12.0244623335
-12.4658350344
-12.9063264611
-13.3440219679
-13.7766592967
-14.2015448171
-14.6155226509
-15.0148952456
-15.3954326771
-15.7523243325
-16.0800621505
-16.3722330321
-16.6215406774
-16.8200731911
-16.9596020438
-17.0315652409
-17.027214101
-16.9376460265
-16.7539548592
-16.4676575476
-16.0715010494
-15.559955864
-14.9295417651
-14.1789172867
-13.3091337349
-12.3238961334
-11.2298873031
-10.0368013897
-8.7573172856
-7.40667985148
-6.00222092043
-4.5625489687
-3.10680608837
-1.65374631187
-0.221047339744
1.17540531307
2.52191572961
3.80737346793
5.02327169419
6.16368711657
7.22507701561
8.20613970503
9.10733376825
9.93057346907
10.6791154341
11.3572497992
11.9691793538
12.5191947185
13.0132145533
13.457712795
13.8560654652
14.2103601377
14.5264034687
14.8114428251
15.0680555978
15.2947846161
15.4937615906
15.6716798315
15.833224738
15.9798757127
16.1081858074
16.2166257768
16.3110138873
16.3968899706
16.4737237921
16.5397977813
16.595920634
16.6437298312
16.684399407
16.7180802485
16.7448033185
16.7660462341
16.7831818218
16.7971737469
16.8087117069
16.8183230693
16.8264111551
16.8333127269
16.8392939087
16.8445920179
16.8493961672
16.8538774858
16.8581585913
16.8623512064
16.8665423978
16.8708357524
16.8753106949
16.880047982
16.885078898
16.8904330038
16.8960980126
16.9020736224
16.9083272952
16.914845053
16.9215843332
16.9285228677
16.9356120448
16.9428231843
16.950103484
16.9574187356
16.9647159882
16.9719546941
16.9790730885
16.9860142534
16.99271901
16.9991472844
17.0052697981
17.0110687506
17.0165169708
17.0215964646
17.0262927374
17.0305784741
17.0344145359
17.0377714978
17.040626036
17.0429653219
17.0447801672
17.0460707836
17.0468427471
17.0471092089
17.0468840829
17.0461918632
17.0450673095
17.0435629996
17.0417463293
17.0396992182
17.0375513705
17.0354794245
17.0336823805
17.0324392536
17.032090156
17.0330326887
17.0357962007
17.041099882
17.0499489004
17.0637321661
17.0843420919
17.1144013401
17.1575525559
17.2188741455
17.3062508546
17.4158705514
-2.09251772794
-2.1059174268
-2.12160146855
-2.1387153061
-2.16576678614
-2.20793505262
-2.26715886449
-2.34482395277
-2.44173454421
-2.55827391248
-2.6945095166
-2.85024812056
-3.02509992998
-3.21851497917
-3.42983522455
-3.65831972919
-3.90318600938
-4.16362497079
-4.43883186124
-4.72801250484
-5.03040501492
-5.34527862932
-5.67194824718
-6.00976836264
-6.35814205502
-6.71651043668
-7.08435726255
-7.46119611549
-7.84657163263
-8.2400432534
-8.6411829839
-9.04955631587
-9.4647153976
-9.88617364507
-10.3133927737
-10.7457504219
-11.1825212073
-11.6228359391
-12.0656469661
-12.5096726449
-12.9533713927
-13.394887661
-13.832001965
-14.2620565074
-14.6818991904
-15.0878128998
-15.4756170721
-15.8406087732
-16.1773113775
-16.4790750007
-16.7383301468
-16.9470394009
-17.0968739249
-17.179189726
-17.1851593703
-17.1056552249
-16.9312531256
-16.6529729269
-16.2633298815
-15.7569544964
-15.130561649
-14.3826389988
-13.5138659257
-12.527569273
-11.4301086732
-10.2310330698
-8.94304619122
-7.58164165459
-6.16453507883
-4.71086165689
-3.24031661655
-1.77222623571
-0.32473657043
1.08584753698
2.44551299814
3.74292928434
4.96954570116
6.11940564005
7.18893558516
8.17697869539
9.08425518009
9.91252740127
10.6649168488
11.3464157414
11.9618090402
12.5143174464
13.0090789644
13.4542302237
13.8544639952
14.2101931958
14.5256888554
14.8090703507
15.0649088082
15.2908721017
15.4876146164
15.6623268717
15.8219627544
15.9671524507
16.0959188978
16.2058964493
16.3007586833
16.3871128055
16.4646800678
16.531014513
16.586814299
16.6340879426
16.6749663738
16.7095797415
16.7373961066
16.7595806507
16.7774455553
16.7919805969
16.8039250766
16.8138359427
16.8221541419
16.8292294415
16.8353523909
16.8407620776
16.8456635824
16.8502234032
16.8545740491
16.8588219087
16.8630647226
16.8673999717
16.8719187265
16.8766912868
16.8817594489
16.8871423331
16.8928388802
16.8988391903
16.9051218646
16.911663892
16.918433168
16.9253989849
16.9325221304
16.939766219
16.9470865348
16.9544423394
16.961787091
16.9690741075
16.9762448825
16.9832395105
16.9900010957
16.9964901066
17.0026800651
17.0085522305
17.0140869945
17.019258857
17.0240342266
17.0283836478
17.0322787403
17.0356959909
17.0386157684
17.0410250587
17.0429143311
17.0442818419
17.0451344049
17.045486506
17.0453515817
17.0447526179
17.043724473
17.0423192063
17.0406051071
17.0386780913
17.0366608801
17.0347153268
17.0330462522
17.0319037363
17.0315954381
17.0325083554
17.0351613653
17.0402520363
17.0487673748
17.0620779337
17.0820258671
17.1111600342
17.1529985814
17.2123781417
17.2966873578
17.3992684491
-2.07735455324
-2.09575381387
-2.12416668434
-2.16063682954
-2.20712472316
-2.26611299959
-2.33988174008
-2.43015034148
-2.53797642599
-2.66391966482
-2.80816692531
-2.97061374785
-3.15094544614
-3.34868493657
-3.56324953547
-3.79397906088
-4.04017655307
-4.30112299766
-4.57610587234
-4.86442437927
-5.16540879265
-5.47841880356
-5.80285605633
-6.13815823542
-6.48380669157
-6.83931726611
-7.20424432447
-7.57816956932
-7.96070314239
-8.35146993415
-8.75010776536
-9.15625088879
-9.56952340276
-9.9895164349
-10.4157752988
-10.8477685857
-11.2848694636
-11.7263125298
-12.1711536404
-12.6182131789
-13.0660491162
-13.5128956125
-13.9565996155
-14.394545982
-14.8235794727
-15.2399514122
-15.639523756
-16.0176604127
-16.3688750911
-16.6861189251
-16.9614635151
-17.1866354093
-17.3529781669
-17.4515789351
-17.4732456348
-17.4082038211
-17.2461900596
-16.9780194374
-16.5967871783
-16.0975262259
-15.4766733225
-14.731956715
-13.8632297142
-12.8730505447
-11.7672003102
-10.554991634
-9.24929368765
-7.86617971811
-6.42425294523
-4.94372651805
-3.44546145747
-1.94992054747
-0.476184402547
0.958737104951
2.34027532954
3.65672791185
4.89959721158
6.06311592936
7.14362916464
8.14013374902
9.05424418881
9.88797622167
10.6436934973
11.3270225872
11.9447736725
12.4992992964
12.9930924729
13.4358200653
13.8349074559
14.1891071514
14.5010780226
14.7798313229
15.0326990453
15.2605691159
15.461623763
15.6380037076
15.7964399099
15.9409549673
16.0701540691
16.1819182251
16.2794952541
16.3671443192
16.4450719742
16.512250944
16.5694190683
16.6181170197
16.6597676952
16.6947875048
16.7233369346
16.7463383636
16.7649291804
16.7800669677
16.7925144927
16.8028508896
16.8115446634
16.8189567369
16.8253940416
16.831097412
16.8362801622
16.8411030677
16.8457048154
16.8501865055
16.8546560154
16.8592061467
16.8639364337
16.8689072935
16.8741682647
16.8797293479
16.8855993692
16.8917602079
16.8982009538
16.9048904519
16.9118068361
16.9189113437
16.9261742177
16.9335514537
16.94100664
16.9484932061
16.9559694473
16.9633829721
16.9706775195
16.9777910023
16.9846698235
16.9912754233
16.9975829217
17.0035724751
17.0092240962
17.0145131688
17.0194119134
17.023894101
17.0279346704
17.0315104938
17.034601618
17.0371932649
17.0392750553
17.0408420665
17.0418908821
17.0424246588
17.0424562667
17.0420064607
17.0411076946
17.039808983
17.0381737991
17.0362880387
17.0342639394
17.0322484018
17.0304295977
17.0290422663
17.0283825549
17.0288366798
17.0308991168
17.0352216858
17.0426500257
17.0543322141
17.0718986869
17.0975979993
17.1344202127
17.18621579
17.2578938388
17.3439817598
-2.13806876548
-2.16164418936
-2.19766068436
-2.245871448
-2.30650309232
-2.38027153216
-2.46831128566
-2.57164482003
-2.69101577657
-2.82687422563
-2.97940305067
-3.14855011761
-3.33408430104
-3.53563091758
-3.75272110488
-3.98481579597
-4.23134279794
-4.49170911507
-4.7653269326
-5.05161712631
-5.35002670405
-5.66002650346
-5.98112262654
-6.31285058302
-6.65478270381
-7.00652019676
-7.3676976432
-7.73797374639
-8.11703346861
-8.50457701302
-8.90031989282
-9.30397925654
-9.71526933249
-10.1338816871
-10.5594736316
-10.9916388169
-11.4298900643
-11.8736130058
-12.3220202372
-12.774089492
-13.2285334105
-13.6837284056
-14.1376364456
-14.5877198541
-15.0308402388
-15.4632164627
-15.8807202912
-16.2787501843
-16.6517606694
-16.9921756565
-17.2914581055
-17.5408887923
-17.7312959227
-17.8531900538
-17.8967317908
-17.8512871587
-17.7055526542
-17.4505965487
-17.0810694272
-16.5924912044
-15.9803966535
-15.2413936567
-14.3739421092
-13.3792381341
-12.2620324712
-11.0311514454
-9.69966666175
-8.28456724595
-6.80589629299
-5.28557583987
-3.74630614553
-2.2103932779
-0.698461498379
0.771535704668
2.18434029998
3.5275663222
4.79273310866
5.97485561035
7.07028514754
8.07744131124
8.99929798444
9.8392628121
10.5980849578
11.2813921201
11.8990579805
12.4542303786
12.9449745882
13.3816414954
13.7759492642
14.1320625571
14.4495350569
14.7308660041
14.9816260051
15.2082542738
15.4128206417
15.5949936498
15.7575759814
15.9038480725
16.0340991911
16.1481990181
16.2481979657
16.3367271899
16.4147924996
16.482546817
16.5406866658
16.5903674753
16.6327146056
16.6684234442
16.6980098469
16.7222687657
16.7421389785
16.7584907855
16.7720510862
16.7834062212
16.7930272825
16.8012935236
16.8085159201
16.8149495775
16.8208073305
16.8262580916
16.8314398516
16.836463599
16.8414387985
16.8464684352
16.8516475534
16.8570416366
16.8626956781
16.8686260695
16.8748394632
16.8813243741
16.8880685238
16.8950464188
16.9022351718
16.9096005185
16.9171119827
16.9247289792
16.932415034
16.9401261076
16.9478190781
16.9554413739
16.9629368921
16.9702448726
16.9773164024
16.9841156976
16.9906203283
16.9968103636
17.0026662749
17.008163413
17.0132756354
17.0179754012
17.0222371803
17.0260360306
17.0293511151
17.0321648155
17.0344650478
17.0362437152
17.0374977029
17.0382292282
17.0384498027
17.0381784239
17.0374437002
17.0362871469
17.0347668006
17.0329604362
17.0309721298
17.0289341683
17.0270148941
17.0254237721
17.0244258084
17.0243612377
17.0256689629
17.0289213273
17.0348554289
17.0444279549
17.0589360773
17.0801582522
17.1103784606
17.1521739724
17.2079742861
17.2731505369
-2.28952929786
-2.31266032662
-2.35004205563
-2.40279754205
-2.47042487679
-2.55282144249
-2.65021287379
-2.76284663142
-2.89091513857
-3.0345062793
-3.19358884708
-3.36800727115
-3.5575055587
-3.7617398474
-3.98030969568
-4.21276988883
-4.45865748524
-4.7174976607
-4.98882388081
-5.27217805659
-5.56712476424
-5.873247507
-6.19015860085
-6.51749351884
-6.85491783791
-7.20212073155
-7.55882017224
-7.92475602191
-8.2996936432
-8.68341612225
-9.07572664497
-9.47643885135
-9.88537522727
-10.3023510396
-10.7271655021
-11.1595746273
-11.5992750611
-12.0458560493
-12.4987468548
-12.9571466806
-13.4199868048
-13.8858477606
-14.3528636802
-14.8186189368
-15.2800145069
-15.7332334052
-16.1741016215
-16.5979915453
-16.9992334649
-17.3696357754
-17.6997594181
-17.9800396381
-18.2004522546
-18.3506383171
-18.4197339195
-18.3960409523
-18.2677370971
-18.0278184771
-17.6731010552
-17.1993994972
-16.6011794372
-15.8732304899
-15.011706723
-14.0155119354
-12.8875992567
-11.6358440026
-10.2734050447
-8.81851055411
-7.29337199049
-5.72246943576
-4.13100028708
-2.5438816277
-0.984105991713
0.529144605281
1.98023774711
3.35581191413
4.64674291864
5.8495428265
6.96124919962
7.97833070722
8.90598315282
9.75101618743
10.5114848988
11.1911978652
11.8035136008
12.357422484
12.8545222829
13.2976840277
13.692281737
14.0454207064
14.3658222911
14.6557721084
14.9147539302
15.1466385721
15.3544359265
15.5396887943
15.7048774088
15.8525773996
15.9839861531
16.0998939053
16.2018682476
16.2917947746
16.3709102961
16.4399203073
16.4995889878
16.5508872876
16.5947742093
16.6320355063
16.6633307989
16.6894191168
16.7111122992
16.7292054075
16.7443789654
16.7572209187
16.7681991261
16.7777143694
16.7860808601
16.793574251
16.8004054164
16.8067607529
16.8127746648
16.8185789465
16.8242796083
16.8299965525
16.8358136743
16.8418098577
16.8480191958
16.8544736341
16.861170528
16.8681143347
16.8752835873
16.8826677593
16.8902348227
16.8979640334
16.9058163302
16.9137628083
16.9217604197
16.929772982
16.9377513225
16.9456468833
16.9534009987
16.960959038
16.9682742718
16.9753161896
16.9820621099
16.9884941671
16.9945913681
17.0003309608
17.0056862648
17.010631278
17.0151394108
17.0191868646
17.0227513795
17.0258153381
17.0283641689
17.0303886274
17.0318829121
17.0328477144
17.0332900795
17.0332254971
17.0326777177
17.0316821395
17.0302877486
17.0285621149
17.026595355
17.0245063091
17.0224435753
17.0205919222
17.0191825402
17.018510406
17.0189511799
17.0209868743
17.0252261983
17.032428354
17.0435580212
17.0598781048
17.0829225354
17.1140718824
17.153659625
17.1963742598
-2.50658565312
-2.52676396847
-2.56251122158
-2.61583249048
-2.68574810957
-2.77180429046
-2.87372173676
-2.99124387196
-3.12412966311
-3.27212493886
-3.43495211593
-3.61229724646
-3.80381947094
-4.00914917662
-4.22790434044
-4.45969088183
-4.70411880165
-4.96080068713
-5.22936492096
-5.50945177381
-5.80072346007
-6.10285885069
-6.41556126031
-6.73855281144
-7.07158089458
-7.41441311128
-7.76684308883
-8.12868619451
-8.49978490384
-8.88000457511
-9.26923876424
-9.66740405908
-10.0744425116
-10.4903106993
-10.9149740687
-11.3483832369
-11.7904593966
-12.2410456438
-12.6998475467
-13.1663521781
-13.6397756462
-14.1189663847
-14.602289272
-15.0874941899
-15.571538083
-16.050538434
-16.5201789334
-16.9756824625
-17.4111952669
-17.8179111941
-18.1850697344
-18.5017011891
-18.7563200894
-18.9370961555
-19.0316545076
-19.0272463569
-18.9133787607
-18.6875367555
-18.3494815127
-17.8950310862
-17.3173133018
-16.6084241196
-15.7608641324
-14.7696989995
-13.6348455227
-12.3625263787
-10.9657811983
-9.46437742187
-7.88380082457
-6.25239587622
-4.59864201723
-2.95052121831
-1.33456361028
0.228101541563
1.7219220323
3.1325486872
4.44939992742
5.6719197795
6.79960306263
7.82401674535
8.75112946304
9.59548596571
10.362490428
11.0521587181
11.6706538421
12.2243379637
12.7214236204
13.1725050739
13.5804519241
13.945718635
14.2736672227
14.5681892054
14.8316421376
15.0673582545
15.2782900308
15.4666528179
15.6347420724
15.7847549906
15.9182565839
16.0364919902
16.1409020566
16.233026571
16.3141259706
16.385138958
16.4469318489
16.5004070008
16.5464562242
16.5858763807
16.6193953029
16.6477472457
16.6716857959
16.6919336945
16.7091439895
16.7238809976
16.7366219141
16.7477662008
16.7576465763
16.7665401004
16.7746734715
16.7822340027
16.7893730839
16.7962252774
16.8029133997
16.80955348
16.816238526
16.8230416399
16.8300068901
16.8371632981
16.8445189464
16.8520764092
16.8598237712
16.867748742
16.8758272777
16.8840370407
16.8923454638
16.9007226505
16.9091307275
16.9175316173
16.9258781958
16.9341212695
16.9422049779
16.9500793727
16.9577029526
16.9650485628
16.9720951373
16.9788254453
16.985218799
16.9912530348
16.9969020334
17.0021402464
17.0069410467
17.0112805728
17.0151358411
17.0184882668
17.0213215222
17.0236245258
17.0253891664
17.0266137264
17.027301513
17.0274640895
17.0271199759
17.0262988608
17.0250416483
17.0234055427
17.0214649077
17.0193201177
17.0170992391
17.0149610611
17.013099962
17.0117610104
17.0112510342
17.011956009
17.0143483489
17.0189916789
17.0265368465
17.0377493789
17.0534466681
17.0739926384
17.0981284035
17.1195265334
-2.75479997492
-2.77194170387
-2.80562731786
-2.8580115421
-2.92783476884
-3.01459568991
-3.11780337886
-3.23695012793
-3.37154636375
-3.52111640734
-3.68520285316
-3.86336016127
-4.05516169289
-4.26019393643
-4.47806500992
-4.70839879614
-4.95084326674
-5.20506388959
-5.47075083488
-5.74761191564
-6.03537878559
-6.33380019953
-6.64264766411
-6.96170997681
-7.29079891373
-7.62974553048
-7.9784065854
-8.3366628128
-8.70442612956
-9.0816391382
-9.46828348635
-9.86437988801
-10.2699953515
-10.6852380334
-11.110256707
-11.5452214919
-11.9903104964
-12.4456639083
-12.9113194576
-13.3871182519
-13.8726294323
-14.3670368887
-14.869002663
-15.3764996106
-15.8865884683
-16.3953317182
-16.8981255164
-17.3898811182
-17.8645233483
-18.3129601691
-18.7226262103
-19.0803343209
-19.3718917272
-19.5826838248
-19.6982450614
-19.7054029242
-19.5986964662
-19.3837026487
-19.0640333724
-18.634737666
-18.0871832395
-17.4096597059
-16.5891615457
-15.6145802855
-14.4808600203
-13.1917836364
-11.7602263409
-10.207822959
-8.56455606056
-6.86482727767
-5.14156119751
-3.42633552497
-1.75049227897
-0.137043490285
1.40006522462
2.84502682569
4.18342888262
5.41794991164
6.5564769128
7.59820476515
8.54211062516
9.39489925944
10.1635017094
10.8576518181
11.4896291649
12.0621183718
12.5761246307
13.0383829412
13.4539329143
13.8264719942
14.1605964708
14.4602538258
14.7285979136
14.9687830394
15.1836947853
15.3758051546
15.5474042556
15.7005808337
15.837055915
15.9582908642
16.0657193986
16.1607426136
16.2446079247
16.3183480495
16.3829006445
16.4391519569
16.4879680617
16.5301374326
16.5664121088
16.5975059935
16.6241391672
16.6469804327
16.6666594656
16.6837149831
16.6986292825
16.7117964302
16.723565327
16.7342114537
16.7439798409
16.7530565985
16.7616155877
16.7697916693
16.7777275436
16.7855312105
16.7933099034
16.8011274328
16.8090439932
16.8170814757
16.8252651379
16.833590755
16.8420626294
16.8506613756
16.8593775515
16.8681818926
16.8770545009
16.885960133
16.8948698379
16.903740694
16.9125309257
16.9211891146
16.929666515
16.9379163067
16.9459044187
16.9536048658
16.9610000049
16.968071636
16.9748012511
16.9811658609
16.9871415258
16.992701928
16.9978220644
17.0024768902
17.0066442761
17.0103037077
17.0134386647
17.0160353003
17.0180844287
17.0195807234
17.0205249393
17.0209233933
17.0207901165
17.0201471701
17.01902753
17.0174762311
17.0155542412
17.0133405925
17.0109391389
17.0084812312
17.0061246399
17.0040613405
17.0025275923
17.0018099804
17.0022451988
17.0042036132
17.0080500131
17.0141012271
17.0225388789
17.0328960226
17.0428374321
17.0454394005
-3.00208205254
-3.0170876379
-3.04944076914
-3.10082791839
-3.16983774689
-3.25607971427
-3.35901764218
-3.47805731128
-3.61260134637
-3.76206487059
-3.92589227407
-4.10355899354
-4.2945811126
-4.49851083846
-4.71494225724
-4.94350358396
-5.18386109202
-5.43571008392
-5.69877804772
-5.97281578838
-6.25760049438
-6.55292830213
-6.85861809743
-7.17450626534
-7.50045166736
-7.83633324164
-8.18205680031
-8.53755572951
-8.90280000635
-9.27779933792
-9.66261471228
-10.0573635539
-10.4622325251
-10.8774796746
-11.3034401147
-11.7405130393
-12.1891504038
-12.6498167455
-13.1229239084
-13.6087233683
-14.1071954059
-14.6179111057
-15.1398760487
-15.6713336933
-16.2095295518
-16.7505454274
-17.2893854969
-17.8204909143
-18.33757347
-18.8318082492
-19.2884095482
-19.6907871128
-20.0200607258
-20.2563895965
-20.3821912765
-20.3865993986
-20.276285006
-20.0673432024
-19.7666150068
-19.3688770743
-18.8626565753
-18.2311981897
-17.4542155644
-16.5117594271
-15.3910041461
-14.0922670302
-12.6286495843
-11.0244649466
-9.31606582426
-7.54644675768
-5.75262121681
-3.9688509452
-2.23585209269
-0.579615329614
0.992174395506
2.47063896155
3.843429722
5.10618393128
6.26030289371
7.30967557029
8.26500154357
9.13942378226
9.93502364366
10.653016044
11.301222043
11.8854216214
12.4103950111
12.8820464397
13.3056390795
13.6856535522
14.026451259
14.3320000254
14.6057872235
14.8510296451
15.0706433526
15.2672042659
15.4430285819
15.6001893896
15.7404790918
15.8654677295
15.976602938
16.0752458422
16.1626222133
16.2398121568
16.3077809351
16.3674283843
16.4195986323
16.4650842199
16.5046275605
16.5389400776
16.5687041635
16.5945663061
16.6171208098
16.636900357
16.6543725523
16.669941168
16.6839515992
16.6966939497
16.7084139543
16.7193162068
16.7295785324
16.7393557351
16.7487900145
16.7580012265
16.7670921926
16.7761376925
16.7851960754
16.7943014498
16.8034789164
16.8127356401
16.822075899
16.8314899287
16.8409681645
16.8504891997
16.8600333532
16.8695716115
16.8790743278
16.8885017758
16.8978125671
16.9069588133
16.9158968373
16.9245862308
16.9329979092
16.9411089601
16.9489033466
16.9563637066
16.9634724403
16.9702073063
16.9765454391
16.9824611105
16.9879300564
16.992927246
16.9974306548
17.001418935
17.004874776
17.0077825193
17.0101312584
17.0119127372
17.0131245519
17.0137682849
17.0138527148
17.0133924602
17.0124116962
17.010943375
17.0090336026
17.0067414024
17.0041444651
17.0013429659
16.9984580488
16.9956285664
16.9930190035
16.9908173137
16.9892271529
16.9884356956
16.9885505565
16.9895050334
16.9909422321
16.9917487896
16.9889470969
16.9755564491
-3.22186605689
-3.23591068076
-3.26805567258
-3.31913054176
-3.38764393857
-3.47335945232
-3.57575850141
-3.69424117592
-3.82818440058
-3.97697012132
-4.1400078702
-4.31674235158
-4.50666601247
-4.7093174645
-4.92428642404
-5.15120643655
-5.38975651124
-5.63965159918
-5.90064324505
-6.17251015173
-6.45505888722
-6.74811655992
-7.05153327402
-7.36517740625
-7.68894003064
-8.02273359876
-8.36649920729
-8.72020933081
-9.08387863287
-9.45757027334
-9.84141062889
-10.2355991142
-10.6404268764