/*--------------------------------*- C++ -*----------------------------------*\
| =========                 |                                                 |
| \\      /  F ield         | OpenFOAM: The Open Source CFD Toolbox           |
|  \\    /   O peration     | Version:  v1806                                 |
|   \\  /    A nd           | Web:      www.OpenFOAM.com                      |
|    \\/     M anipulation  |                                                 |
\*---------------------------------------------------------------------------*/
FoamFile
{
    version     2.0;
    format      ascii;
    class       surfaceScalarField;
    location    "3";
    object      phi;
}
// * * * * * * * * * * * * * * * * * * * * * * * * * * * * * * * * * * * * * //

dimensions      [0 3 -1 0 0 0 0];
oriented        oriented;


internalField   nonuniform List<scalar> 
24170
(
3.07089060152e-06
1.1751371621e-07
2.98424772171e-06
8.66418106984e-08
2.90364628644e-06
8.06010339855e-08
2.82675708843e-06
7.68874281649e-08
2.75353447363e-06
7.32222284261e-08
2.68388657503e-06
6.96461771827e-08
2.61765711306e-06
6.62293174663e-08
2.55465464291e-06
6.30010410028e-08
2.4946774977e-06
5.99769439785e-08
2.43751381303e-06
5.71624165049e-08
2.38294914143e-06
5.45644105741e-08
2.3307581489e-06
5.21898846298e-08
2.28070335804e-06
5.00542288376e-08
2.2325181916e-06
4.8184115e-08
2.18587824633e-06
4.66388472352e-08
2.14030707025e-06
4.55686432639e-08
2.0946746244e-06
4.5627693564e-08
4.89394012427e-08
2.04573135276e-06
3.42964669223e-06
1.05113873464e-07
3.42461095348e-06
9.16761621798e-08
3.41728414431e-06
8.79269705974e-08
3.40751344582e-06
8.66562431876e-08
3.39572943861e-06
8.50052221613e-08
3.3823778688e-06
8.29958785996e-08
3.36779711445e-06
8.0809124275e-08
3.35223697616e-06
7.8559486234e-08
3.33588671261e-06
7.63260765719e-08
3.31888253636e-06
7.41649085192e-08
3.30131920865e-06
7.21263936191e-08
3.28324795623e-06
7.02593647278e-08
3.2646766523e-06
6.86237665362e-08
3.2455557106e-06
6.73029966771e-08
3.2257502818e-06
6.6441810769e-08
3.20497472956e-06
6.63406160089e-08
3.18287998406e-06
6.77170270059e-08
7.08169070279e-08
3.16099973047e-06
3.67928837752e-06
8.83409879783e-08
3.6834831388e-06
8.7480684047e-08
3.68606443027e-06
8.53454509556e-08
3.6877363132e-06
8.4983286749e-08
3.6885148151e-06
8.42265342235e-08
3.68849919799e-06
8.30105693358e-08
3.68776838227e-06
8.15399848751e-08
3.68637015811e-06
7.99571036749e-08
3.68433538218e-06
7.83609148983e-08
3.68167811087e-06
7.68217735051e-08
3.67840084885e-06
7.54037479502e-08
3.67448996515e-06
7.41700360122e-08
3.66991454032e-06
7.31992034953e-08
3.66461823495e-06
7.25992289912e-08
3.65851609235e-06
7.25438306306e-08
3.65152700753e-06
7.33290308963e-08
3.64382295221e-06
7.54197656237e-08
7.8362978199e-08
3.63627893178e-06
3.93959316962e-06
7.41339621709e-08
3.94535297816e-06
8.17195614697e-08
3.94907591861e-06
8.16215136678e-08
3.95213337007e-06
8.19242946689e-08
3.95463110323e-06
8.1727701495e-08
3.95664722812e-06
8.09929488963e-08
3.95824162109e-06
7.99445502542e-08
3.95944295213e-06
7.87544146392e-08
3.96026051992e-06
7.75421991862e-08
3.96068695419e-06
7.63939955395e-08
3.9607043633e-06
7.53850856559e-08
3.96028340304e-06
7.45895886909e-08
3.95938533342e-06
7.40958358694e-08
3.95796263712e-06
7.40204301073e-08
3.955971922e-06
7.45329284995e-08
3.95342306192e-06
7.58758661162e-08
3.95051291742e-06
7.8327664046e-08
8.15853608042e-08
3.94728937671e-06
4.21885984632e-06
6.24000121062e-08
4.22518517514e-06
7.53937464058e-08
4.2292605482e-06
7.75460315526e-08
4.23258685445e-06
7.85974149872e-08
4.23538525611e-06
7.89292538846e-08
4.23773952175e-06
7.86382798689e-08
4.23971125615e-06
7.79729618073e-08
4.24133445773e-06
7.71310764243e-08
4.24262373236e-06
7.62531136157e-08
4.24357730916e-06
7.54404537095e-08
4.24418301191e-06
7.47796211122e-08
4.24441947219e-06
7.43533038147e-08
4.24426033811e-06
7.42552247682e-08
4.24367988629e-06
7.4601210186e-08
4.24267034914e-06
7.55428088495e-08
4.24127969779e-06
7.72666649232e-08
4.2396587367e-06
7.99486612977e-08
8.34959617509e-08
4.23775095216e-06
4.51874662703e-06
5.27384179766e-08
4.52524083945e-06
6.889826915e-08
4.52959158578e-06
7.3194257565e-08
4.53310491957e-06
7.50828559353e-08
4.53608111471e-06
7.59519604164e-08
4.53861223525e-06
7.61059947616e-08
4.54075693847e-06
7.58272255114e-08
4.5425503148e-06
7.53366379742e-08
4.54400991503e-06
7.47924729521e-08
4.5451390293e-06
7.43103196481e-08
4.5459319184e-06
7.39857051468e-08
4.54637677154e-06
7.39074289975e-08
4.54646108908e-06
7.4169924305e-08
4.54617984194e-06
7.48816017567e-08
4.54555203691e-06
7.6169892923e-08
4.54464614153e-06
7.8171905254e-08
4.54359616739e-06
8.09983458915e-08
8.46189587206e-08
4.54247216083e-06
4.84066935405e-06
4.47881487502e-08
4.8470651071e-06
6.25023421101e-08
4.85162881995e-06
6.86305700997e-08
4.85531986248e-06
7.13917052327e-08
4.85846491436e-06
7.28069690699e-08
4.86116484864e-06
7.34060864104e-08
4.86347497365e-06
7.35172964117e-08
4.86542954682e-06
7.33822570492e-08
4.86704792828e-06
7.31743510814e-08
4.86833781996e-06
7.30207143594e-08
4.86930008411e-06
7.30237527446e-08
4.86993272683e-06
7.32750894102e-08
4.87023705553e-06
7.38659350123e-08
4.87022656738e-06
7.48925596696e-08
4.86994087665e-06
7.64561793349e-08
4.86946184518e-06
7.86514713195e-08
4.86891862215e-06
8.15414428928e-08
8.50991224537e-08
4.86844311712e-06
5.1861333536e-06
3.82339648508e-08
5.19225171858e-06
5.63829084339e-08
5.19694941126e-06
6.39319600398e-08
5.2008040826e-06
6.75360235275e-08
5.20411592754e-06
6.94941878754e-08
5.20698912012e-06
7.05319219291e-08
5.20947561346e-06
7.10299529078e-08
5.21160803966e-06
7.12489598002e-08
5.21340712102e-06
7.13744995918e-08
5.21488490757e-06
7.15421599443e-08
5.21604927724e-06
7.18586676751e-08
5.21690838209e-06
7.24153134638e-08
5.21747698146e-06
7.32968207146e-08
5.21778481574e-06
7.45844190455e-08
5.21788736095e-06
7.63535975845e-08
5.21787541914e-06
7.86633642417e-08
5.21787816032e-06
8.15407467998e-08
8.49344739094e-08
5.21804308195e-06
5.55675765782e-06
3.28135679634e-08
5.56249214439e-06
5.06485538366e-08
5.56724156135e-06
5.91827653969e-08
5.57123768403e-06
6.35400321811e-08
5.57471338405e-06
6.6018648462e-08
5.57776581824e-06
6.74796575697e-08
5.58044239606e-06
6.83536030661e-08
5.58277346129e-06
6.89181502933e-08
5.58478064134e-06
6.93676012943e-08
5.5864802411e-06
6.9842859188e-08
5.58788725017e-06
7.04519040398e-08
5.5890198448e-06
7.12829439253e-08
5.58990517386e-06
7.24117614306e-08
5.59058659069e-06
7.3903423698e-08
5.59113111058e-06
7.58096457486e-08
5.59163502184e-06
7.81603271719e-08
5.59222310432e-06
8.09527661571e-08
8.4121944124e-08
5.59304041794e-06
5.95428549582e-06
2.83025485674e-08
5.95958700852e-06
4.53459800074e-08
5.96431453261e-06
5.44542309856e-08
5.96842479762e-06
5.94287411556e-08
5.97206008294e-06
6.23822787622e-08
5.97529867682e-06
6.42400277207e-08
5.97818095284e-06
6.54702833895e-08
5.98073411145e-06
6.63640406697e-08
5.98298019038e-06
6.71205924683e-08
5.9849393533e-06
6.78827166689e-08
5.98663341097e-06
6.8756923188e-08
5.98808979633e-06
6.98258849591e-08
5.98934629387e-06
7.11546971785e-08
5.99045683058e-06
7.27925962382e-08
5.991495911e-06
7.47704222883e-08
5.99256093381e-06
7.70952119937e-08
5.99377141991e-06
7.97445834919e-08
8.26375771594e-08
5.99525582548e-06
6.38059240651e-06
2.45224627329e-08
6.38545455116e-06
4.04840836618e-08
6.39010327818e-06
4.98056247331e-08
6.39430016902e-06
5.52317864711e-08
6.3980907816e-06
5.85915308632e-08
6.40152413922e-06
6.08064311149e-08
6.40463025266e-06
6.23639486365e-08
6.40743195799e-06
6.35620425113e-08
6.40995104857e-06
6.46011313483e-08
6.41221088781e-06
6.56224384325e-08
6.41423929014e-06
6.67281557409e-08
6.41607151456e-06
6.7993135997e-08
6.41775381859e-06
6.94720451746e-08
6.41934732961e-06
7.11987154694e-08
6.42093022128e-06
7.31873530189e-08
6.42259785771e-06
7.54278377494e-08
6.42445790665e-06
7.78837084675e-08
8.04764751662e-08
6.42662168673e-06
5.74358157835e-06
2.17738256483e-08
5.74736701971e-06
3.66978763787e-08
5.75120512967e-06
4.59669283642e-08
5.75480062177e-06
5.16356623505e-08
5.7581221427e-06
5.52694028715e-08
5.7611830201e-06
5.77449345174e-08
5.76399767601e-06
5.95487667325e-08
5.76658085676e-06
6.09783555747e-08
5.76895000494e-06
6.22316081495e-08
5.77112650227e-06
6.3445538752e-08
5.77313736734e-06
6.47165318347e-08
5.77501729474e-06
6.61140347121e-08
5.77680928734e-06
6.76804434983e-08
5.77856832016e-06
6.94407798634e-08
5.78036025527e-06
7.1396222846e-08
5.7822614798e-06
7.35276012535e-08
5.78435562479e-06
7.57927109103e-08
7.81099977626e-08
5.7867227808e-06
7.00088743022e-06
1.90421342029e-08
7.00488386979e-06
3.27013712613e-08
7.00915816087e-06
4.16923180557e-08
7.01331271907e-06
4.74807144222e-08
7.0172448485e-06
5.13366962497e-08
7.02093616704e-06
5.40530324848e-08
7.02438829019e-06
5.60959421283e-08
7.02761160708e-06
5.77544089261e-08
7.03062391364e-06
5.9218530279e-08
7.0334504708e-06
6.0617665114e-08
7.03612591211e-06
6.20421637418e-08
7.03869199848e-06
6.35481659488e-08
7.04120251102e-06
6.51719029444e-08
7.04372025226e-06
6.69244668106e-08
7.04631937784e-06
6.87995552522e-08
7.04908079391e-06
7.0769188439e-08
7.05208785465e-06
7.2787541991e-08
7.47810763159e-08
7.05541983514e-06
8.53353248725e-06
1.63559283066e-08
8.53769973861e-06
2.85336321781e-08
8.5424060435e-06
3.69862640877e-08
8.54717153099e-06
4.27152286835e-08
8.55181395296e-06
4.66944102014e-08
8.55627028659e-06
4.95965817105e-08
8.56052112631e-06
5.18450949475e-08
8.56456771381e-06
5.37075891101e-08
8.5684257007e-06
5.53599853604e-08
8.5721240586e-06
5.6920491125e-08
8.57570110546e-06
5.84651376506e-08
8.57920837602e-06
6.00431659522e-08
8.58270505711e-06
6.16766790076e-08
8.58626213787e-06
6.33700811059e-08
8.58995622193e-06
6.51078475259e-08
8.59386851719e-06
6.68597258185e-08
8.59807863334e-06
6.85809058444e-08
7.02064103729e-08
8.60265543637e-06
1.0401856908e-05
1.37176150315e-08
1.04061855911e-05
2.42054871593e-08
1.04113375412e-05
3.18343655499e-08
1.04167814222e-05
3.72721572517e-08
1.04222571546e-05
4.12191584063e-08
1.04276480823e-05
4.42065634234e-08
1.04329041755e-05
4.65895928909e-08
1.04380117581e-05
4.86008669465e-08
1.04429807261e-05
5.03924613601e-08
1.04478379953e-05
5.20638480918e-08
1.04526268045e-05
5.36785975446e-08
1.04574000038e-05
5.5271257481e-08
1.04622223952e-05
5.68561296642e-08
1.04671646669e-05
5.84289998116e-08
1.04723027557e-05
5.99719142218e-08
1.04777103618e-05
6.14537718454e-08
1.04834570068e-05
6.28363966458e-08
6.40665368342e-08
1.0489597982e-05
1.26794275894e-05
1.10805967916e-08
1.26839742306e-05
1.96588895134e-08
1.26896479261e-05
2.61618581373e-08
1.26958917224e-05
3.10290843629e-08
1.27023799365e-05
3.47322403601e-08
1.27089368584e-05
3.76505411724e-08
1.27154748646e-05
4.00530983131e-08
1.27219570548e-05
4.2120006454e-08
1.27283808495e-05
4.39700619206e-08
1.27347676847e-05
4.5678895194e-08
1.27411558688e-05
4.72916221558e-08
1.27475972314e-05
4.88307474169e-08
1.27541520579e-05
5.03014769729e-08
1.2760886178e-05
5.16954923428e-08
1.27678639177e-05
5.29937816301e-08
1.27751481656e-05
5.41706282888e-08
1.27827888397e-05
5.51949454403e-08
5.60296260194e-08
1.27908272367e-05
1.54559375085e-05
8.32369707127e-09
1.54608769361e-05
1.4720896927e-08
1.54672748569e-05
1.97647876701e-08
1.54745602407e-05
2.37446516753e-08
1.54823499966e-05
2.69431578626e-08
1.54904108848e-05
2.95905583026e-08
1.54986099543e-05
3.18547067564e-08
1.55068807368e-05
3.38502922989e-08
1.55151996669e-05
3.56520468224e-08
1.55235735945e-05
3.73058611032e-08
1.55320290089e-05
3.88364592893e-08
1.55406065368e-05
4.02532909864e-08
1.55493538082e-05
4.15538936779e-08
1.55583209006e-05
4.27278360089e-08
1.55675557696e-05
4.37585530713e-08
1.5577098628e-05
4.46268606797e-08
1.55869815736e-05
4.53121044746e-08
4.57911398946e-08
1.55972183364e-05
1.88407551342e-05
5.20715990318e-09
1.88464621109e-05
9.01472626028e-09
1.88540207138e-05
1.22064589987e-08
1.88628156887e-05
1.49499090838e-08
1.88724013619e-05
1.73573549542e-08
1.88824842813e-05
1.95076483885e-08
1.88928826595e-05
2.14560390517e-08
1.89034930952e-05
2.32397255299e-08
1.89142636443e-05
2.48811983087e-08
1.89251774696e-05
2.63916718828e-08
1.8936240424e-05
2.77731663373e-08
1.8947471411e-05
2.90215380189e-08
1.89588975398e-05
3.01275146446e-08
1.89705447372e-05
3.10796221038e-08
1.8982439259e-05
3.1864457417e-08
1.89945955382e-05
3.2469551388e-08
1.90070265375e-05
3.28831375219e-08
3.3093794942e-08
1.90197229086e-05
2.29673173321e-05
1.22704778366e-09
2.29745635371e-05
1.76807242901e-09
2.29841585913e-05
2.61067150798e-09
2.29953470446e-05
3.76091909231e-09
2.30075845576e-05
5.11875331432e-09
2.30205093501e-05
6.58227253934e-09
2.30338901638e-05
8.0740365177e-09
2.30475848097e-05
9.54422870669e-09
2.30615094332e-05
1.09555034108e-08
2.30756170335e-05
1.22828119732e-08
2.30898869081e-05
1.35025527592e-08
2.31043081702e-05
1.45982645184e-08
2.31188828396e-05
1.55526248246e-08
2.31336055997e-05
1.6354290756e-08
2.31484793957e-05
1.69913129282e-08
2.31634880152e-05
1.74577471299e-08
2.31786255186e-05
1.7747950532e-08
1.78601416116e-08
2.31938551006e-05
1.68142031329e-05
-2.27268572766e-09
1.68203257293e-05
-4.35627488416e-09
1.68282002345e-05
-5.26521580207e-09
1.68371744313e-05
-5.2159604335e-09
1.68468357273e-05
-4.54274435896e-09
1.68569271465e-05
-3.51262395031e-09
1.68672991726e-05
-2.29694824913e-09
1.6877847808e-05
-1.00858073303e-09
1.68885209954e-05
2.84637504335e-10
1.68992702985e-05
1.52889891881e-09
1.69100828807e-05
2.69308680273e-09
1.69209296569e-05
3.74649693658e-09
1.69318121284e-05
4.67446065249e-09
1.69427029201e-05
5.45833303209e-09
1.69536057159e-05
6.09382685926e-09
1.69644874608e-05
6.57118209973e-09
1.69753484852e-05
6.89414116745e-09
7.05893514937e-09
1.69861463764e-05
1.46383711457e-05
-6.07615427347e-09
1.46447217439e-05
-1.07086690879e-08
1.46525413781e-05
-1.30863513785e-08
1.46611570391e-05
-1.38333408243e-08
1.4670217158e-05
-1.3605858435e-08
1.46795387299e-05
-1.28354654133e-08
1.46890121387e-05
-1.17745253731e-08
1.4698574934e-05
-1.05710704905e-08
1.47081778864e-05
-9.32259176757e-09
1.47177980471e-05
-8.09038793919e-09
1.47274078165e-05
-6.92076711915e-09
1.47369986903e-05
-5.84262454084e-09
1.4746548053e-05
-4.87908432686e-09
1.47560518632e-05
-4.04277186104e-09
1.47654856138e-05
-3.34394839673e-09
1.47748461037e-05
-2.78502177569e-09
1.47841046389e-05
-2.36797539157e-09
-2.08824066586e-09
1.47932582102e-05
1.27444838097e-05
-1.04289397264e-08
1.27512673117e-05
-1.74926734415e-08
1.27591177358e-05
-2.09386055429e-08
1.27673966002e-05
-2.21136850003e-08
1.27758673608e-05
-2.20786267e-08
1.27844316368e-05
-2.14021253758e-08
1.2793034575e-05
-2.03791999796e-08
1.28016392702e-05
-1.91787669114e-08
1.28102220355e-05
-1.7907148405e-08
1.28187643558e-05
-1.66351919284e-08
1.28272519917e-05
-1.54107601472e-08
1.28356728104e-05
-1.42648695819e-08
1.28440122677e-05
-1.32211277831e-08
1.28522597453e-05
-1.22906594956e-08
1.28603991787e-05
-1.14852634414e-08
1.2868419835e-05
-1.08051483761e-08
1.28763067752e-05
-1.02547245178e-08
-9.82834305271e-09
1.28840464154e-05
1.10961205513e-05
-1.56203565587e-08
1.11034695099e-05
-2.48421663501e-08
1.11113200842e-05
-2.8789079622e-08
1.11192021561e-05
-2.99967432501e-08
1.11270519931e-05
-2.99293498167e-08
1.11348596226e-05
-2.92116592688e-08
1.11426153803e-05
-2.81365118297e-08
1.11503092347e-05
-2.68742325019e-08
1.11579336388e-05
-2.55332402838e-08
1.11654807149e-05
-2.41846206919e-08
1.11729441415e-05
-2.28750628636e-08
1.11803112639e-05
-2.16360753008e-08
1.11875758361e-05
-2.04855780077e-08
1.11947190677e-05
-1.94390853026e-08
1.12017369667e-05
-1.85006759146e-08
1.12086074112e-05
-1.76796970658e-08
1.12153321898e-05
-1.69755571035e-08
-1.63943655774e-08
1.12218947706e-05
9.66160782586e-06
-2.20138043822e-08
9.66955579797e-06
-3.2790031007e-08
9.67726950003e-06
-3.65033987244e-08
9.684654682e-06
-3.7382061456e-08
9.69184448461e-06
-3.71198159228e-08
9.6988988911e-06
-3.62663099057e-08
9.70583883109e-06
-3.50772051968e-08
9.71267461095e-06
-3.37108874066e-08
9.7194117554e-06
-3.22709404781e-08
9.7260506622e-06
-3.08247793751e-08
9.73258873354e-06
-2.94144928757e-08
9.73901900784e-06
-2.80677257294e-08
9.74533095701e-06
-2.68004398009e-08
9.75151375062e-06
-2.56224920731e-08
9.75755178679e-06
-2.45408897944e-08
9.76343271811e-06
-2.356053922e-08
9.76914490869e-06
-2.26881840783e-08
-2.19329933614e-08
9.7746832617e-06
8.41339489283e-06
-3.00559069344e-08
8.42181975506e-06
-4.12147714205e-08
8.4291826321e-06
-4.38657244566e-08
8.43597197585e-06
-4.41717846307e-08
8.44247902126e-06
-4.36268315246e-08
8.44879584983e-06
-4.25836422607e-08
8.45496260285e-06
-4.12441091443e-08
8.46100362068e-06
-3.97519353203e-08
8.46693325411e-06
-3.82008206807e-08
8.47275810334e-06
-3.66492914214e-08
8.47847778274e-06
-3.51349239935e-08
8.4840880078e-06
-3.36787149452e-08
8.48957884137e-06
-3.22926691625e-08
8.49493791002e-06
-3.09826031898e-08
8.50014852768e-06
-2.97520910113e-08
8.5051937811e-06
-2.86056005415e-08
8.5100603955e-06
-2.75573072483e-08
-2.6639918021e-08
8.51476839062e-06
7.32750437377e-06
-4.02757905974e-08
7.33607408251e-06
-4.97841877424e-08
7.3428522719e-06
-5.06440758564e-08
7.34898502791e-06
-5.03042905444e-08
7.35480728367e-06
-4.94492396079e-08
7.3604103217e-06
-4.81864228703e-08
7.36584495764e-06
-4.66786794634e-08
7.37114512407e-06
-4.50519132874e-08
7.37633089479e-06
-4.3386042167e-08
7.3814112319e-06
-4.1729972073e-08
7.38638872076e-06
-4.01120609765e-08
7.39126031971e-06
-3.85508824732e-08
7.39601767389e-06
-3.70503172492e-08
7.40064804825e-06
-3.56131752585e-08
7.40513217808e-06
-3.42361542701e-08
7.40944173988e-06
-3.29148354745e-08
7.41353799805e-06
-3.16548413159e-08
-3.04911439921e-08
7.4173869776e-06
6.38304307527e-06
-5.32525009678e-08
6.39117848186e-06
-5.79192712677e-08
6.39719988891e-06
-5.66649488852e-08
6.40267269131e-06
-5.57782186964e-08
6.40783741048e-06
-5.46130092358e-08
6.41277003889e-06
-5.31188599554e-08
6.41752780991e-06
-5.14361421852e-08
6.42214756762e-06
-4.96712184993e-08
6.42664960801e-06
-4.78876618089e-08
6.43104301364e-06
-4.61224756589e-08
6.43532919549e-06
-4.44000491535e-08
6.43950834875e-06
-4.27286337707e-08
6.44357190965e-06
-4.111380249e-08
6.44751029464e-06
-3.95513601407e-08
6.45130600822e-06
-3.8031211142e-08
6.45492520746e-06
-3.65337502904e-08
6.45831087903e-06
-3.50405220859e-08
-3.35929811959e-08
6.4614088979e-06
5.56169965082e-06
-6.9487163219e-08
5.56844516414e-06
-6.46642611092e-08
5.57342360789e-06
-6.16434842737e-08
5.57793593037e-06
-6.02910375658e-08
5.58206071273e-06
-5.87370133841e-08
5.5858763893e-06
-5.69338196268e-08
5.58944698937e-06
-5.50062564837e-08
5.59281193915e-06
-5.30355458443e-08
5.59599380212e-06
-5.10685546572e-08
5.59900403786e-06
-4.91336815848e-08
5.6018504118e-06
-4.72464933805e-08
5.60453759798e-06
-4.5414928568e-08
5.6070663676e-06
-4.36415020327e-08
5.60943723298e-06
-4.19216370981e-08
5.61164670907e-06
-4.02397759583e-08
5.61367044471e-06
-3.85562132621e-08
5.61540777229e-06
-3.67801772006e-08
-3.47092290098e-08
5.61652335182e-06
4.84420680971e-06
-8.60861768108e-08
4.84528314254e-06
-6.57401010896e-08
4.84488479415e-06
-6.12451456017e-08
4.84321406079e-06
-5.86207649515e-08
4.84046277142e-06
-5.59848244122e-08
4.83688739551e-06
-5.33576134619e-08
4.83268276881e-06
-5.08010070347e-08
4.82799236276e-06
-4.83443363485e-08
4.82292450664e-06
-4.60001222806e-08
4.81756288252e-06
-4.37725746309e-08
4.81197571116e-06
-4.16595262461e-08
4.80621893187e-06
-3.96568103897e-08
4.80033836946e-06
-3.77596750832e-08
4.79437652416e-06
-3.59588877899e-08
4.78837729307e-06
-3.42392423453e-08
4.78238856536e-06
-3.2567106032e-08
4.77645095715e-06
-3.08430407919e-08
-2.8271269116e-08
4.77001092046e-06
4.11659009577e-06
4.05085000135e-06
3.98960480032e-06
3.9309841214e-06
3.87499938662e-06
3.82164184155e-06
3.77084092608e-06
3.72249669198e-06
3.67649650347e-06
3.63272385435e-06
3.59106453864e-06
3.55140797362e-06
3.51364846263e-06
3.47768981516e-06
3.44345078053e-06
3.41088355814e-06
3.38004003176e-06
3.3517692302e-06
1.3401192267e-08
-1.35217682764e-08
-1.91609133723e-08
3.24598294414e-08
-1.04863177916e-07
8.56514802094e-08
-2.1593316374e-07
1.11028164408e-07
-3.39655527494e-07
1.23698177798e-07
-4.71683018577e-07
1.31999980307e-07
-6.09918213794e-07
1.38219715692e-07
-7.52954904974e-07
1.43014816285e-07
-8.99633223813e-07
1.46666345415e-07
-1.04900784947e-06
1.49355728328e-07
-1.2002413612e-06
1.5122373709e-07
-1.3526447831e-06
1.52386584134e-07
-1.50559928526e-06
1.52946453176e-07
-1.65860670139e-06
1.52992303427e-07
-1.81121774242e-06
1.5260455752e-07
-1.96308485711e-06
1.51853311947e-07
-2.11389200249e-06
1.50802216282e-07
-2.26341117291e-06
1.49505956024e-07
-2.41143058341e-06
1.48014365529e-07
-2.55781394077e-06
1.4636942063e-07
-2.7024289824e-06
1.4460948651e-07
-2.84521061579e-06
1.4276600304e-07
-2.98608678935e-06
1.40868285462e-07
-3.12504421027e-06
1.38939391393e-07
-3.26205525845e-06
1.37001089152e-07
-3.3971449038e-06
1.35069710936e-07
-3.53031692253e-06
1.3316112879e-07
-3.66162371585e-06
1.3128573779e-07
-3.79108969186e-06
1.29454242323e-07
-3.91878322652e-06
1.27672162755e-07
-4.04473946095e-06
1.25945623087e-07
-4.16903502587e-06
1.24275067439e-07
-4.29170704277e-06
1.22662115531e-07
-4.41282882007e-06
1.21102681842e-07
-4.53242944699e-06
1.19593514713e-07
-4.65057138498e-06
1.18124653138e-07
-4.76726450868e-06
1.16687256816e-07
-4.88254490221e-06
1.15264470913e-07
-4.99638900303e-06
1.13839338376e-07
-5.10878898573e-06
1.12385367023e-07
-5.21966707627e-06
1.10874446498e-07
-5.32894664574e-06
1.09266646151e-07
-5.4364677829e-06
1.07518935574e-07
-5.54205359014e-06
1.05574812599e-07
-5.64542803212e-06
1.03374058179e-07
-5.74628146718e-06
1.00844108691e-07
-5.844190809e-06
9.79097152974e-08
-5.93868371306e-06
9.44840841548e-08
-6.02916482018e-06
9.04815903046e-08
-6.11498862993e-06
8.58140503516e-08
-6.195392947e-06
8.04030835573e-08
-6.26957205462e-06
7.41672469219e-08
-6.33661582278e-06
6.7040383518e-08
-6.39561005162e-06
5.89811302022e-08
-6.4455884423e-06
4.99752929587e-08
-6.48559730842e-06
3.99950262158e-08
-6.51463066388e-06
2.90291601155e-08
-6.53169238971e-06
1.70473669808e-08
-6.53571182242e-06
4.01660911829e-09
-6.52572376582e-06
-1.00025460791e-08
-6.50088061658e-06
-2.48464188151e-08
-6.46049214022e-06
-4.04019527589e-08
-6.40395043987e-06
-5.6541807621e-08
-6.33084610051e-06
-7.3115841253e-08
-6.24092500618e-06
-8.99193844381e-08
-6.13422267604e-06
-1.06712789088e-07
-6.01101373592e-06
-1.23206189735e-07
-5.87192653791e-06
-1.39096102665e-07
-5.7178604135e-06
-1.54061194529e-07
-5.55006042855e-06
-1.67805622515e-07
-5.36999700195e-06
-1.80055131242e-07
-5.17940054941e-06
-1.90598282138e-07
-4.98011284974e-06
-1.99275923114e-07
-4.77410447729e-06
-2.06007271491e-07
-4.56332748044e-06
-2.10764220289e-07
-4.34972715906e-06
-2.13598251402e-07
-4.13510655592e-06
-2.1460868027e-07
-3.92116244263e-06
-2.1394014761e-07
-3.70938946161e-06
-2.117575873e-07
-3.50109781441e-06
-2.08284030989e-07
-3.2973397691e-06
-2.0374072261e-07
-3.0990270306e-06
-1.98301289312e-07
-2.90682785361e-06
-1.92177884279e-07
-2.72115199691e-06
-1.85661069799e-07
-2.54221883058e-06
-1.78911056436e-07
-2.37023056381e-06
-1.71970830002e-07
-2.2051580632e-06
-1.65048039229e-07
-2.04678956985e-06
-1.58344010773e-07
-1.89502700919e-06
-1.51727378819e-07
-1.74966353777e-06
-1.45318827371e-07
-1.61008968869e-06
-1.39531020886e-07
-1.47604856033e-06
-1.340049843e-07
-1.34773861096e-06
-1.28276886365e-07
-1.22450191674e-06
-1.2320432041e-07
-1.10485520892e-06
-1.19613262094e-07
-9.88259379849e-07
-1.16561410542e-07
-8.76060221065e-07
-1.12162959372e-07
-7.68872335028e-07
-1.07148015336e-07
-6.65996984152e-07
-1.02830566594e-07
-5.67442713252e-07
-9.8501354139e-08
-4.72137352333e-07
-9.52397599253e-08
-3.77792290428e-07
-9.42663419651e-08
-2.83151623574e-07
-9.45612185762e-08
-1.91408733706e-07
-9.16549230973e-08
-1.04439586297e-07
-8.68549838776e-08
-2.22082090022e-08
-8.20792920939e-08
5.24793480024e-08
-7.4516306162e-08
1.17631266263e-07
-6.50190827785e-08
1.77340128766e-07
-5.96094166081e-08
2.33795640673e-07
-5.63745768799e-08
2.8783953394e-07
-5.39781181287e-08
3.39986199485e-07
-5.20888168203e-08
3.9058731561e-07
-5.05539966517e-08
4.39911965129e-07
-4.92812964474e-08
4.8816428829e-07
-4.82172848763e-08
5.35521437982e-07
-4.73227872484e-08
5.82123731402e-07
-4.65744556185e-08
6.28103034323e-07
-4.59510376462e-08
6.73565740413e-07
-4.54394182109e-08
7.18616358876e-07
-4.50226650541e-08
7.63334254895e-07
-4.46882083415e-08
8.07793220526e-07
-4.44210596223e-08
8.52041517521e-07
-4.4211483739e-08
8.96127677538e-07
-4.40475503763e-08
9.40080036835e-07
-4.39214879295e-08
9.83929669955e-07
-4.38197591611e-08
1.02768409391e-06
-4.37324421256e-08
1.07135161693e-06
-4.36453368635e-08
1.11491628928e-06
-4.35488717185e-08
1.15836329099e-06
-4.34298782695e-08
1.20165489887e-06
-4.32797516774e-08
1.24475522318e-06
-4.30866062002e-08
1.28760726634e-06
-4.28428956012e-08
1.33015645117e-06
-4.25381868866e-08
1.37232929592e-06
-4.21660817449e-08
1.41405531129e-06
-4.17177331626e-08
1.45524751132e-06
-4.11880826973e-08
1.49582239307e-06
-4.05704011866e-08
1.53568384447e-06
-3.98614584524e-08
1.57474060369e-06
-3.90557622765e-08
1.6128922463e-06
-3.815058235e-08
1.65004073374e-06
-3.71424527202e-08
1.68608078412e-06
-3.60310588876e-08
1.72091138388e-06
-3.48173825394e-08
1.75443097047e-06
-3.35053864279e-08
1.78654660208e-06
-3.20991597888e-08
1.81716778724e-06
-3.06050539119e-08
1.84621572569e-06
-2.90305450427e-08
1.87361823401e-06
-2.73860891615e-08
1.89931807771e-06
-2.56826840864e-08
1.92326829447e-06
-2.39343264169e-08
1.94543978157e-06
-2.21550849429e-08
1.96581522622e-06
-2.03603765897e-08
1.98439594525e-06
-1.85651633956e-08
2.00119562091e-06
-1.67853749938e-08
2.01624628004e-06
-1.50357871818e-08
2.02959093415e-06
-1.33309073264e-08
2.04128781787e-06
-1.16824596178e-08
2.0514018644e-06
-1.01006327779e-08
2.06000873313e-06
-8.59268852048e-09
2.06718609029e-06
-7.16410150182e-09
2.07301757015e-06
-5.8173729697e-09
2.07758542754e-06
-4.55459385621e-09
2.08097865814e-06
-3.37900079312e-09
2.08329052983e-06
-2.29838277865e-09
2.08464324952e-06
-1.338103267e-09
2.08515206261e-06
-4.94823949967e-10
2.08478541004e-06
3.819394256e-10
2.0833425035e-06
1.45763358262e-09
2.08055260587e-06
2.80602525499e-09
2.07605108004e-06
4.51700616709e-09
2.06931858519e-06
6.74925458171e-09
2.05968412088e-06
9.65027403614e-09
2.04627609973e-06
1.34248980075e-08
2.02786429424e-06
1.8427350704e-08
2.00273310925e-06
2.51474300581e-08
1.96841955411e-06
3.43279348713e-08
1.92122165442e-06
4.72134320937e-08
1.85524089794e-06
6.59966149086e-08
9.53544662193e-08
1.75990627703e-06
-1.05154949617e-07
9.15819344606e-08
-2.2702389635e-07
1.54295085791e-07
-3.36623322969e-07
1.95228709938e-07
-4.51778006809e-07
2.26161262755e-07
-5.7647131004e-07
2.48375697877e-07
-7.09255001421e-07
2.64766051515e-07
-8.48127230794e-07
2.77079141283e-07
-9.91436323158e-07
2.86308329677e-07
-1.13787020525e-06
2.93089250071e-07
-1.28639831727e-06
2.97869567283e-07
-1.43617103462e-06
3.00986713573e-07
-1.58650684665e-06
3.02709311133e-07
-1.73682909209e-06
3.03260165924e-07
-1.88667729472e-06
3.02828605997e-07
-2.03565831868e-06
3.01578258848e-07
-2.18346714351e-06
2.99651268542e-07
-2.32984296187e-06
2.97171844791e-07
-2.47459523988e-06
2.94248018688e-07
-2.61756097744e-06
2.90974139008e-07
-2.75863399745e-06
2.87431733595e-07
-2.89772280946e-06
2.83691587659e-07
-3.03478290784e-06
2.79814303313e-07
-3.16977518544e-06
2.75852158728e-07
-3.30269934432e-06
2.71849353927e-07
-3.43355236487e-06
2.67843764326e-07
-3.56236473901e-06
2.63866626815e-07
-3.68915953825e-06
2.59944158139e-07
-3.81398825765e-06
2.56097221678e-07
-3.93688941046e-06
2.52342626224e-07
-4.05792685148e-06
2.48692259093e-07
-4.17714850969e-06
2.45154484123e-07
-4.29462402023e-06
2.41733113708e-07
-4.41040270583e-06
2.38428724672e-07
-4.52455289592e-06
2.35236820574e-07
-4.63711949621e-06
2.32149302414e-07
-4.74816166912e-06
2.29152169548e-07
-4.85771014856e-06
2.26226250263e-07
-4.96580320415e-06
2.23344098262e-07
-5.07244273139e-06
2.20470398994e-07
-5.17762700691e-06
2.17557730792e-07
-5.28130620535e-06
2.14546497329e-07
-5.38340961441e-06
2.1135996986e-07
-5.48380085052e-06
2.07904677523e-07
-5.5822999879e-06
2.040658816e-07
-5.67863947213e-06
1.99709900457e-07
-5.77248488209e-06
1.94683364669e-07
-5.8633935846e-06
1.88815943058e-07
-5.95083548908e-06
1.81920394734e-07
-6.03415301845e-06
1.73796763385e-07
-6.11259043148e-06
1.64245768574e-07
-6.18527494771e-06
1.53083952071e-07
-6.25125552266e-06
1.40140076925e-07
-6.30949519544e-06
1.25275001509e-07
-6.35893047933e-06
1.08408427446e-07
-6.39844828585e-06
8.94873353344e-08
-6.42693682323e-06
6.84740600073e-08
-6.4432958795e-06
4.53815792786e-08
-6.44648864845e-06
2.02305631186e-08
-6.4356667931e-06
-6.81236408034e-09
-6.4101979231e-06
-3.54818811123e-08
-6.36948367133e-06
-6.55680987329e-08
-6.31297439709e-06
-9.69208899773e-08
-6.24021073521e-06
-1.29311411135e-07
-6.15090516002e-06
-1.624296768e-07
-6.04496089389e-06
-1.95868515125e-07
-5.92254772625e-06
-2.29132907291e-07
-5.78411041955e-06
-2.61647013453e-07
-5.63041922309e-06
-2.92792171475e-07
-5.46254190326e-06
-3.21939155128e-07
-5.28184877859e-06
-3.48499766569e-07
-5.08994464102e-06
-3.71955645753e-07
-4.88863691023e-06
-3.91902714055e-07
-4.67983566569e-06
-4.08069919443e-07
-4.46550508944e-06
-4.20331065566e-07
-4.24757926884e-06
-4.28680719988e-07
-4.02792322845e-06
-4.33247023343e-07
-3.80824393652e-06
-4.34277874428e-07
-3.59007515765e-06
-4.32099128163e-07
-3.37477968959e-06
-4.27040281916e-07
-3.1635098592e-06
-4.19541503861e-07
-2.9571632022e-06
-4.10071764107e-07
-2.75647918646e-06
-3.9896936218e-07
-2.56204452986e-06
-3.86593703718e-07
-2.37421890069e-06
-3.73468380765e-07
-2.19314371488e-06
-3.59965655196e-07
-2.01894876427e-06
-3.46145315151e-07
-1.8514122971e-06
-3.32561406896e-07
-1.69001962905e-06
-3.19710074162e-07
-1.53484484626e-06
-3.06863278026e-07