/*--------------------------------*- C++ -*----------------------------------*\
| =========                 |                                                 |
| \\      /  F ield         | OpenFOAM: The Open Source CFD Toolbox           |
|  \\    /   O peration     | Version:  v1806                                 |
|   \\  /    A nd           | Web:      www.OpenFOAM.com                      |
|    \\/     M anipulation  |                                                 |
\*---------------------------------------------------------------------------*/
FoamFile
{
    version     2.0;
    format      ascii;
    class       volScalarField;
    location    "3";
    object      sensitivity;
}
// * * * * * * * * * * * * * * * * * * * * * * * * * * * * * * * * * * * * * //

dimensions      [0 2 -3 0 0 0 0];


internalField   nonuniform List<scalar> 
12225
(
-4.04623031061
-5.35589415318
-6.56197668455
-5.76633051017
-5.2169404811
-4.76767330352
-4.25810670471
-3.84617279469
-3.36801647351
-2.97816985296
-2.90034140189
-3.03765642705
-3.70618423674
-4.90640153587
-6.06612545924
-8.13695192285
-10.9593168762
-12.5693825025
-13.5702293626
-11.3032810635
-8.58423150812
-8.69194240266
-7.9930798136
-7.487945335
-6.93040250922
-6.49600342705
-6.16082785719
-6.08272470822
-6.37534749888
-6.96841026471
-7.98119257546
-9.23090251826
-10.4718131808
-12.1512174581
-13.7597098399
-13.5023013239
-9.41170315181
-9.14251355707
-8.610495675
-8.24475236411
-7.61739594948
-7.24497527463
-6.82803396219
-6.56844434971
-6.4017599361
-6.42814850641
-6.70110170595
-7.19735726005
-7.96952371796
-8.89154978195
-9.89910072689
-11.1283756653
-12.0787169522
-11.4401097898
-9.32183718871
-10.0289628095
-8.91000277109
-8.87965856242
-8.36878508339
-8.13462174804
-7.81379079656
-7.63466882625
-7.52612120721
-7.56412890948
-7.77603473556
-8.14366252266
-8.69908483406
-9.37715976717
-10.1233730736
-10.9024393641
-11.2944819037
-10.5307587985
-9.05168999271
-10.2138926336
-9.09350367673
-9.20412812822
-8.77649386763
-8.65304025256
-8.43259539114
-8.35225861803
-8.32545980219
-8.41046118265
-8.62093143362
-8.93932989844
-9.37918147109
-9.89442183422
-10.4206376635
-10.8639869228
-10.9108988162
-10.1687474607
-8.93711210797
-10.4249824207
-9.28940506095
-9.5276434548
-9.1670308943
-9.12370359473
-8.97211251005
-8.955778857
-8.97823848824
-9.08803208534
-9.29079646123
-9.56735935252
-9.91714947078
-10.2990702152
-10.6438981971
-10.8475381772
-10.697893194
-10.0199614772
-8.90099320186
-10.5747520051
-9.45180463951
-9.79081571569
-9.48564913609
-9.5040519978
-9.40562407811
-9.43701852049
-9.49425553799
-9.61921655869
-9.81054194283
-10.0474459844
-10.3202931572
-10.5888243295
-10.7868710033
-10.8235468353
-10.5676004955
-9.95296774202
-8.89840976486
-10.6754459666
-9.58097047797
-9.99881264663
-9.74039548812
-9.80576738139
-9.74701946651
-9.81198901783
-9.89180604391
-10.0225945968
-10.197376594
-10.3946055967
-10.5997587309
-10.7738893165
-10.8588739447
-10.784131651
-10.4757612939
-9.92726590905
-8.90586976
-10.7383602033
-9.68011443097
-10.1579026499
-9.93786081601
-10.0382172266
-10.0090316682
-10.0972552872
-10.1901262409
-10.3191973248
-10.473234955
-10.6316998978
-10.778302607
-10.8760669597
-10.8770754476
-10.7315786896
-10.4053674642
-9.91287655745
-8.89927322554
-10.7677285797
-9.7447969699
-10.2678996749
-10.0791048984
-10.2060568705
-10.2000600697
-10.305094671
-10.4045010744
-10.526476769
-10.6580015774
-10.7809641435
-10.8788040002
-10.916890828
-10.8579706498
-10.6709337918
-10.3444776162
-9.9076911401
-8.84813642859
-10.787549093
-9.76651622047
-10.3286026497
-10.1634314361
-10.3110343439
-10.3215352327
-10.436817057
-10.5379294202
-10.6523884946
-10.7649312321
-10.8583006574
-10.9163362211
-10.9090063662
-10.8098666578
-10.6024797777
-10.2901896046
-9.90002785498
-8.57898184972
-10.803448351
-9.69762020565
-10.3121461886
-10.1589857895
-10.3232066471
-10.3392539684
-10.4574245526
-10.557820107
-10.6645226842
-10.7590651418
-10.8266114415
-10.8557858604
-10.8196523766
-10.7005847877
-10.4901221075
-10.1956265598
-9.8471780934
-8.34724714663
-10.7604649742
-9.59575860588
-10.232631593
-10.0813903977
-10.2554735059
-10.2771874664
-10.3940511694
-10.4859089847
-10.5791483861
-10.6561387784
-10.7049570471
-10.7124326527
-10.6599820973
-10.5335141626
-10.3320135448
-10.0682279349
-9.7659109108
-8.07416230324
-10.7233661033
-9.48831765635
-10.153790429
-10.0001042949
-10.1774653868
-10.1955742887
-10.3043553105
-10.3827553503
-10.4549939963
-10.5066029703
-10.5287037948
-10.5136366511
-10.4446494893
-10.3156984195
-10.1290031765
-9.90018488377
-9.64468186531
-7.73691107654
-10.6940226344
-9.3566695116
-10.0578921847
-9.89911638296
-10.0812776628
-10.0977170993
-10.1992610855
-10.263036978
-10.3135231798
-10.3411450233
-10.338832647
-10.3038983627
-10.2234088533
-10.0956050508
-9.92743026682
-9.73279021824
-9.52474238566
-7.39643344771
-10.6676850912
-9.21085481873
-9.94878932367
-9.78046839216
-9.96570009501
-9.97683529226
-10.0685919024
-10.1166393892
-10.1498909826
-10.1564834053
-10.1380075841
-10.0894183318
-10.0048608032
-9.88382502348
-9.73743523033
-9.57461538879
-9.40530849968
-7.10431476478
-10.655073697
-9.07206899299
-9.8388464513
-9.6547424006
-9.837264677
-9.83838272044
-9.91666082381
-9.94960168943
-9.96634481376
-9.95954831912
-9.92905436189
-9.87524868432
-9.7914305965
-9.68210659493
-9.55621290276
-9.42248779066
-9.28400447217
-6.8440668943
-10.6458727434
-8.94943549354
-9.73864853711
-9.53306857845
-9.70906220929
-9.69669292147
-9.75979942076
-9.77758122181
-9.78152073293
-9.76490825832
-9.72867098055
-9.67470168358
-9.59698558348
-9.50110238631
-9.39504225157
-9.28578024272
-9.17337139233
-6.74398655759
-10.6699528648
-8.90596350031
-9.70250966965
-9.47265885676
-9.63628125926
-9.60677512459
-9.65266185099
-9.65376104745
-9.64407247335
-9.6171757356
-9.57517071065
-9.52049443149
-9.44742037846
-9.36140476648
-9.2697388986
-9.17762787353
-9.08441992886
-7.12164189487
-10.7145650671
-9.04385203058
-9.7853455976
-9.54206623042
-9.68253264379
-9.63292947303
-9.66059993735
-9.64628739004
-9.62251915718
-9.58472539766
-9.53524517163
-9.47700641168
-9.40381845543
-9.32092938332
-9.2348927464
-9.15006037428
-9.06560778882
-7.41860154581
-10.7715079469
-9.1836368548
-9.89358390494
-9.64143125602
-9.76714458499
-9.7023430517
-9.71893900184
-9.69213654891
-9.65846721555
-9.61117881723
-9.5549078959
-9.49102787718
-9.41599854172
-9.33196188556
-9.24795860105
-9.16515301825
-9.08493967119
-7.65648341377
-10.8244971241
-9.31486303943
-10.0004181924
-9.74283760134
-9.85707060321
-9.78280628213
-9.790242847
-9.75512900946
-9.71358876309
-9.65787208598
-9.59515707555
-9.52714307062
-9.44920437235
-9.36439097556
-9.28063697217
-9.19917133174
-9.11959977765
-7.91212324524
-10.8896882364
-9.44729769008
-10.1111140026
-9.8488198452
-9.95410861912
-9.87204530558
-9.87193770905
-9.83014712045
-9.78067545897
-9.7202120983
-9.65230936795
-9.58116246314
-9.50082016491
-9.41686651098
-9.33213573059
-9.25156622422
-9.17279716401
-8.18214247824
-10.9636559129
-9.58535815754
-10.2209721748
-9.95460975373
-10.0525089202
-9.96329975493
-9.95690217899
-9.90900474758
-9.85580424727
-9.79128514335
-9.72079505621
-9.64770319333
-9.56791156821
-9.48285558474
-9.39831092734
-9.31548289429
-9.23644638175
-8.45927931283
-11.0398731068
-9.72797751543
-10.3267214644
-10.0609083998
-10.150686785
-10.0554501556
-10.0436975985
-9.99118944401
-9.93311911947
-9.86546905401
-9.79479055762
-9.72168871524
-9.64214873224
-9.55772458593
-9.47231816761
-9.38604578605
-9.30500043063
-8.78806190981
-11.0980787386
-9.89209151029
-10.4329952979
-10.1687755673
-10.2504452911
-10.1525443387
-10.1364119697
-10.0793056605
-10.0181074694
-9.94929107597
-9.87873154295
-9.80800928923
-9.72961793039
-9.64563784918
-9.55948464317
-9.46995517489
-9.39253441742
-9.41924599503
-11.2936203052
-10.1153025847
-10.5890431422
-10.3286669971
-10.3882461826
-10.2755446745
-10.2422900465
-10.1693662691
-10.0927484205
-10.0091149748
-9.93266089525
-9.85860105491
-9.77604724022
-9.68966452601
-9.59804119144
-9.49692210083
-9.37627583084
-9.16228350433
-10.57524114
-10.5349414029
-10.7177672685
-10.4969168807
-10.5540308921
-10.4620281379
-10.4518150582
-10.4043780833
-10.3517923218
-10.3008658736
-10.2546051879
-10.2049109234
-10.1439541373
-10.0768518579
-10.0052795375
-9.93336262046
-9.96382789798
-16.8406816227
-13.5294755369
-10.5961767526
-11.2273923776
-10.9149851372
-10.8823635156
-10.7038232725
-10.5748622167
-10.4098769027
-10.2460717749
-10.0598535726
-9.8743879891
-9.70138770788
-9.52426397539
-9.33241027028
-9.10722073466
-8.80857341635
-8.43539103935
-7.89291032523
-7.9867877782
-10.1665123555
-9.66784832357
-9.50281670044
-9.4714988529
-9.27272500189
-9.1758092826
-9.03706980009
-8.89081025461
-8.76695467268
-8.66899743951
-8.57273667154
-8.47426057433
-8.39737657949
-8.37246952259
-8.4260720498
-8.46022001531
-0.0123549148584
-0.00902990739634
0.0224008368398
0.0375374167994
0.0427815694564
0.0468127125515
0.0532071089849
0.0635559110431
0.0787352318124
0.0991708185077
0.125028432132
0.156222541504
0.192572171505
0.233770652314
0.279475410083
0.329265473423
0.382721366134
0.439361680056
0.498683977667
0.560200922021
0.623417178049
0.687965747499
0.753251660807
0.819059849085
0.885051909321
0.951177482112
1.01724549806
1.08324473574
1.14905113866
1.21470360674
1.28023426184
1.34569578335
1.41099242918
1.47622340527
1.54144390195
1.60667231078
1.67168640281
1.73662397285
1.80130340634
1.86577294863
1.92982469607
1.99345586775
2.056433464
2.11867462186
2.17989356611
2.23990340096
2.2983681107
2.35494249056
2.40918742586
2.46073035988
2.5092366336
2.55469084232
2.59668339915
2.63431546597
2.66658952514
2.69254855817
2.71138793457
2.72239204945
2.72528032162
2.72008051409
2.70659654237
2.68455593662
2.65400467056
2.61509999285
2.56797701028
2.51318946284
2.45127946052
2.38285422325
2.30869535306
2.22948398811
2.14612204053
2.05941119477
1.9701912322
1.87925097838
1.78749995964
1.69559090842
1.60419418323
1.51405749262
1.42579099374
1.33983375726
1.25651426761
1.17623298116
1.09915675055
1.02554692842
0.955224020917
0.888571597266
0.825612617676
0.765089209835
0.70711417317
0.650575386742
0.596118542735
0.543606524974
0.491270200125
0.443955470207
0.409550843357
0.384396520076
0.34756658488
0.289036225092
0.226342679456
0.181825468115
0.15117882114
0.12557804309
0.12503531678
0.126470705207
0.106732261562
0.058571125474
0.0309212545455
0.000442961030942
-0.0512073150075
-0.0986332790932
-0.139324312172
-0.174378895704
-0.205162779138
-0.232712488576
-0.257866859603
-0.281210716053
-0.303262289802
-0.324392044079
-0.344844327849
-0.36470847553
-0.384016581493
-0.402872830662
-0.421396416668
-0.439739664242
-0.458019532642
-0.47628035752
-0.494522358798
-0.512752299198
-0.530963419634
-0.549170098762
-0.567366507279
-0.58556636164
-0.603766044744
-0.621979590231
-0.640200655282
-0.658423821591
-0.676652907983
-0.694905906019
-0.71312278704
-0.731192494024
-0.748921358912
-0.766336790403
-0.783352834837
-0.799897216902
-0.815849939107
-0.831084840444
-0.845502842658
-0.85903954511
-0.871653267281
-0.883322109933
-0.8939713342
-0.903472103184
-0.911657388785
-0.918319498901
-0.923111281354
-0.925588777053
-0.925163545525
-0.921149791343
-0.912734866453
-0.899070546622
-0.879373382149
-0.852879816705
-0.818891412729
-0.777046650467
-0.727286789093
-0.669967013551
-0.60589373639
-0.536026091425
-0.460884057334
-0.382405590771
-0.302435771405
-0.222621701941
-0.145851181606
-0.0760032258181
-0.0112366613512
0.0503947508374
0.0988866283532
0.13220569043
0.143856614569
0.116588820484
0.0074560845243
0.0219445130738
0.0280432706084
0.0301556361855
0.0298209381819
0.0293821278057
0.0307890367722
0.0355198419331
0.044488652333
0.0582018058903
0.0768625802726
0.100607362459
0.129329970385
0.162913042121
0.201088473984
0.2435996983
0.290094573511
0.340228547976
0.393533509395
0.449677279374
0.508153150444
0.568629529735
0.630634816872
0.693909016034
0.758079744349
0.823121085584
0.888800167753
0.955018734161
1.02166562432
1.08877569175
1.15626233249
1.22408692421
1.29221214009
1.36071784987
1.4294705681
1.49849634761
1.56766087788
1.63693820423
1.70615302905
1.77530007751
1.84417613866
1.9126860383
1.98058734913
2.04769306896
2.11369208508
2.1782702674
2.24099489215
2.30144280931
2.35898350956
2.41289011518
2.46188596834
2.5047726483
2.54126658199
2.57129323412
2.59448564198
2.61034255841
2.61833104707
2.61766568501
2.60853729973
2.5917288392
2.56731094499
2.53543817581
2.49603933141
2.44919370041
2.39507610106
2.33397897697
2.26634945007
2.19276961438
2.11390571717
2.03047500131
1.94326218016
1.8530302268
1.76068504974
1.66700046517
1.57273816285
1.47864402184
1.38538247556
1.29355092497
1.20374049277
1.11626076604
1.03123174983
0.948960372736
0.869750366574
0.79323734925
0.71881401399
0.647353272717
0.579965494644
0.514509281831
0.446295155961
0.377681546742
0.31531776887
0.254254673427
0.181778635766
0.102187390607
0.0374130885367
-0.00689101519453
-0.0617889585694
-0.111945571548
-0.159422988786
-0.226859674385
-0.323512899822
-0.415628358641
-0.378911534008
-0.372788868979
-0.381122764877
-0.397606060214
-0.414595509987
-0.421944124026
-0.434842376679
-0.452023469612
-0.474684962715
-0.50043289568
-0.527888602348
-0.556298478364
-0.585306834569
-0.614722360918
-0.644523859294
-0.674690057893
-0.705175667746
-0.735793500034
-0.766416089274
-0.796967816086
-0.827473536521
-0.857987686141
-0.888552508418
-0.919126781284
-0.949676513298
-0.980134171245
-1.01047166323
-1.04064175606
-1.07063724887
-1.10043777531
-1.13006547797
-1.15953181597
-1.18887583561
-1.21811441418
-1.24730600646
-1.27647774081
-1.30560908729
-1.33454639862
-1.36318126341
-1.39153413427
-1.41962741992
-1.44744445292
-1.47490423694
-1.50192880696
-1.52850709494
-1.55466041011
-1.5804193146
-1.60580268125
-1.6308428126
-1.65564054982
-1.68038064979
-1.70528438108
-1.73061960261
-1.7567410192
-1.78409472326
-1.81322768033
-1.84478533919
-1.87944876109
-1.91755494719
-1.95931481989
-2.00473760747
-2.05333228429
-2.10390430258
-2.15448704848
-2.20262348126
-2.24549628663
-2.28111895495
-2.30591186997
-2.31646403393
-2.31004786401
-2.28166993881
-2.2377834214
-2.18506966807
-2.12377611715
-2.05334347193
-1.98066824481
-1.91491278538
-1.862296663
0.039195833902
0.0656558498957
0.0832694923786
0.0981291971752
0.108996641682
0.11727514392
0.125023371834
0.133681521017
0.144247726237
0.157519037231
0.173996920127
0.194006612544
0.217743551662
0.245291680924
0.276632977251
0.311674518747
0.350236089171
0.392119528717
0.437026444649
0.484623442068
0.534548518184
0.586553138763
0.640165573909
0.695159184451
0.751255030317
0.808292359459
0.866048252723
0.92445622307
0.98337843912
1.04278478281
1.10259303451
1.16282473656
1.22338753508
1.28429571182
1.34552137139
1.40706803976
1.4687975221
1.53076617422
1.59287596215
1.6551217851
1.71740827375
1.77970473056
1.84189166117
1.90388694954
1.96551888273
2.02662573809
2.08695223749
2.14619557873
2.20395805188
2.25975245593
2.31269199148
2.36193817601
2.40653463893
2.44575421002
2.47911816314
2.50612837312
2.52631483966
2.5393461646
2.54456966045
2.54084747658
2.52804768107
2.50611862014
2.47505129152
2.43487623814
2.38571760732
2.32796633432
2.26215014045
2.18894632294
2.10920581132
2.0238416731
1.93388955911
1.84040262127
1.74438077019
1.64681968338
1.54867495244
1.45071960731
1.35366532858
1.25807113561
1.16442641375
1.07311822094
0.984274390671
0.897850329038
0.813951560934
0.732731485486
0.653695275426
0.575889393063
0.500116685644
0.427605776049
0.355547647748
0.279025740928
0.199941395978
0.129717293251
0.0620093958522
-0.0110745112064
-0.0894533657603
-0.177995400968
-0.27344421022
-0.307510594305
-0.334743652206
-0.365031685834
-0.387304102777
-0.373176683865
-0.347402468938
-0.363927716931
-0.380999616831
-0.393028545729
-0.407441821967
-0.435789260881
-0.473583655392
-0.509413647667
-0.543411473742
-0.576244208655
-0.60827105434
-0.639694658008
-0.670651212737
-0.701250750174
-0.73158539374
-0.761722664332
-0.791646360787
-0.821262758076
-0.850525111807
-0.879441776967
-0.908100149531
-0.936569105912
-0.96488219079
-0.993028436549
-1.02098943936
-1.04874443241
-1.07628737774
-1.10361954426
-1.13075610804
-1.15772319674
-1.18456227042
-1.21132697874
-1.23806739923
-1.26483557689
-1.29167376381
-1.318588737
-1.34551461654
-1.37228449337
-1.39883693651
-1.42523682485
-1.45161767346
-1.47801384953
-1.50437869288
-1.53067180945
-1.55688548742
-1.58304212496
-1.60916602892
-1.63526991103
-1.66135366056
-1.68740145985
-1.71334056308
-1.7390932352
-1.76460791846
-1.7898323258
-1.81472162601
-1.83925333225
-1.86342806938
-1.88723012156
-1.91057838975
-1.93347338689
-1.95602731979
-1.97843461842
-2.00104023939
-2.02429114488
-2.0484890339
-2.07404426418
-2.1015066147
-2.1309390648
-2.16163004028
-2.19176666192
-2.21760303487
-2.238876685
-2.25701992106
-2.26914506011
-2.26993450697
-2.25876397323
-2.23937959477
-2.22678121622
0.0941862693421
0.152570407392
0.181710481087
0.207099238828
0.225837142207
0.239461563363
0.250277077603
0.260148996017
0.270490542559
0.282271266075
0.296182849246
0.312773454175
0.332359760835
0.355152728459
0.381224371971
0.410567254988
0.443089961339
0.478634443295
0.516962151099
0.557906621553
0.60111911575
0.646332729277
0.693269227675
0.741712310054
0.791334263635
0.842060875088
0.89370168957
0.946165609942
0.999330967095
1.05319030737
1.10766380238
1.16272946955
1.21834819984
1.27457004026
1.33127833514
1.3885161844
1.44622996023
1.50441136528
1.56297852807
1.62194748665
1.68122221734
1.74075330184
1.8004059098
1.86004271039
1.91943836771
1.97831260822
2.03628319283
2.09294663335
2.14769478705
2.19978492241
2.2485151623
2.29312604684
2.33248916589
2.36543529468
2.39091427594
2.40804657629
2.41615838621
2.41525886329
2.40622069475
2.38899910393
2.36351534018
2.3299615423
2.28848963346
2.23932572541
2.18273395259
2.11899345995
2.04850742397
1.97182605509
1.88961322164
1.80265899717
1.7118139114
1.61800026454
1.52220573987
1.42531672771
1.32810465367
1.23144450368
1.13599720019
1.04215495829
0.950301761038
0.861126936381
0.774646200526
0.690440345292
0.608250492458
0.529497478293
0.453433738151
0.3775341477
0.30150103875
0.231175445006
0.166915012184
0.0964618994961
0.0213854299836
-0.0490062577732
-0.123475612004
-0.218544390535
-0.304724998735
-0.379359438717
-0.432308986573
-0.4474757306
-0.449797407591
-0.440438899647
-0.417769040599
-0.395314984557
-0.405893524679
-0.449851895091
-0.491929171877
-0.527263655085
-0.562430545595
-0.603722599681
-0.648233162796
-0.689998903583
-0.728453887193
-0.764317176022
-0.79827471484
-0.830821903604
-0.862302946883
-0.892949721343
-0.922924517111
-0.952336971676
-0.981219208336
-1.00954113861
-1.03731269908
-1.06460889549
-1.09152861682
-1.11813703002
-1.14446723919
-1.17051839389
-1.19628126754
-1.22174594538
-1.24691388648
-1.27179706683
-1.29642182841
-1.32082920764
-1.34507721496
-1.36923498216
-1.39336871674
-1.41753581046
-1.4417550123
-1.46597838466
-1.49006359223
-1.51382129763
-1.53718483601
-1.56028806344
-1.58331080367
-1.60631480257
-1.62927072619
-1.65214855932
-1.67494687344
-1.69769778358
-1.72043288413
-1.74318411158
-1.765970988
-1.78881208762
-1.81168915922
-1.83457853578
-1.85747448991
-1.88039011527
-1.903342033
-1.92635541602
-1.9494541536
-1.9726660917
-1.99606744655
-2.01977639044
-2.04387108405
-2.06840827774
-2.09344570848
-2.1190014799
-2.14495074647
-2.17118740613
-2.19756634514
-2.22365063584
-2.24870847018
-2.27164428247
-2.29074199194
-2.3068650613
-2.32155932827
-2.3338933458
-2.34182389539
-2.34666144551
-2.35375210055
-2.37627888318
0.174421631804
0.28532083183
0.324324759769
0.354071095599
0.372396182568
0.382918429323
0.389104192908
0.393340541463
0.39714231428
0.401711182009
0.407816533692
0.416044680501
0.426788484087
0.440337953704
0.456832128655
0.476351062642
0.498847353397
0.524284337676
0.552503564993
0.583314707025
0.61649901471
0.651912474684
0.689211809247
0.728256610459
0.768842893124
0.810815766823
0.853985578287
0.89831288236
0.943664966804
0.990012544233
1.03726455944
1.08545287137
1.13448489897
1.18436717218
1.23507514482
1.28662434524
1.33893076851
1.39205732023
1.44595860509
1.50064337725
1.55605802804
1.61217043527
1.6688685815
1.72602013822
1.78338922129
1.84068409815
1.89749216782
1.95330934195
2.00749207425
2.05917782849
2.10714317619
2.15034944469
2.18782280689
2.21837571669
2.24102092315
2.25488831593
2.25916418289
2.25413134771
2.24078194592
2.21918982607
2.18941985541
2.1515254979
2.10562912426
2.05186216294
1.99043253862
1.92171259779
1.84621075986
1.76459254265
1.67769753739
1.58643612962
1.49179568422
1.39476554923
1.29645249645
1.19770947704
1.09925064766
1.00183126634
0.906471304625
0.813125952872
0.72194751016
0.633538646634
0.549232807713
0.467574434616
0.387231794616
0.30972819684
0.23792100952
0.167409106587
0.0949835259884
0.0269749619498
-0.038288223851
-0.120230882771
-0.211466278045
-0.293335027433
-0.376057570755
-0.4482921346
-0.49509447148
-0.523368592175
-0.535069734197
-0.539552916763
-0.545542212986
-0.545268405564
-0.540766465524
-0.544669270039
-0.570508329921
-0.613818017403
-0.657240525739
-0.696892252637
-0.735385607262
-0.775428069429
-0.815986115021
-0.854545347861
-0.890476618532
-0.924056099583
-0.955764327651
-0.986021751418
-1.01515555083
-1.04337023423
-1.07082656043
-1.09762306465
-1.12380628138
-1.14938617585
-1.17438701114
-1.19890343083
-1.223003538
-1.2467472178
-1.27015912515
-1.29324957957
-1.31601069586
-1.338440532
-1.36054295948
-1.38233851902
-1.40386187895
-1.42516727759
-1.44632726409
-1.46742197982
-1.48853328039
-1.5097123339
-1.53095399556
-1.55215599373
-1.57311653675
-1.59364819759
-1.61370423933
-1.63348537632
-1.65319702106
-1.67292401928
-1.69265869081
-1.71238100725
-1.73210166527
-1.75185058504
-1.77166203832
-1.79156338877
-1.81157323791
-1.83170173708
-1.85193798384
-1.87226527446
-1.89267313641
-1.91316447074
-1.93374869172
-1.95444635109
-1.97528471875
-1.99630156122
-2.01756563843
-2.03919203111
-2.06129569513
-2.08397656112
-2.10731460215
-2.13134318203
-2.15599921188
-2.18122389769
-2.20690475651
-2.23267536552
-2.25787241996
-2.28154173582
-2.30250069845
-2.32129306189
-2.33880566821
-2.35469084506
-2.36813279651
-2.38091794309
-2.39888939805
-2.43301750019
0.27040531543
0.45696672858
0.502533674308
0.528707685124
0.53927555762
0.541452222495
0.539410914113
0.535628705987
0.531517264263
0.528026601145
0.525787721199
0.525408211316
0.527237739942
0.531609199168
0.538667840296
0.548554559946
0.561270709216
0.576809630072
0.59504741441
0.615954033772
0.639299385339
0.6649365043
0.692694060432
0.722431883965
0.753896755747
0.787042892633
0.821702485409
0.857807687962
0.895233086399
0.93396759303
0.97391668874
1.01506454332
1.05735863663
1.10083539935
1.14540513663
1.19111653637
1.23795655816
1.28594882224
1.33507213094
1.38536578941
1.43678243242
1.48928554315
1.54275243267
1.5970176987
1.65180393603
1.70674069938
1.76134289786
1.81506455444
1.86715102867
1.91659764105
1.96210854388
2.00246375989
2.03646236884
2.06289095843
2.08066255618
2.08888149125
2.08697666937
2.07685347855
2.05867428702
2.03283361123
1.99938807012
1.95829266869
1.90937226468
1.85251003025
1.78773580449
1.71529091202
1.63567646589
1.54966903929
1.4582777011
1.36282526067
1.26433753003
1.16394548437
1.06296359726
0.962672632586
0.863093186068
0.765172668273
0.669885986192
0.578188731684
0.488861516311
0.401812201664
0.31924822521
0.242425871178
0.167500936353
0.0924687572122
0.0227413830934
-0.0450135620702
-0.123710650298
-0.202038524898
-0.28127933028
-0.364395623873
-0.440278394612
-0.503900549198
-0.560630714231
-0.604397474654
-0.633317755823
-0.651511356449
-0.661949596358
-0.67143725865
-0.68298146983
-0.693279632908
-0.70421521516
-0.722070322544
-0.751673466008
-0.789770618037
-0.828684983964
-0.865821017898
-0.901871943568
-0.937908975686
-0.973621850143
-1.00795343976
-1.04042330255
-1.07105580412
-1.10010037767
-1.12784088419
-1.15450881187
-1.18026363806
-1.20523157297
-1.22951951542
-1.25317870245
-1.27623579456
-1.29873360096
-1.32073335083
-1.34228928389
-1.36345077613
-1.38424740871
-1.40469258407
-1.42478575097
-1.4445286888
-1.46393147679
-1.48302012737
-1.5018382763
-1.52045018883
-1.53893752206
-1.55739136571
-1.57589667555
-1.59449628501
-1.61314645126
-1.63169133265
-1.64990233012
-1.66758880784
-1.68476907762
-1.70166571676
-1.71849358784
-1.7353484529
-1.75223842509
-1.76915760404
-1.78612691997
-1.80317864555
-1.82035042645
-1.83766626856
-1.85514568107
-1.87279413559
-1.89060924565
-1.90858046721
-1.92670441952
-1.94498506994
-1.96343803912
-1.98208558743
-2.00096353963
-2.0201180998
-2.03961809997
-2.05956434752
-2.08006566648
-2.10121367308
-2.12308923479
-2.14573138401
-2.16909917677
-2.19314048399
-2.21773485117
-2.24254186084
-2.26698913215
-2.29030613699
-2.31168572562
-2.3314798216
-2.35016914304
-2.36779646949
-2.38445966123
-2.40210142576
-2.42613205197
-2.46479186119
0.38175150177
0.665832142758
0.707807086025
0.719797001905
0.716749194151
0.707381338556
0.695315493785
0.682332732956
0.669217253944
0.656747376945
0.645425516713
0.635802627597
0.628208646549
0.62299134902
0.620291343972
0.620289018106
0.62298149423
0.628443998845
0.636582451865
0.647334810509
0.66056930272
0.676239436749
0.694104150219
0.714103633662
0.736087707787
0.759958493577
0.785560426895
0.812872876747
0.841769382574
0.87223093436
0.904162461342
0.937588100569
0.972423957977
1.00868259253
1.04635257833
1.08546453346
1.12599021372
1.16800369861
1.2115009302
1.25650053077
1.30295709953
1.35080830471
1.39989839614
1.45001606231
1.50083005851
1.55193234479
1.60280861431
1.65289042608
1.70150604178
1.7477217434
1.79012887664
1.82738341901
1.85814068779
1.88094122335
1.89440822328
1.89733317713
1.88999385542
1.87537557804
1.8531831289
1.82403831425
1.78791098216
1.74454257858
1.69354878458
1.63442920705
1.56689916259
1.49115884613
1.40782953406
1.31763369004
1.22194671403
1.1225220631
1.02081604438
0.917453604546
0.81438100685
0.713046152571
0.61407566226
0.516919295058
0.422675139558
0.333153406705
0.248862675268
0.167063676
0.0868441422175
0.0127983112607
-0.0577459737016
-0.13865850499
-0.216879528099
-0.292367672646
-0.365026386492
-0.43556850293
-0.505139360664
-0.572443062438
-0.631862820129
-0.682099527121
-0.72408067456
-0.756264352641
-0.780150572275
-0.798281285748
-0.813087445954
-0.827971124643
-0.844209404274
-0.860784936691
-0.879023409218
-0.901610427965
-0.930210416548
-0.96298392191
-0.996529371062
-1.02928783199
-1.06128389116
-1.09289938711
-1.12401325731
-1.15415193459
-1.18297936402
-1.21043160446
-1.23660186999
-1.26165618684
-1.28572056763
-1.30892003234
-1.33135533443
-1.35313344065
-1.37431779604
-1.39493166395
-1.41500977248
-1.4345749216
-1.45367544013
-1.47235186968
-1.49064389911
-1.5085661274
-1.52612723096
-1.54333073937
-1.56019314441
-1.57674389199
-1.59303380656
-1.60913307678
-1.62512828696
-1.64111676454
-1.65717727159
-1.67333688166
-1.68951429129
-1.70551567924
-1.72110186588
-1.73610761797
-1.75060205646
-1.76480835949
-1.7789391385
-1.79308902155
-1.80727934334
-1.82152452602
-1.83585514046
-1.8503141592
-1.86493799783
-1.87975364368
-1.89477704296
-1.91001584935
-1.92547102137
-1.9411404905
-1.95702591053
-1.97313720726
-1.98949444664
-2.00612520652
-2.02307081514
-2.04038483198
-2.0581367751
-2.07642156005
-2.09534366796
-2.11499243214
-2.13545118737
-2.15676868705
-2.17892207212
-2.20186015483
-2.22546653775
-2.24943167478
-2.27327022813
-2.29634840798
-2.31808369133
-2.33870475047
-2.35851138256
-2.37770399195
-2.3969684429
-2.41829986598
-2.44636662509
-2.48715719142
0.509605273835
0.907892457696
0.928371141572
0.915797650867
0.895309023323
0.872361117663
0.848645460123
0.824954373299
0.801549902642
0.778902492147
0.75745614225
0.737794308197
0.720197363189
0.705011671566
0.69234183286
0.682374546445
0.675103437256
0.670588550337
0.668724165756
0.66954936987
0.672890645818
0.678699117397
0.686843574284
0.697256629653
0.709747210265
0.724304499418
0.740784168868
0.759147353544
0.779277640384
0.801168973763
0.824730251095
0.84995383915
0.876793310145
0.905280927681
0.935369952826
0.967119428968
1.00054296665
1.03568081009
1.07253169815
1.11110866497
1.15133498032
1.19310430801
1.23621137571
1.28039796416
1.32531129664
1.37055863841
1.41571208326
1.46039333679
1.50421863852
1.54661351459
1.58635762225
1.62186314543
1.6513221917
1.67260502043
1.68338611846
1.68149909384
1.66933181153
1.65015986722
1.62374720078
1.59100121541
1.5519080322
1.50629232476
1.45348774871
1.39245029825
1.32242254059
1.24365227638
1.15693539919
1.06312181839
0.963479005485
0.860711431409
0.75687524052
0.652561040694
0.548593456825
0.447476196617
0.350646099353
0.258003826713
0.168278017347
0.0813264384138
0.000764335024201
-0.0762249774701
-0.161393126758
-0.24257259722
-0.319320352432
-0.391963198702
-0.461112112671
-0.527462958888
-0.591233475659
-0.652753559581
-0.711317970868
-0.765406707219
-0.812890113378
-0.853374805702
-0.887404209366
-0.91530168958
-0.938434758382
-0.958165124773
-0.976015687479
-0.993735843228
-1.01212464879
-1.03120631853
-1.05174630505
-1.07489840804
-1.10106956828
-1.12928398017
-1.15796559383
-1.18627076305
-1.21406593173
-1.24146695886
-1.26839674253
-1.29461419055
-1.31989341156
-1.34414449288
-1.36738185349
-1.38967226314
-1.41107952971
-1.43168476867
-1.45159532149
-1.47090862942
-1.48968754827
-1.50794529329
-1.52567612017
-1.54288970904
-1.55962350445
-1.57592287871
-1.59182603417
-1.60735356134
-1.62251611336
-1.63732300312
-1.65179348097
-1.66596226043
-1.67988364855
-1.69363120873
-1.70729496633
-1.72097151937
-1.73473287217
-1.74857680604
-1.76238888043
-1.77595418497
-1.78903853701
-1.80152968923
-1.81352158512
-1.82523236089
-1.83685212967
-1.84847146898
-1.86012234901
-1.87183400236
-1.88364944476
-1.89562075281
-1.90778785505
-1.92018114556
-1.93281557413
-1.94570165319
-1.95884256038
-1.97224347351
-1.98591020027
-1.99985967627
-2.01411616461
-2.02871439838
-2.04370039806
-2.05913519577