/*--------------------------------*- C++ -*----------------------------------*\
| =========                 |                                                 |
| \\      /  F ield         | OpenFOAM: The Open Source CFD Toolbox           |
|  \\    /   O peration     | Version:  v1806                                 |
|   \\  /    A nd           | Web:      www.OpenFOAM.com                      |
|    \\/     M anipulation  |                                                 |
\*---------------------------------------------------------------------------*/
FoamFile
{
    version     2.0;
    format      ascii;
    class       volVectorField;
    location    "3";
    object      U;
}
// * * * * * * * * * * * * * * * * * * * * * * * * * * * * * * * * * * * * * //

dimensions      [0 1 -1 0 0 0 0];


internalField   nonuniform List<vector> 
12225
(
(9.72618977463 0.0300812377031 0)
(9.47893129329 0.0370930946943 0)
(9.23012354121 0.0395589178888 0)
(8.98739728557 0.0402294826271 0)
(8.75381627423 0.0400108731702 0)
(8.53037625873 0.039384829512 0)
(8.31729717623 0.0385996570446 0)
(8.11440212619 0.0377791179051 0)
(7.92128351992 0.036983819915 0)
(7.73740231737 0.0362431512791 0)
(7.56214400986 0.0355735308912 0)
(7.39484506635 0.0349875027023 0)
(7.23479605003 0.0345000921994 0)
(7.08123662399 0.0341339014 0)
(6.93330988081 0.033929768334 0)
(6.78992849483 0.0339772915277 0)
(6.64955912926 0.0346279120529 0)
(6.50422451335 0.0295565939122 0)
(10.006380439 0.0562611380222 0)
(10.0180242022 0.0687258046778 0)
(10.0103207894 0.0720040971164 0)
(9.98904956073 0.072404880061 0)
(9.95881052752 0.0717258593876 0)
(9.92226608639 0.0707750186816 0)
(9.88114773459 0.0698929737596 0)
(9.83663767826 0.0691988046814 0)
(9.78954988907 0.0687175499335 0)
(9.74044314211 0.0684405999331 0)
(9.6896910707 0.0683563378739 0)
(9.63752066998 0.0684635145528 0)
(9.58402615585 0.0687802449338 0)
(9.52916565046 0.0693531629269 0)
(9.47271945701 0.0702807448496 0)
(9.41419224585 0.0717793410993 0)
(9.35301486572 0.0744646387079 0)
(9.28226583023 0.080606156605 0)
(10.014973913 0.0490443051599 0)
(10.0409830426 0.0616715966819 0)
(10.0582700086 0.0645284582976 0)
(10.0680452595 0.0649433574546 0)
(10.0729583424 0.064767608683 0)
(10.0744755189 0.0646739713935 0)
(10.0734248058 0.0648784244241 0)
(10.0702924525 0.0654061661573 0)
(10.0653542407 0.0662197351675 0)
(10.0587549563 0.0672745729686 0)
(10.0505542768 0.068544635845 0)
(10.0407506271 0.0700318932957 0)
(10.0292883646 0.0717740281133 0)
(10.0160543757 0.0738557164279 0)
(10.0008635462 0.0764389863066 0)
(9.98345311668 0.0798349926597 0)
(9.96381320154 0.0846368641726 0)
(9.9390283302 0.0909467515784 0)
(10.0118995619 0.0415304784027 0)
(10.0345743038 0.0563578457185 0)
(10.05255735 0.0610607251269 0)
(10.0649483032 0.0628934399408 0)
(10.0736659152 0.0638814222001 0)
(10.0799906284 0.0647390878181 0)
(10.0846541723 0.0657208863059 0)
(10.0880701611 0.0668937947606 0)
(10.0904506921 0.0682611606858 0)
(10.0918815993 0.0698163648767 0)
(10.092368582 0.0715681658989 0)
(10.0918647191 0.0735512464742 0)
(10.0902847066 0.0758357645326 0)
(10.0875126742 0.0785406927845 0)
(10.0834117062 0.0818622532444 0)
(10.0778595224 0.0861204314897 0)
(10.0709638423 0.0917897311764 0)
(10.0614557954 0.0989050584701 0)
(10.0091302312 0.0354087231969 0)
(10.0280255671 0.0514300795988 0)
(10.0446622873 0.0574915536768 0)
(10.0568605966 0.0601603154486 0)
(10.0658062954 0.0616573968464 0)
(10.0725824028 0.0628153625435 0)
(10.077863208 0.0639718290768 0)
(10.0820496015 0.0652573094556 0)
(10.0853593658 0.0667221538292 0)
(10.0878916924 0.0683940997835 0)
(10.0896692937 0.0703072264455 0)
(10.0906658089 0.0725159772392 0)
(10.0908232883 0.0751070154179 0)
(10.0900662182 0.0782130025091 0)
(10.0883208929 0.0820347901365 0)
(10.0855554283 0.0868662882356 0)
(10.0818962229 0.0930898309475 0)
(10.0767836967 0.100894084717 0)
(10.0069824377 0.0303193575438 0)
(10.0226203506 0.0466442171202 0)
(10.037684222 0.0537674628715 0)
(10.0493682241 0.0572072960536 0)
(10.0581964258 0.0592396961768 0)
(10.0650114368 0.0607860874538 0)
(10.0704018553 0.0622465029461 0)
(10.074738075 0.0637966655206 0)
(10.0782322042 0.065518682421 0)
(10.0809903461 0.0674624966542 0)
(10.0830495976 0.0696778422745 0)
(10.0844040406 0.0722307968305 0)
(10.0850236028 0.0752163831907 0)
(10.0848711796 0.0787707408483 0)
(10.0839250646 0.0830858767239 0)
(10.082214438 0.0884196623083 0)
(10.0798905456 0.0950820313677 0)
(10.0767687683 0.103313913611 0)
(10.0053361145 0.0260750198606 0)
(10.0182345936 0.0421060711804 0)
(10.0316925073 0.0500080363541 0)
(10.0427332113 0.0541435346436 0)
(10.051350141 0.0566933156936 0)
(10.0581366513 0.0586253532042 0)
(10.063581055 0.0603858071248 0)
(10.0680135855 0.0621876422843 0)
(10.0716339955 0.0641410828879 0)
(10.0745506997 0.0663171208849 0)
(10.0768120872 0.0687807384278 0)
(10.0784304768 0.0716089186625 0)
(10.0794012261 0.0749026793932 0)
(10.0797210397 0.07879677269 0)
(10.0794101446 0.0834676785084 0)
(10.0785417214 0.0891340387387 0)
(10.0772888471 0.0960395892286 0)
(10.0756546573 0.104382019742 0)
(10.0040801354 0.0225235956601 0)
(10.0147020168 0.0378709754013 0)
(10.0265986619 0.0462650277847 0)
(10.0369093026 0.0509875009694 0)
(10.0452428636 0.0540137729182 0)
(10.0519572595 0.0563157204369 0)
(10.0574335939 0.0583709492427 0)
(10.0619558845 0.0604230548388 0)
(10.0657073382 0.0626071311804 0)
(10.0687959161 0.0650129314486 0)
(10.0712794613 0.067718501005 0)
(10.0731869975 0.070808496189 0)
(10.0745370438 0.0743852934195 0)
(10.0753555019 0.0785759035229 0)
(10.0756956213 0.0835348085845 0)
(10.0756611115 0.0894384762805 0)
(10.0754356653 0.0964672751868 0)
(10.0751349257 0.104749738446 0)
(10.0031247921 0.0195363539221 0)
(10.0118743199 0.0339628769 0)
(10.0223074216 0.0425838980234 0)
(10.0318386418 0.0477656169379 0)
(10.0398297182 0.0512129192026 0)
(10.0464329899 0.0538601078616 0)
(10.0519219601 0.0561986870104 0)
(10.0565304201 0.0584941623151 0)
(10.0604215943 0.0609013396232 0)
(10.0637004385 0.0635249560526 0)
(10.0664322291 0.0664527108685 0)
(10.0686605846 0.06977314424 0)
(10.0704240577 0.0735855037589 0)
(10.0717723182 0.0780041604083 0)
(10.0727827268 0.0831578976457 0)
(10.073577297 0.089181348245 0)
(10.0743373125 0.0961975935465 0)
(10.0752528308 0.104270978267 0)
(10.0023992818 0.0170060550772 0)
(10.0096237181 0.0303825119051 0)
(10.0187255973 0.038998726448 0)
(10.0274643639 0.0444995744535 0)
(10.0350700194 0.0482965693936 0)
(10.0415289088 0.0512521481975 0)
(10.0470129899 0.0538533666381 0)
(10.0517042262 0.0563778573053 0)
(10.0557432529 0.0589940435193 0)
(10.0592295557 0.061817348776 0)
(10.0622334433 0.0649413723851 0)
(10.0648103059 0.0684548798865 0)
(10.0670146952 0.0724501708602 0)
(10.0689139431 0.0770257218289 0)
(10.0706008246 0.0822832522688 0)
(10.0722048993 0.0883184454235 0)
(10.0738946673 0.0952056150381 0)
(10.0759149841 0.102958990434 0)
(10.0018473278 0.0148490867409 0)
(10.0078401928 0.0271270080742 0)
(10.0157616655 0.0355510069127 0)
(10.0237274368 0.0412290827349 0)
(10.0309236112 0.0452900824778 0)
(10.03721335 0.0485019788965 0)
(10.0426784618 0.0513311131407 0)
(10.0474500694 0.0540574038665 0)
(10.0516445352 0.0568565589273 0)
(10.0553535226 0.0598499580678 0)
(10.0586496369 0.0631332244244 0)
(10.0615966434 0.0667917418681 0)
(10.0642605194 0.0709078996995 0)
(10.0667199865 0.0755621755544 0)
(10.0690752303 0.0808298666138 0)
(10.0714546081 0.0867722050906 0)
(10.0740064809 0.0934246535638 0)
(10.0770174403 0.100766732368 0)
(10.0014595956 0.013114011712 0)
(10.0065483401 0.0243732291362 0)
(10.0135292459 0.0324942895557 0)
(10.0208264771 0.0382234076211 0)
(10.0276420085 0.0424533465326 0)
(10.0337636213 0.0458538025546 0)
(10.0392040281 0.0488598637159 0)
(10.0440505445 0.0517451349699 0)
(10.0483963517 0.0546864620434 0)
(10.0523238141 0.057806614559 0)
(10.0559048939 0.0611998929546 0)
(10.0592075589 0.0649461425999 0)
(10.0623036208 0.0691165063969 0)
(10.0652765665 0.0737748315724 0)
(10.0682270479 0.0789734679198 0)
(10.0712763506 0.0847469720654 0)
(10.0745514433 0.091102969572 0)
(10.0783726547 0.0980004051849 0)
(10.0011571146 0.0116068261926 0)
(10.0055095056 0.0218673682312 0)
(10.0116783868 0.0295777434023 0)
(10.0183607673 0.0352419659336 0)
(10.0248051921 0.0395545380113 0)
(10.0307522583 0.0430838808385 0)
(10.03615919 0.0462233564926 0)
(10.0410741183 0.0492318141907 0)
(10.0455678744 0.0522811810466 0)
(10.0497125521 0.0554914950313 0)
(10.0535775229 0.0589528483243 0)
(10.0572319361 0.0627373467754 0)
(10.0607501096 0.0669045804523 0)
(10.0642162495 0.071502324781 0)
(10.0677273333 0.076563403947 0)
(10.0713944273 0.0821007537826 0)
(10.0753223906 0.0881017009969 0)
(10.0798638487 0.0945114313049 0)
(10.0008942065 0.0100769681971 0)
(10.0045862451 0.0192281236983 0)
(10.0099879799 0.0263804148112 0)
(10.0160567723 0.0318569581009 0)
(10.0221141622 0.036169370039 0)
(10.0278758444 0.0397749777017 0)
(10.0332525801 0.0430123864885 0)
(10.0382544441 0.0461153862338 0)
(10.042927948 0.0492440461314 0)
(10.0473321157 0.0525105481034 0)
(10.0515302275 0.0559969738708 0)
(10.0555892141 0.0597648058032 0)
(10.0595814953 0.0638602567387 0)
(10.0635871813 0.0683140239798 0)
(10.067694506 0.0731403974894 0)
(10.0719994686 0.0783331946646 0)
(10.0765812967 0.0838636592628 0)
(10.0818208725 0.0896683694539 0)
(10.0006769123 0.00853676784339 0)
(10.0038097403 0.0164801427026 0)
(10.0085287724 0.0229151880264 0)
(10.0140225014 0.028045424278 0)
(10.0197015342 0.0322289111614 0)
(10.0252794711 0.0358127921564 0)
(10.0306337622 0.0390712831234 0)
(10.0357409432 0.0422031401485 0)
(10.0406229636 0.0453480858419 0)
(10.0453230805 0.048604373692 0)
(10.0498949471 0.0520411747655 0)
(10.0543985975 0.055706814116 0)
(10.0588995397 0.0596319051858 0)
(10.0634684988 0.0638311243452 0)
(10.0681799044 0.0683017392875 0)
(10.0731106164 0.0730232301516 0)
(10.0783123093 0.0779559190936 0)
(10.0841914122 0.0830344525525 0)
(10.0005099779 0.0069726420526 0)
(10.0032053166 0.0136043709982 0)
(10.0073686151 0.0191507516964 0)
(10.0123756568 0.0237475502164 0)
(10.0177274311 0.0276345162979 0)
(10.0231527666 0.031057443164 0)
(10.0285099578 0.0342209687261 0)
(10.0337489423 0.0372796006332 0)
(10.0388686572 0.0403441134771 0)
(10.0438948622 0.0434918165476 0)
(10.0488679026 0.046774542412 0)
(10.0538362481 0.0502243745499 0)
(10.058853469 0.0538564545754 0)
(10.0639758961 0.057670529295 0)
(10.0692601379 0.061651133989 0)
(10.0747616739 0.0657682458508 0)
(10.080504936 0.0699779860996 0)
(10.086918906 0.0742185370583 0)
(10.0003965722 0.00534193047292 0)
(10.0027937769 0.0105311431077 0)
(10.0065698147 0.0149980012046 0)
(10.0112342945 0.0188466847335 0)
(10.0163636211 0.0222314185229 0)
(10.0217089996 0.0253098296525 0)
(10.0271207423 0.0282165909563 0)
(10.032530092 0.0310553284779 0)
(10.0379161559 0.0339007832787 0)
(10.0432870207 0.0368032479351 0)
(10.0486672056 0.0397936310932 0)
(10.0540901058 0.0428863401028 0)
(10.059593342 0.0460821022256 0)
(10.065215642 0.0493687293064 0)
(10.0709939191 0.0527229532031 0)
(10.0769622181 0.0561110071264 0)
(10.0831204981 0.059490884571 0)
(10.0899148661 0.0628095143196 0)
(10.0003407618 0.00355399892177 0)
(10.0025996643 0.00710231940542 0)
(10.0062023411 0.0102581548599 0)
(10.0107311259 0.0131126019117 0)
(10.0158071764 0.0157556204609 0)
(10.0211983056 0.0182679564327 0)
(10.0267520564 0.0207155329595 0)
(10.0323878701 0.0231477475216 0)
(10.0380698482 0.0255984209875 0)
(10.0437904594 0.0280874497355 0)
(10.0495584703 0.0306227173313 0)
(10.0553911231 0.0332015063269 0)
(10.0613090963 0.0358118528084 0)
(10.0673333102 0.0384335944268 0)
(10.0734822722 0.0410396448078 0)
(10.0797717383 0.0435972732683 0)
(10.0861830472 0.0460697132676 0)
(10.0931761328 0.0484149779978 0)
(10.000359687 0.00141830867115 0)
(10.00268841 0.00297684483734 0)
(10.0064081027 0.00450440417803 0)
(10.0110963573 0.00607751704996 0)
(10.0163717115 0.00772013738662 0)
(10.0220007152 0.00943240092965 0)
(10.0278281574 0.0112070117357 0)
(10.0337685042 0.0130350185326 0)
(10.0397782838 0.0149069091038 0)
(10.0458400273 0.0168114389689 0)
(10.0519505677 0.0187347759616 0)
(10.058113606 0.0206596563338 0)
(10.0643351719 0.0225653709136 0)
(10.0706209838 0.0244279014871 0)
(10.0769744758 0.0262206441574 0)
(10.083397078 0.0279151795182 0)
(10.0898567869 0.0294822743919 0)
(10.0968169392 0.0308911464949 0)
(10.0004818037 -0.000784972390881 0)
(10.003146583 -0.00126033281765 0)
(10.0073431834 -0.00136484268543 0)
(10.0125367405 -0.00105360347945 0)
(10.018283018 -0.000386868991695 0)
(10.0243282974 0.000545986756584 0)
(10.0305199221 0.00166353783754 0)
(10.0367816668 0.0029028384155 0)
(10.0430778595 0.0042169212625 0)
(10.049394606 0.00556994082143 0)
(10.0557280347 0.00693226930671 0)
(10.0620777752 0.00827790528523 0)
(10.0684437256 0.00958200674031 0)
(10.0748244602 0.0108205383266 0)
(10.0812162017 0.0119696859713 0)
(10.0876136934 0.0130065876185 0)
(10.0939793847 0.0139094275081 0)
(10.1007761984 0.0146572459135 0)
(10.0006634385 -0.00287159944685 0)
(10.0038263143 -0.0051912126169 0)
(10.0086952411 -0.00666880642638 0)
(10.0145508086 -0.00733863808351 0)
(10.0208599971 -0.00738559704318 0)
(10.0273535646 -0.00700438388272 0)
(10.0338962035 -0.00634815979222 0)
(10.0404351528 -0.00552439212705 0)
(10.0469536048 -0.00460614097355 0)
(10.0534493466 -0.0036435133995 0)
(10.0599241215 -0.00267340145623 0)
(10.0663789669 -0.00172510773088 0)
(10.0728125822 -0.000823905024937 0)
(10.0792210315 7.56764164171e-06 0)
(10.0855977211 0.000748283979815 0)
(10.0919351082 0.00137907706776 0)
(10.0981945857 0.00188272190895 0)
(10.1048413464 0.00224376567107 0)
(10.0009453779 -0.00512836434962 0)
(10.0048502092 -0.00929583068487 0)
(10.010646784 -0.0119884434 0)
(10.0173374208 -0.0134200911123 0)
(10.0242921481 -0.0139704512459 0)
(10.0312531088 -0.0139639368544 0)
(10.0381288484 -0.0136251198301 0)
(10.0449077178 -0.013097591713 0)
(10.0516020892 -0.0124709797784 0)
(10.0582275273 -0.0118025952186 0)
(10.0647951584 -0.0111309343811 0)
(10.0713097909 -0.0104845219985 0)
(10.0777704563 -0.00988611077748 0)
(10.084171847 -0.00935573003626 0)
(10.0905054306 -0.0089112257857 0)
(10.096762048 -0.00856911497377 0)
(10.1029025728 -0.00834378618216 0)
(10.1093917538 -0.00824764881498 0)
(10.0013741961 -0.00768150017791 0)
(10.0063386762 -0.0137016050119 0)
(10.0133365227 -0.0173966650728 0)
(10.0209964214 -0.0193348228489 0)
(10.0286245335 -0.0201717559777 0)
(10.0360272834 -0.0203736799885 0)
(10.0431906053 -0.0202263021708 0)
(10.0501600206 -0.0198958305896 0)
(10.0569836407 -0.0194779367789 0)
(10.0636974073 -0.0190287927755 0)
(10.0703226999 -0.0185833758453 0)
(10.0768684866 -0.0181656302863 0)
(10.0833343173 -0.0177941180687 0)
(10.0897134752 -0.0174847998747 0)
(10.0959952221 -0.0172527248309 0)
(10.102168352 -0.0171125686371 0)
(10.1081935631 -0.0170786304018 0)
(10.1145370658 -0.0171640242513 0)
(10.0020223877 -0.0106756025846 0)
(10.0084620752 -0.0184924705056 0)
(10.0169360462 -0.0228855549303 0)
(10.025638515 -0.0250402224241 0)
(10.0339074246 -0.0259519519915 0)
(10.0416870917 -0.0262153695391 0)
(10.0490721609 -0.0261545897324 0)
(10.0561749206 -0.0259412776051 0)
(10.0630810322 -0.0256653096322 0)
(10.0698459139 -0.0253740747533 0)
(10.0765000508 -0.0250938318873 0)
(10.0830554321 -0.024840701754 0)
(10.08951128 -0.0246266458712 0)
(10.0958584052 -0.0244622082155 0)
(10.1020822175 -0.0243585976537 0)
(10.1081671031 -0.0243288734922 0)
(10.1140699134 -0.0243893105285 0)
(10.1202501731 -0.0245575168875 0)
(10.0029962024 -0.0142861665437 0)
(10.0114376494 -0.0237045346049 0)
(10.0216237489 -0.0283903171873 0)
(10.0313565717 -0.0304657949245 0)
(10.0401752574 -0.0312704193158 0)
(10.0482388706 -0.0314837689773 0)
(10.0557701784 -0.0314397120445 0)
(10.0629496827 -0.0312996658311 0)
(10.0698977646 -0.0311392299149 0)
(10.0766863939 -0.0309924213954 0)
(10.0833527433 -0.0308740031149 0)
(10.0899103112 -0.0307905040537 0)
(10.0963569082 -0.0307454767213 0)
(10.1026801157 -0.0307419896458 0)
(10.108860303 -0.0307843404024 0)
(10.114874388 -0.0308812802423 0)
(10.120672037 -0.0310513010094 0)
(10.1267158859 -0.0313287442391 0)
(10.0044423027 -0.0187234742266 0)
(10.0155215111 -0.0293042096866 0)
(10.0275612302 -0.0338017139272 0)
(10.0382141828 -0.0355345338752 0)
(10.047445778 -0.0360845961374 0)
(10.0556832093 -0.0361428502217 0)
(10.0632775776 -0.0360177160966 0)
(10.0704701597 -0.0358436564724 0)
(10.0774096696 -0.0356749784638 0)
(10.0841800354 -0.0355308848093 0)
(10.0908223864 -0.035416643082 0)
(10.0973503391 -0.0353325175519 0)
(10.1037602133 -0.0352777377175 0)
(10.110037135 -0.0352509668338 0)
(10.1161566096 -0.0352506862797 0)
(10.1220845327 -0.0352785580309 0)
(10.127746956 -0.0353495264444 0)
(10.1335449542 -0.0355133990373 0)
(10.006547338 -0.024228066166 0)
(10.0209832164 -0.0351515580494 0)
(10.0348552763 -0.0389739559151 0)
(10.0462241459 -0.0402437030778 0)
(10.0557081579 -0.0406053777826 0)
(10.0640104112 -0.0406866168083 0)
(10.0715914635 -0.0407300160433 0)
(10.0787381837 -0.0408133381376 0)
(10.0856164787 -0.0409466311167 0)
(10.0923143737 -0.0411170727971 0)
(10.0988717619 -0.0413078182084 0)
(10.1052994624 -0.0415048190233 0)
(10.1115912917 -0.0416977542209 0)
(10.1177313604 -0.0418778757738 0)
(10.1236944782 -0.0420346317189 0)
(10.129440743 -0.0421542913413 0)
(10.1348733229 -0.0422301177685 0)
(10.1403519726 -0.0423166422647 0)
(10.0094635017 -0.0311470772216 0)
(10.0278465372 -0.0410563858506 0)
(10.0429964975 -0.0432735445347 0)
(10.0543186457 -0.043217312171 0)
(10.0632271698 -0.0425105076535 0)
(10.0706704313 -0.0417649488863 0)
(10.0772024593 -0.0411987123367 0)
(10.0831512142 -0.0408561582619 0)
(10.0887007986 -0.0407120060967 0)
(10.0939478132 -0.040720358498 0)
(10.09893768 -0.0408355025497 0)
(10.1036868777 -0.041019392636 0)
(10.1081971022 -0.0412417233544 0)
(10.112464081 -0.0414765276908 0)
(10.1164792019 -0.0416952299531 0)
(10.1202204779 -0.041853994603 0)
(10.1235802898 -0.0418751421413 0)
(10.1266613487 -0.0416597849351 0)
(10.0094371144 -0.0395970207956 0)
(10.0263835562 -0.0503109300411 0)
(10.034063509 -0.053392590856 0)
(10.0348478616 -0.0539214028463 0)
(10.0313052762 -0.0534235864489 0)
(10.0249162877 -0.0525932596283 0)
(10.0166014534 -0.0517403509384 0)
(10.0069635562 -0.0509846016581 0)
(9.99640004308 -0.0503565264244 0)
(9.9851773924 -0.0498485907799 0)
(9.97347911011 -0.0494402510524 0)
(9.96143613784 -0.0491090095511 0)
(9.94914707962 -0.048833667451 0)
(9.93669335813 -0.0485937403395 0)
(9.92415073255 -0.0483642775362 0)
(9.91160226254 -0.0480989469076 0)
(9.8991071291 -0.0476804804616 0)
(9.88671730023 -0.0465828478416 0)
(9.84308727032 -0.0221941177623 0)
(9.70438249168 -0.0284756515684 0)
(9.56282933021 -0.0310304926013 0)
(9.42333081844 -0.0321013340376 0)
(9.28821706819 -0.0324088603729 0)
(9.1584126333 -0.0323345627457 0)
(9.03428517477 -0.0320790682009 0)
(8.91591150948 -0.0317447397365 0)
(8.80319608939 -0.031381847919 0)
(8.69594703166 -0.0310137115941 0)
(8.59392344805 -0.0306503545073 0)
(8.4968640872 -0.0302955087168 0)
(8.40450616601 -0.029949539016 0)
(8.31659881309 -0.0296105058185 0)
(8.23291472374 -0.0292729649419 0)
(8.15327136074 -0.0289197736266 0)
(8.07767591833 -0.028488012452 0)
(8.00492046749 -0.0275092177516 0)
(0.0301307552838 -0.082621245757 2.1988038784e-19)
(0.0255140833145 -0.0384699573422 0)
(-0.0666160055979 0.0847016135625 0)
(-0.155298345829 0.132111192133 0)
(-0.249783133012 0.14761242977 0)
(-0.356138726826 0.154301556758 -3.71033818869e-20)
(-0.472885582617 0.157858200681 0)
(-0.596640651893 0.159750021332 0)
(-0.72530847637 0.160475062837 2.28343074968e-20)
(-0.857497393069 0.160302139042 0)
(-0.992158154884 0.159413795327 -1.92052306189e-20)
(-1.12845922612 0.157949398886 0)
(-1.26572832361 0.156022316267 -1.73631187735e-20)
(-1.40341323606 0.15372782671 -1.68312088048e-20)
(-1.5410606832 0.151146974221 0)
(-1.67829788047 0.148349032206 1.62572173858e-20)
(-1.81482164816 0.145393085966 1.61451558402e-20)
(-1.950387002 0.142329310902 1.61176138357e-20)
(-2.0848004805 0.139200128309 0)
(-2.21791170285 0.13604113274 0)
(-2.34960840469 0.132882042005 0)
(-2.47981009429 0.129747298818 0)
(-2.60846475587 0.126657014249 0)
(-2.73554355421 0.123627328716 0)
(-2.86103829086 0.120671120454 -1.72459740629e-20)
(-2.98495715904 0.11779819042 -1.7511336867e-20)
(-3.1073226575 0.115015926581 0)
(-3.22816822909 0.11232916098 1.80814310548e-20)
(-3.34753679007 0.109740719789 1.8381849383e-20)
(-3.46547761582 0.107251232994 1.86902178458e-20)
(-3.58204475228 0.104859698218 0)
(-3.697294414 0.102563005972 0)
(-3.81128385577 0.100356460207 -1.96491020044e-20)
(-3.92406841093 0.0982333825256 0)
(-4.03569968072 0.0961855618613 0)
(-4.14622300541 0.0942025269368 -2.06347418027e-20)
(-4.25567581449 0.0922720875906 0)
(-4.36408407532 0.0903795477789 0)
(-4.47145962134 0.0885079994589 0)
(-4.57779543216 0.086637715902 0)
(-4.68306209376 0.0847466897798 0)
(-4.78720357823 0.08280940305 4.51218603763e-20)
(-4.89013240844 0.0807969740155 0)
(-4.99172084169 0.0786769222885 0)
(-5.09179310181 0.0764140628332 4.68233982852e-20)
(-5.19011744817 0.0739705062915 4.73236859187e-20)
(-5.28640001941 0.0713061186595 0)
(-5.38027750005 0.0683720643663 0)
(-5.47129540841 0.0651096187524 4.85196810372e-20)
(-5.55887235735 0.0614550801818 0)
(-5.64228524931 0.0573563033415 -4.89621500206e-20)
(-5.72068819942 0.0527713287377 0)
(-5.79314991938 0.0476602280005 4.89979939943e-20)
(-5.85866636747 0.0419880908439 0)
(-5.91615501899 0.0357339182416 4.85085501935e-20)
(-5.96444129913 0.0288794776334 4.80263997574e-20)
(-6.00229838314 0.0214236544699 0)
(-6.02849064983 0.0133934664469 0)
(-6.04183524148 0.00482362418084 0)
(-6.04124714006 -0.00425495388063 4.39849364901e-20)
(-6.02595257892 -0.0137951323402 0)
(-5.99516041777 -0.0237240734227 0)
(-5.94823838252 -0.0339490029465 0)
(-5.88475350759 -0.0443490304801 0)
(-5.80451817185 -0.0547720451969 0)
(-5.70763330859 -0.065038989632 0)
(-5.59451448766 -0.0749516224623 0)
(-5.46590397929 -0.0843048493885 -2.30456283822e-20)
(-5.32285598957 -0.0928999194579 0)
(-5.1667092757 -0.100557018941 -1.5005900688e-20)
(-4.99903538836 -0.107126548733 -1.05854011562e-20)
(-4.82158438221 -0.112496685544 0)
(-4.63621436423 -0.116598397887 9.758023365e-22)
(-4.44483184537 -0.119403802591 0)
(-4.24932512404 -0.120925386175 9.63437848415e-21)
(-4.05151029096 -0.121214146129 0)
(-3.85307760904 -0.120353817166 -2.12582065622e-20)
(-3.65557219898 -0.118445792931 2.74716901145e-20)
(-3.46035722386 -0.115610150252 0)
(-3.26859822102 -0.111988144655 0)
(-3.08125486759 -0.107719548406 0)
(-2.89910490317 -0.102927290381 0)
(-2.72270542068 -0.0977638413796 6.3369493602e-20)
(-2.55238398594 -0.0924019171236 -7.17498672565e-20)
(-2.38839373107 -0.0868790023644 1.61288119625e-19)
(-2.23102682201 -0.0811386498409 1.80231506732e-19)
(-2.080136146 -0.0753644513178 2.00487878732e-19)
(-1.93500478056 -0.0698811232579 0)
(-1.79540517758 -0.0645859132087 0)
(-1.662136751 -0.0590311386539 0)
(-1.5351398781 -0.053246378722 2.99619297505e-19)
(-1.41240646371 -0.047815093596 0)
(-1.29255437752 -0.0431137207463 0)
(-1.17734183006 -0.038650808684 4.04318494393e-19)
(-1.06939895397 -0.0340691392301 0)
(-0.966561514902 -0.0298278539654 -4.99720744866e-19)
(-0.864595657912 -0.0270634978818 0)
(-0.761260690231 -0.0260779235041 6.32885269816e-19)
(-0.659808707238 -0.0271790094702 0)
(-0.566673331128 -0.0285399623094 0)
(-0.483033665975 -0.0282547176542 0)
(-0.401617657526 -0.0265303635638 1.13748402413e-18)
(-0.318453169612 -0.0245159063722 0)
(-0.234408464395 -0.022027665652 1.73844735615e-18)
(-0.152133471186 -0.019268207267 2.32996484523e-18)
(-0.0705697976064 -0.016482229567 0)
(0.00634432176664 -0.0100477399787 0)
(0.0640111467432 -0.0057407613677 0)
(0.124740788597 -0.00497099087369 2.59375204064e-18)
(0.183948368502 -0.0049578924021 0)
(0.240424803471 -0.0052156047007 0)
(0.294462942907 -0.0055511340521 1.47493986221e-18)
(0.346481439186 -0.00589855617358 1.30038568518e-18)
(0.39681377172 -0.00622247792589 0)
(0.44577630791 -0.00652359833176 -1.05912048882e-18)
(0.493597020629 -0.00679833402893 -9.71791958715e-19)
(0.54049739974 -0.00705814130736 8.98861856924e-19)
(0.586633133764 -0.00730433855762 0)
(0.63216572089 -0.00754659635181 0)
(0.677217372354 -0.00778379668318 0)
(0.721924052332 -0.00801828706909 -6.96403742535e-19)
(0.766385491293 -0.00824423664699 0)
(0.810691744782 -0.00846176453468 -6.27439996764e-19)
(0.854881505174 -0.00866489316533 0)
(0.898994663995 -0.00885513511756 0)
(0.943040575646 -0.00902619204767 0)
(0.987048056896 -0.00917734463654 5.25247286141e-19)
(1.03102104638 -0.0093010639588 5.05024311349e-19)
(1.07497593654 -0.00939563711848 0)
(1.11889913108 -0.00945401402313 0)
(1.16278366595 -0.00947471875671 0)
(1.20659323335 -0.0094518961748 0)
(1.25029682485 -0.00938470177301 0)
(1.29383720437 -0.00926870136769 0)
(1.33716200955 -0.00910380079251 8.01520938677e-19)
(1.3801963605 -0.00888704557988 0)
(1.42287003304 -0.00861913924144 0)
(1.46509355699 -0.00829888788609 0)
(1.50678218338 -0.00792817138868 -7.23125873297e-19)
(1.54783898329 -0.00750738640745 -7.06888410671e-19)
(1.58817544507 -0.00703816785047 6.91818115258e-19)
(1.6276985575 -0.00652178340225 6.77850235694e-19)
(1.66631519185 -0.00596051899766 0)
(1.70392367078 -0.00535783011321 0)
(1.74041986982 -0.00471914195502 0)
(1.77569895164 -0.00405058898708 6.31786210306e-19)
(1.80966212882 -0.00336231257185 0)
(1.84221195044 -0.00266247267497 0)
(1.87326382143 -0.0019519742926 -6.06262892587e-19)
(1.90274821822 -0.00123133532795 0)
(1.93061099075 -0.000505658571698 -5.9293126791e-19)
(1.95680760473 0.000217212120599 0)
(1.98130740732 0.00092791246509 -5.82184202294e-19)
(2.00409239379 0.00161707518258 0)
(2.0251611176 0.00227571407341 0)
(2.04452581575 0.00289587965884 0)
(2.06221516169 0.00346969836435 0)
(2.07827151948 0.00398928387567 0)
(2.09275128793 0.00444765969295 0)
(2.10571871003 0.00483912217521 0)
(2.11724516637 0.0051587453539 0)
(2.12740443197 0.00540250489925 -5.57907856014e-19)
(2.13627450831 0.00556699978021 0)
(2.14393507856 0.0056441834124 0)
(2.15047342328 0.00563067735944 -5.55787395989e-19)
(2.15597680649 0.00553383246662 0)
(2.16060832564 0.00537046871716 0)
(2.16450625042 0.00518035341399 -5.55262741321e-19)
(2.16744513913 0.005010972282 0)
(2.16915655628 0.00490198211904 0)
(2.16929253898 0.00489629088363 -5.56982003665e-19)
(2.16739359441 0.00504415511356 5.58513834036e-19)
(2.16285515707 0.00539653513149 -5.60775172275e-19)
(2.15487683791 0.00601323810754 0)
(2.14236841061 0.00698410893266 0)
(2.12381104244 0.00843852917763 -1.14947899937e-18)
(2.09705542715 0.0105769761064 0)
(2.05881582935 0.0137478489982 1.19117537383e-18)
(2.00724097522 0.0184726947038 1.22598151801e-18)
(1.86502731081 0.0281235610919 0)
(-0.0455639174309 0.0714002962203 -3.20571842451e-19)
(-0.141344546157 0.184810431915 0)
(-0.243588981898 0.256458226752 8.08137592538e-20)
(-0.347289879821 0.3058717473 -6.31027725623e-20)
(-0.45228490809 0.337727056481 -5.24632824732e-20)
(-0.564909834673 0.359013741266 2.23236963834e-20)
(-0.684911561418 0.373659806901 4.00234687867e-20)
(-0.810220862498 0.383678862718 0)
(-0.939378228112 0.390203445881 -1.64711100772e-20)
(-1.07123017336 0.393967443587 3.16609662675e-20)
(-1.2048537331 0.395494162269 4.50870285155e-20)
(-1.33950298689 0.395185629277 -2.93270370121e-20)
(-1.4745723733 0.393367209683 4.27339821974e-20)
(-1.60956796743 0.390311210938 1.38553356456e-20)
(-1.7440888372 0.386249702976 0)
(-1.87781078436 0.38138229152 -1.37990100665e-20)
(-2.0104752035 0.375881084242 -1.3879413245e-20)
(-2.14187831351 0.369894269807 -1.40141120384e-20)
(-2.27186373993 0.363549077213 2.89130990931e-20)
(-2.40031470709 0.356954150494 0)
(-2.52714865386 0.350201849384 2.97867462253e-20)
(-2.65231121079 0.343369992191 0)
(-2.77577249842 0.336523877226 -3.08591912529e-20)
(-2.89752264478 0.329717591134 0)
(-3.01756889357 0.322995644574 4.79066479989e-20)
(-3.13593189044 0.316393839972 -1.65435409869e-20)
(-3.252643737 0.309940548741 -3.33754622988e-20)
(-3.3677453827 0.303657072461 -5.09136122643e-20)
(-3.48128503261 0.297558673699 -1.72131720883e-20)
(-3.59331572353 0.291654634761 -1.7573417341e-20)
(-3.70389421697 0.285949076619 0)
(-3.81307924728 0.280440606584 -3.68948889622e-20)
(-3.92093037692 0.275123026653 1.86755931436e-20)
(-4.02750592679 0.269984813968 0)
(-4.13286171808 0.26500956622 0)
(-4.23704902965 0.260174987687 1.97920723831e-20)
(-4.34011289776 0.255453218315 0)
(-4.4420891846 0.250809387588 0)
(-4.54300123244 0.246201548434 0)
(-4.64285426999 0.241579422117 0)
(-4.74163175622 0.23688434628 0)
(-4.83929129333 0.232046789213 4.44852164994e-20)
(-4.93575672049 0.226986116778 8.97956130035e-20)
(-5.03090689154 0.221609785272 0)
(-5.12456718332 0.215814282735 4.65340890313e-20)
(-5.21649566691 0.209484939314 -4.64693710467e-20)
(-5.30638864208 0.202495029382 0)
(-5.39387406094 0.194693468206 0)
(-5.47847989762 0.185903084211 -1.44688954744e-19)
(-5.5595496947 0.175927636289 -9.75429751779e-20)
(-5.63624439496 0.164595957976 4.85947511344e-20)
(-5.7076031102 0.151755727061 9.86291473998e-20)
(-5.77258031516 0.137264650158 4.99958990996e-20)
(-5.83009537339 0.121016662062 0)
(-5.87888873567 0.102949161084 -1.47212838305e-19)
(-5.91760380992 0.0830262222556 -4.83156379089e-20)
(-5.94482573002 0.0612856685025 0)
(-5.95915729326 0.0378365990207 9.56788801022e-20)
(-5.95923190751 0.0127992284933 -9.35917357618e-20)
(-5.94471285785 -0.0136485763584 -4.46138088708e-20)
(-5.91504150249 -0.0412986972135 0)
(-5.86951488497 -0.0699570122123 0)
(-5.80759015788 -0.0993518691375 0)
(-5.72893662014 -0.129122299007 7.41244249001e-20)
(-5.63348780296 -0.15881730626 0)
(-5.52148489876 -0.187911833953 -6.23593695148e-20)
(-5.3935017641 -0.215834109471 0)
(-5.25044965836 -0.242004275861 -2.48285165912e-20)
(-5.09355509685 -0.265874875674 0)
(-4.9243199511 -0.286968124278 -1.65111417625e-20)