/*--------------------------------*- C++ -*----------------------------------*\
| =========                 |                                                 |
| \\      /  F ield         | OpenFOAM: The Open Source CFD Toolbox           |
|  \\    /   O peration     | Version:  v1806                                 |
|   \\  /    A nd           | Web:      www.OpenFOAM.com                      |
|    \\/     M anipulation  |                                                 |
\*---------------------------------------------------------------------------*/
FoamFile
{
    version     2.0;
    format      ascii;
    class       volVectorField;
    location    "3";
    object      Ua;
}
// * * * * * * * * * * * * * * * * * * * * * * * * * * * * * * * * * * * * * //

dimensions      [0 1 -1 0 0 0 0];


internalField   nonuniform List<vector> 
12225
(
(0.303626283022 40.608335304 0)
(0.522117540643 15.3787640922 0)
(0.668973566355 14.1628462631 0)
(0.599037834981 13.03267936 0)
(0.554414284094 11.7844618933 0)
(0.519685004292 10.7089553702 0)
(0.47526957503 9.67314134316 0)
(0.439905255672 8.78323395699 0)
(0.39349858747 7.99650568405 0)
(0.355665316536 7.30139322844 0)
(0.357192688489 6.6897954589 0)
(0.387640889753 6.14403651253 0)
(0.492691695529 5.71020097333 0)
(0.678166486927 5.32337467352 0)
(0.867225491508 4.80755226334 0)
(1.20192666531 4.13119630602 0)
(1.66898705971 3.15232486802 0)
(1.97763221523 1.50062471512 0)
(1.50520674783 -21.7543584842 0)
(1.21155305537 -8.60838975143 0)
(0.93151841548 -8.21255866682 0)
(0.94262991892 -7.5635606789 0)
(0.869006767869 -6.96717178637 0)
(0.816031485601 -6.42195025693 0)
(0.757434792761 -5.90582779552 0)
(0.711821830968 -5.43991121866 0)
(0.676539477125 -4.99074385975 0)
(0.667973004917 -4.52757122685 0)
(0.698392174592 -4.03488763843 0)
(0.761039537256 -3.52121336075 0)
(0.8684436435 -2.95230856159 0)
(1.00361066338 -2.52101740923 0)
(1.14030857198 -2.06650384125 0)
(1.32682817238 -1.63732788114 0)
(1.51033504557 -1.35144968338 0)
(1.49537180744 -1.28886501253 0)
(0.929356059205 6.06831195034 0)
(0.918011283979 2.65902830159 0)
(0.858909232236 2.5464961382 0)
(0.822631721089 2.30684047131 0)
(0.758716616627 2.05477406392 0)
(0.72174093265 1.83070026629 0)
(0.680250942944 1.62305460103 0)
(0.654820091096 1.4404262703 0)
(0.638799108434 1.28576045617 0)
(0.642339073015 1.15252757622 0)
(0.671001541443 1.02606940243 0)
(0.722606433069 0.890267103129 0)
(0.802532701036 0.734525934724 0)
(0.898671048975 0.512532252183 0)
(1.00449754769 0.287234725727 0)
(1.1340593156 0.016444796109 0)
(1.23688304084 -0.332479133412 0)
(1.17853032303 -0.777590648776 0)
(0.951312936484 -0.787527147164 0)
(1.02521367877 -0.201061726644 0)
(0.906337718646 -0.233029238372 0)
(0.902653013831 -0.135233539743 0)
(0.848456971993 -0.0640941458158 0)
(0.823434209115 0.0125669017182 0)
(0.789655159251 0.0784643674643 0)
(0.770501194594 0.133200191187 0)
(0.758689252414 0.175581342755 0)
(0.761893556931 0.20258969899 0)
(0.782919319939 0.20829543246 0)
(0.819980588789 0.187680873685 0)
(0.876346787959 0.135306385363 0)
(0.945720709552 0.037546820509 0)
(1.02264089996 -0.084684989389 0)
(1.10361730204 -0.255408859805 0)
(1.14637670745 -0.4925188967 0)
(1.07264534339 -0.780829746035 0)
(0.919258412927 0.203716681093 0)
(1.04248450565 0.253883235287 0)
(0.923128711424 0.2009345018 0)
(0.934379733952 0.20649399158 0)
(0.889009348201 0.195972815231 0)
(0.875698659128 0.191729929179 0)
(0.852507466879 0.183938689965 0)
(0.843739163634 0.174021509203 0)
(0.84054854065 0.159978019835 0)
(0.848824014939 0.139062876961 0)
(0.869969736739 0.107046608928 0)
(0.902234379251 0.061271708776 0)
(0.947022184255 -0.00151804430731 0)
(0.99984344034 -0.0903931419509 0)
(1.05423024072 -0.201592919416 0)
(1.10068584522 -0.346643959463 0)
(1.10749259364 -0.530831174789 0)
(1.03456202296 -0.725109895905 0)
(0.907788970276 0.0524747721602 0)
(1.06512367505 0.165515407307 0)
(0.944051279327 0.132099299554 0)
(0.96847548967 0.144215820921 0)
(0.929836907248 0.145557801728 0)
(0.924671812292 0.149151138749 0)
(0.908439095148 0.147285541558 0)
(0.906163764262 0.140419208636 0)
(0.907997046742 0.12648712603 0)
(0.918846785602 0.10364602085 0)
(0.939296357472 0.069229405108 0)
(0.967415232747 0.0216975757247 0)
(1.00318017995 -0.0411684694467 0)
(1.04252734128 -0.124938914579 0)
(1.07845606434 -0.229311923904 0)
(1.10037125533 -0.358169549527 0)
(1.08672032852 -0.508450410347 0)
(1.01952794939 -0.650826600315 0)
(0.904029519233 0.0197853969733 0)
(1.0810608109 0.14488057659 0)
(0.961234388724 0.119739022263 0)
(0.996153095415 0.125642234422 0)
(0.963169566842 0.126338487865 0)
(0.964354649155 0.127997698955 0)
(0.95354571879 0.125343721605 0)
(0.956147886476 0.117905563492 0)
(0.961542977998 0.103745795136 0)
(0.973970221434 0.0810331273234 0)
(0.993303799804 0.0473655999594 0)
(1.01744491735 0.00103681158029 0)
(1.04544069938 -0.0598161310019 0)
(1.07326333936 -0.138636497988 0)
(1.09418635463 -0.235374689654 0)
(1.09892355553 -0.349686217389 0)
(1.07407393996 -0.474380042081 0)
(1.01278126886 -0.585892898036 0)
(0.903768861967 -0.0128354289673 0)
(1.09185036612 0.126919629757 0)
(0.974973792829 0.109338997689 0)
(1.01812875396 0.11153612934 0)
(0.989941590855 0.112051697923 0)
(0.995982788401 0.112308729207 0)
(0.989238619933 0.108842670862 0)
(0.995286075522 0.100665345258 0)
(1.00299813512 0.0859934381673 0)
(1.01603747498 0.0631005238595 0)
(1.03371105017 0.0296797606373 0)
(1.0538356985 -0.0157808980038 0)
(1.07494791305 -0.074700852745 0)
(1.0931188986 -0.148803137533 0)
(1.10241379421 -0.237437087851 0)
(1.0955980298 -0.337955918527 0)
(1.06508004597 -0.442251375925 0)
(1.0101125292 -0.532854142582 0)
(0.904567638041 -0.0409606610998 0)
(1.09863959119 0.114300061062 0)
(0.985572550178 0.1022267818 0)
(1.03501609572 0.10182859508 0)
(1.01079932646 0.101398933279 0)
(1.0204874982 0.0996276828003 0)
(1.0167920053 0.0944562706257 0)
(1.02523814237 0.0848141927347 0)
(1.03429241829 0.0689852824406 0)
(1.04716386063 0.0452639112296 0)
(1.06272888508 0.0116100916163 0)
(1.07889614742 -0.0330515885247 0)
(1.0940087843 -0.089562705825 0)
(1.104314907 -0.158396111135 0)
(1.10490679768 -0.238355357036 0)
(1.09066170169 -0.3258266956 0)
(1.05803328938 -0.413249599052 0)
(1.00843946945 -0.488428436051 0)
(0.903930070065 -0.0569891968971 0)
(1.10185115853 0.112869040364 0)
(0.992537079681 0.103230182859 0)
(1.04674172027 0.101927440711 0)
(1.02577840009 0.100413312591 0)
(1.03825369885 0.0969181162895 0)
(1.0369549382 0.0898554957052 0)
(1.04713749211 0.0781204710222 0)
(1.05686639685 0.060150695377 0)
(1.0690169032 0.0345554272947 0)
(1.0822761796 6.6336628509e-05 0)
(1.09478839787 -0.043978188835 0)
(1.10485937776 -0.0979138383031 0)
(1.10896666175 -0.161564547777 0)
(1.10328403275 -0.233180760718 0)
(1.08458902771 -0.309030982397 0)
(1.05167933006 -0.382613496954 0)
(1.00748984822 -0.445759317381 0)
(0.898688515019 -0.0831151496665 0)
(1.10403897063 0.103459083126 0)
(0.995043552575 0.0888778304312 0)
(1.05334220961 0.0903793312578 0)
(1.03484462181 0.0883156773146 0)
(1.04947077497 0.085375069974 0)
(1.04986083509 0.0781071009609 0)
(1.0610906036 0.0656332222805 0)
(1.07098476378 0.0469150034777 0)
(1.08234568539 0.0211898888251 0)
(1.09362644221 -0.0124199693478 0)
(1.10305768456 -0.0544126747984 0)
(1.10898454395 -0.104807602148 0)
(1.10834614443 -0.162537986301 0)
(1.09841674358 -0.22579907343 0)
(1.07747046933 -0.290730666366 0)
(1.04581374346 -0.352574828852 0)
(1.00617762954 -0.405764450191 0)
(0.870909600797 -0.108611512273 0)
(1.10575205045 0.0915582369214 0)
(0.988035071772 0.0739100182857 0)
(1.05180845181 0.0739952108335 0)
(1.03457752854 0.0687137341798 0)
(1.05093929976 0.0632460778039 0)
(1.05191447296 0.0543573798585 0)
(1.06344619309 0.0410917080793 0)
(1.07325192702 0.0223165781272 0)
(1.08379341528 -0.00258786129256 0)
(1.09321282272 -0.0343020304373 0)
(1.0999815056 -0.0730737924891 0)
(1.10292362671 -0.118513637947 0)
(1.0992871918 -0.169720279441 0)
(1.08723958109 -0.224176231784 0)
(1.06587973161 -0.279406798778 0)
(1.0359219184 -0.331128864718 0)
(1.00041189837 -0.376126111023 0)
(0.847080276368 -0.10761803627 0)
(1.10133854097 0.0909021773617 0)
(0.977643287124 0.0756213600404 0)
(1.04379351648 0.0722707362179 0)
(1.02685168038 0.0643361881787 0)
(1.04428266162 0.0553182097997 0)
(1.04587898906 0.0438827834339 0)
(1.05731106623 0.0288418139423 0)
(1.06627886356 0.00931679555519 0)
(1.07547727853 -0.0155369628119 0)
(1.08312018106 -0.0461309618041 0)
(1.08797105823 -0.0823145332456 0)
(1.08866145602 -0.123696487815 0)
(1.08329064275 -0.169225888034 0)
(1.07038693097 -0.216800448139 0)
(1.04981589282 -0.264235281762 0)
(1.0228543385 -0.308396551853 0)
(0.991896734085 -0.346440610381 0)
(0.819005633776 -0.111315080764 0)
(1.09749666144 0.0880771086405 0)
(0.966680642758 0.0727233411247 0)
(1.03584953421 0.0703263152969 0)
(1.01875945722 0.0625756266671 0)
(1.0366153412 0.0535062096008 0)
(1.03792570727 0.0414527234265 0)
(1.04859400744 0.0258939898275 0)
(1.05622546222 0.00628224725704 0)
(1.06329499018 -0.0178942488229 0)
(1.06833671841 -0.0472076992353 0)
(1.07041538152 -0.0809590135176 0)
(1.06872691207 -0.119223504965 0)
(1.06155432827 -0.159837170185 0)
(1.04826845242 -0.202118748983 0)
(1.02906223221 -0.24304773154 0)
(1.0055304012 -0.281280055787 0)
(0.979200057503 -0.314120505973 0)
(0.784313425934 -0.105424257352 0)
(1.09442131759 0.0805873472821 0)
(0.953191719669 0.0651937547309 0)
(1.02612669556 0.0625889064821 0)
(1.00863182134 0.0542053337442 0)
(1.02708220284 0.0445559147374 0)
(1.02831236052 0.032174226777 0)
(1.03830787523 0.0166586569214 0)
(1.04448302523 -0.00236600582353 0)
(1.04933306492 -0.025378544198 0)
(1.05189058489 -0.0521072962414 0)
(1.05140359624 -0.0825538315314 0)
(1.04757413206 -0.115637907684 0)
(1.03909898451 -0.150799110704 0)
(1.02578340376 -0.186058755493 0)
(1.00832483094 -0.220588138077 0)
(0.988135839971 -0.251973693182 0)
(0.966515686394 -0.280061546665 0)
(0.749294096479 -0.0857877954575 0)
(1.09163666141 0.0705417265205 0)
(0.938203114058 0.0569213296647 0)
(1.01498364331 0.0539172424417 0)
(0.996609746949 0.0453402535149 0)
(1.01546171337 0.0354304784624 0)
(1.01622225081 0.0229704986246 0)
(1.02526803858 0.00761682553931 0)
(1.02985458077 -0.0106771857924 0)
(1.03293247742 -0.0320445067674 0)
(1.03329217142 -0.0559983301124 0)
(1.03107479753 -0.0824589205272 0)
(1.02574455627 -0.110493259528 0)
(1.0167344496 -0.13962622323 0)
(1.00398256939 -0.168475067554 0)
(0.988619694241 -0.196328087434 0)
(0.971557609894 -0.221851121707 0)
(0.953768078941 -0.24482038005 0)
(0.719237095573 -0.0493696753781 0)
(1.09026725187 0.0576465484726 0)
(0.923904865539 0.0458853812101 0)
(1.0036952403 0.0425188398112 0)
(0.983773360243 0.0339534502368 0)
(1.00240308635 0.0243376836445 0)
(1.00218109264 0.0123267348793 0)
(1.00986897801 -0.00189510490833 0)
(1.01290734917 -0.0186147315165 0)
(1.0142654202 -0.0373118078938 0)
(1.01320499646 -0.0580091015581 0)
(1.00968342459 -0.0798324900786 0)
(1.00373255267 -0.102963743919 0)
(0.994697900046 -0.12600215092 0)
(0.983043059657 -0.149067047995 0)
(0.969668291255 -0.170665595977 0)
(0.955482638271 -0.191084342491 0)
(0.940738087809 -0.209162222438 0)
(0.692487886581 -0.013166102914 0)
(1.08927660648 0.0397189677205 0)
(0.911238708865 0.0305444859774 0)
(0.993352314967 0.0271206069355 0)
(0.971260876814 0.0195439666672 0)
(0.989238819613 0.0110903023156 0)
(0.987642988223 0.000755590970051 0)
(0.993772603922 -0.011273612056 0)
(0.995236974662 -0.0251229090608 0)
(0.995246016442 -0.0404290774426 0)
(0.993127760029 -0.0569598066561 0)
(0.988954135598 -0.0743189524379 0)
(0.982913226098 -0.0922320980804 0)
(0.974427751178 -0.110121718292 0)
(0.96406901446 -0.127649739044 0)
(0.952645442082 -0.144307340039 0)
(0.940885694926 -0.159867134362 0)
(0.928735494287 -0.17406823441 0)
(0.682133264983 0.0702907327297 0)
(1.09177280018 0.0220608745385 0)
(0.906701719787 0.0183554103393 0)
(0.989561744551 0.0131887025446 0)
(0.964961717879 0.00652180775259 0)
(0.981641252972 -0.000800384617548 0)
(0.978253005959 -0.00949963363963 0)
(0.982576646068 -0.0190730446946 0)
(0.982283997752 -0.0299183601593 0)
(0.980842228906 -0.0414767108289 0)
(0.9776119946 -0.0539776751187 0)
(0.972787650108 -0.0667822856147 0)
(0.966615171068 -0.0800255738161 0)
(0.95854878339 -0.0930254656314 0)
(0.949146895171 -0.105847382983 0)
(0.939145909316 -0.117914139676 0)
(0.929095776879 -0.129314161958 0)
(0.918869154141 -0.139676677205 0)
(0.720796553722 0.136591982483 0)
(1.09647101264 0.00930148393756 0)
(0.920852988947 0.00932657742675 0)
(0.998003281881 0.00287736884009 0)
(0.971897420937 -0.00266225373094 0)
(0.986077069826 -0.00904901353861 0)
(0.9805030491 -0.0159439828902 0)
(0.982830877828 -0.0236493285546 0)
(0.980841026002 -0.0316403833139 0)
(0.977850965745 -0.0405010323881 0)
(0.973413287143 -0.0495133464182 0)
(0.967750272757 -0.0591596632653 0)
(0.961155475142 -0.0686405548819 0)
(0.953035165736 -0.0783944671203 0)
(0.943924180938 -0.0875476649695 0)
(0.934483951995 -0.0966211507189 0)
(0.925174194785 -0.104737538273 0)
(0.915853398889 -0.11255362489 0)
(0.751227141873 0.150728861662 0)
(1.10243542977 0.00132533822071 0)
(0.935179103781 0.00108205634311 0)
(1.00901687686 -0.00433721505671 0)
(0.98187256754 -0.00876901922058 0)
(0.994420994604 -0.0137070637961 0)
(0.987179119404 -0.0189078377256 0)
(0.988268908374 -0.0245621877107 0)
(0.984908332532 -0.0303599364949 0)
(0.980828014959 -0.0368200024946 0)
(0.975358411476 -0.0433683277384 0)
(0.968957141956 -0.0505871976865 0)
(0.961754399315 -0.0576262782741 0)
(0.953428116987 -0.0650310417888 0)
(0.944192928535 -0.0719375598915 0)
(0.934963024728 -0.0788773050658 0)
(0.92587006754 -0.0850182543716 0)
(0.916999539822 -0.0909770345975 0)
(0.775634207805 0.177342606803 0)
(1.10795408114 -0.00242350908875 0)
(0.948567413503 -0.00230280481712 0)
(1.01980339581 -0.00708387719019 0)
(0.991973394193 -0.0108959846819 0)
(1.00322626408 -0.0148758232598 0)
(0.994913849779 -0.0190584812514 0)
(0.994972327032 -0.0232118148986 0)
(0.990684528327 -0.0277461581053 0)
(0.985738111297 -0.0323560134288 0)
(0.979360220837 -0.0375784262172 0)
(0.972269713101 -0.042725251466 0)
(0.964625341124 -0.0483851397286 0)
(0.955992855737 -0.0537116190096 0)
(0.946678837418 -0.0593222853653 0)
(0.937482088488 -0.0641939286051 0)
(0.928540815165 -0.0692565714173 0)
(0.919754626882 -0.0733705576659 0)
(0.801849898856 0.18817388348 0)
(1.11468024677 -0.00654662206341 0)
(0.962003872234 -0.00393298776047 0)
(1.03089303942 -0.00786525500305 0)
(1.00244741443 -0.0107476883523 0)
(1.01266269522 -0.0138450233581 0)
(1.00345373953 -0.0169007408245 0)
(1.00265211312 -0.0201115317909 0)
(0.997611913275 -0.0234331291332 0)
(0.991798292654 -0.0270486932513 0)
(0.984896061902 -0.030850573391 0)
(0.977247047617 -0.0347862255311 0)
(0.969265789427 -0.0388816333126 0)
(0.960378875439 -0.042955558843 0)
(0.951153481515 -0.0468989795341 0)
(0.941864782657 -0.0506670887749 0)
(0.933028992695 -0.054249041194 0)
(0.924345463601 -0.0576281822424 0)
(0.829529330266 0.185299554549 0)
(1.12223533913 -0.0136497185149 0)
(0.975930253669 -0.00616597431846 0)
(1.04178664902 -0.00972061983356 0)
(1.01278941632 -0.0113986961737 0)
(1.02213056028 -0.0133942707024 0)
(1.01209920852 -0.0154967420135 0)
(1.01057279812 -0.0176812266376 0)
(1.00484584312 -0.0200475534858 0)
(0.998602801686 -0.0226480040885 0)
(0.991248888598 -0.025421307881 0)
(0.983311066443 -0.0283793827195 0)
(0.975116111772 -0.031119740023 0)
(0.966277855993 -0.0340621371202 0)
(0.956938643181 -0.0366051078604 0)
(0.947674295211 -0.0393780554041 0)
(0.938621715695 -0.0417569207899 0)
(0.929931472326 -0.0446353762529 0)
(0.857973449297 0.188140108288 0)
(1.12993487501 -0.0129589674372 0)
(0.990249800749 0.00228481134547 0)
(1.05216690451 -0.0028650337609 0)
(1.02310687253 -0.00382949041445 0)
(1.0315015089 -0.00598116036491 0)
(1.02077075922 -0.00761493809697 0)
(1.01862567496 -0.00929669867575 0)
(1.01237214549 -0.0110371756079 0)
(1.0055874697 -0.0130623809878 0)
(0.997879772963 -0.0152472488086 0)
(0.989898815931 -0.0174060514305 0)
(0.981685987858 -0.0193766658486 0)
(0.972863681636 -0.0211774053063 0)
(0.963585627461 -0.0230025096831 0)
(0.954235878062 -0.024729351866 0)
(0.944840965697 -0.0266785353585 0)
(0.9359639312 -0.0289403412281 0)
(0.89142052972 -0.00834254972689 0)
(1.13536013494 -0.128473578484 0)
(1.00636453976 -0.0948412447362 0)
(1.0621834656 -0.094314657091 0)
(1.03320292546 -0.0857963898772 0)
(1.04068728669 -0.0809592277183 0)
(1.02963452059 -0.0762915281526 0)
(1.02699624625 -0.0728399549589 0)
(1.02023977257 -0.0705456005636 0)
(1.01310619324 -0.069409346789 0)
(1.00525432303 -0.0692852368584 0)
(0.9972683645 -0.0697035672281 0)
(0.98929006365 -0.0696075635621 0)
(0.980579316738 -0.0696350563802 0)
(0.971344950035 -0.0695628332723 0)
(0.961924802353 -0.0693297657957 0)
(0.95221016239 -0.0692841270916 0)
(0.943719112346 -0.0697056802705 0)
(0.959239587888 1.2780039159 0)
(1.15701234169 0.492269845137 0)
(1.03109625907 0.548277333943 0)
(1.0797904876 0.49668348431 0)
(1.05105293631 0.46868922409 0)
(1.0560992362 0.43833914141 0)
(1.04338761259 0.413194322384 0)
(1.03887709536 0.391489699366 0)
(1.03040680664 0.373389120026 0)
(1.021618452 0.358000298406 0)
(1.01218798419 0.344526399431 0)
(1.00355223968 0.332944621154 0)
(0.995194191792 0.323055197581 0)
(0.986024728299 0.314173819359 0)
(0.976517675591 0.305630934678 0)
(0.966514923224 0.296855046608 0)
(0.955607007963 0.287245625312 0)
(0.942745713246 0.277010929011 0)
(0.912043865748 -6.31659084733 0)
(1.07084922916 -2.80801823865 0)
(1.0606613658 -2.72791694557 0)
(1.07988219063 -2.58775413621 0)
(1.05576887911 -2.43739237294 0)
(1.06122008666 -2.30455441698 0)
(1.05131649325 -2.17448285519 0)
(1.0498169244 -2.05577797221 0)
(1.0445592175 -1.94742872962 0)
(1.03878152366 -1.84889017034 0)
(1.03320297446 -1.75863308614 0)
(1.0281325 -1.67540080615 0)
(1.02271617949 -1.59973055295 0)
(1.01618447163 -1.53085271936 0)
(1.00906111412 -1.4679415555 0)
(1.00150124625 -1.41089367141 0)
(0.99393619222 -1.36138193063 0)
(0.996750682966 -1.32398993633 0)
(1.80328218958 21.8101203172 0)
(1.42847239296 9.05934076037 0)
(1.12421760107 8.83694502932 0)
(1.18929416247 8.34335055901 0)
(1.15490924461 7.89729504089 0)
(1.15001784173 7.48115052618 0)
(1.12994274202 7.07678402291 0)
(1.11516473136 6.69662671058 0)
(1.09688113026 6.33905709299 0)
(1.07887379928 6.00129452402 0)
(1.05873543171 5.68139051881 0)
(1.03886010991 5.37812042166 0)
(1.02038747841 5.09180461485 0)
(1.0015804454 4.82155129168 0)
(0.981335743526 4.56652502696 0)
(0.957714978547 4.32890813688 0)
(0.926562052325 4.11422323893 0)
(0.887508179104 3.92817927052 0)
(0.73815427099 -38.1066849819 0)
(0.799532503022 -15.8451857481 0)
(1.0417265519 -15.1087752602 0)
(1.00323134409 -14.4561603848 0)
(0.999405455869 -13.664010682 0)
(1.01165298856 -12.9920218345 0)
(1.00494853435 -12.3010190774 0)
(1.00929545518 -11.657111069 0)
(1.00834080288 -11.0469283631 0)
(1.00586212567 -10.4721976777 0)
(1.00537483159 -9.93057339464 0)
(1.00730577675 -9.42237758006 0)
(1.00879718738 -8.94313163045 0)
(1.00947445962 -8.48623080974 0)
(1.01229427509 -8.04584826022 0)
(1.02110554085 -7.61770350123 0)
(1.03948814762 -7.19749412774 0)
(1.05570180799 -6.76963015211 0)
(0.13975150505 -0.0890447823275 2.60694500779e-19)
(0.0322628214759 -0.175846070647 0)
(-0.0039679166937 -0.253701193419 0)
(-0.00173867265524 -0.268571000089 0)
(0.00261070090493 -0.269934035674 0)
(0.0109730066272 -0.265930379341 -4.22550283755e-20)
(0.0225289537125 -0.260699717639 0)
(0.0362410151624 -0.256348902515 0)
(0.0516324800271 -0.25325520662 2.33961019991e-20)
(0.0681437997206 -0.251657831765 0)
(0.085411706254 -0.251283204035 -1.77860904141e-20)
(0.103042183965 -0.252067918067 0)
(0.120809705633 -0.25364353256 -1.43057498292e-20)
(0.138477263452 -0.255937352857 -1.30369453242e-20)
(0.155910402964 -0.258629331572 0)
(0.172955467468 -0.261685688044 1.10920093114e-20)
(0.189530236445 -0.264849228295 1.03352525908e-20)
(0.205526054468 -0.26812556062 9.69191552246e-21)
(0.220865997317 -0.27132517817 0)
(0.235481696744 -0.274496634898 0)
(0.24932583965 -0.277488967752 0)
(0.262396276606 -0.280391424486 0)
(0.274609976737 -0.283099963347 0)
(0.286024965351 -0.28570306524 0)
(0.296648157644 -0.288148085594 -6.94769474285e-21)
(0.306571789388 -0.290528390199 -6.7032000443e-21)
(0.315830844327 -0.292781209535 0)
(0.324502202358 -0.294990006412 6.2684785044e-21)
(0.332619960207 -0.29710540881 6.07249598519e-21)
(0.340254405263 -0.299193665913 5.89037613311e-21)
(0.347466732384 -0.301196436549 0)
(0.354311051042 -0.303179171175 0)
(0.360798604062 -0.305085612794 -5.39600322559e-21)
(0.366985670769 -0.306959998038 0)
(0.372914068413 -0.30873909701 0)
(0.378609935999 -0.310479890189 -4.96618096577e-21)
(0.384044200704 -0.312113061281 0)
(0.389271687692 -0.313682785813 0)
(0.394274766875 -0.315141738357 0)
(0.399088312824 -0.316525844105 0)
(0.403694410256 -0.317791708555 0)
(0.408121856092 -0.318969812758 8.49392078323e-21)
(0.412356111807 -0.320025465026 0)
(0.41641849711 -0.320983543839 0)
(0.420296623425 -0.321815195898 7.90680328559e-21)
(0.424005187491 -0.322535219668 7.73216181977e-21)
(0.427538575689 -0.323122759955 0)
(0.430898594724 -0.323584972069 0)
(0.434080778794 -0.32389372906 7.27317448105e-21)
(0.437103754453 -0.324060146385 0)
(0.440001430999 -0.324091225861 -7.02310040843e-21)
(0.442866002755 -0.324261792066 0)
(0.445720762152 -0.324915929332 6.81883116454e-21)
(0.448508367778 -0.32620391985 0)
(0.451159949014 -0.328157625863 6.66678411062e-21)
(0.453613799867 -0.330771786722 6.61037811838e-21)
(0.455831776111 -0.334014237807 0)
(0.457784405437 -0.337868144109 0)
(0.459496786861 -0.34231787332 0)
(0.461022250316 -0.34725480296 6.48631396801e-21)
(0.462363192252 -0.352661869794 0)
(0.463495627016 -0.35862087322 0)
(0.464433212817 -0.365188136971 0)
(0.465190381909 -0.372454037709 0)
(0.465757118432 -0.380490030551 0)
(0.466175883933 -0.389402154115 0)
(0.466467903343 -0.399321143583 0)
(0.466645567118 -0.41038228169 -6.82818646658e-21)
(0.466737536365 -0.422739492799 0)
(0.466737062075 -0.436559347139 -7.12514950884e-21)
(0.466670558823 -0.452001967172 -7.31683247905e-21)
(0.466536996935 -0.469268504994 0)
(0.466340706247 -0.488532168887 7.79930866972e-21)
(0.466074625213 -0.509994374632 0)
(0.46576810653 -0.533847210834 -8.43104527595e-21)
(0.465400277186 -0.560352845035 0)
(0.464965990967 -0.589702589122 9.23606087361e-21)
(0.464500317545 -0.622206681581 -9.71205055549e-21)
(0.464026160357 -0.658112164957 0)
(0.463543719259 -0.697767413002 0)
(0.463041162449 -0.741447381149 0)
(0.462550109378 -0.789588720499 0)
(0.462068538556 -0.842574544224 -1.29774572212e-20)
(0.461694933753 -0.900849134588 1.38413232953e-20)
(0.461311659113 -0.9648547317 -2.95787196256e-20)
(0.460997288637 -1.03534778358 -3.16559014934e-20)
(0.460961395755 -1.11334668337 -3.39449128921e-20)
(0.460951367896 -1.19925219485 0)
(0.46089924968 -1.29293341101 0)
(0.45946473339 -1.3977741734 0)
(0.456906489707 -1.51632517795 -4.57178249558e-20)
(0.454237991921 -1.64933209332 0)
(0.450401910424 -1.7949522937 0)
(0.447416042654 -1.96033754491 -5.86191716016e-20)
(0.452102642983 -2.15891414542 0)
(0.466481233253 -2.39948169694 7.15034524025e-20)
(0.475360153425 -2.66735948825 0)
(0.465648799115 -2.94926208395 -9.12364582027e-20)
(0.454322941668 -3.25252254982 0)
(0.464112934256 -3.623622189 0)
(0.477636663123 -4.16151120797 0)
(0.480100871529 -4.91746557009 -1.74391285696e-19)
(0.532743236519 -5.08027166703 0)
(0.633723594579 -4.99517369605 -2.74875217228e-19)
(0.743973251367 -5.12629904846 -3.72388714914e-19)
(0.848880672334 -5.79603490379 0)
(0.893468788915 -6.42891123808 0)
(0.769772884385 -4.87862244743 0)
(0.688360100101 -3.56628338503 -4.25565362538e-19)
(0.644621779668 -2.68831754638 0)
(0.613298814505 -2.05262066089 0)
(0.589302357204 -1.5604002194 -2.48701344767e-19)
(0.570332395113 -1.16158233838 -2.20926038166e-19)
(0.554959140653 -0.827840085612 0)
(0.542274342819 -0.541409011638 1.82303412965e-19)
(0.531638672995 -0.290734513666 1.68230105837e-19)
(0.522707752192 -0.0676465137814 -1.56445686337e-19)
(0.515208653619 0.13350462041 0)
(0.508850649008 0.316980760416 0)
(0.50328683994 0.485800422695 0)
(0.498222055673 0.642336801326 1.23349727423e-19)
(0.493558206898 0.788442251251 0)
(0.489275833746 0.925650037895 1.11969156768e-19)
(0.485419034346 1.05518239367 0)
(0.482009608082 1.17809168917 0)
(0.478989370181 1.29515058084 0)
(0.476282152587 1.40703144901 -9.50284749617e-20)
(0.47382316767 1.5142423387 -9.16684424241e-20)
(0.471563111482 1.61724185848 0)
(0.46947099757 1.71637506199 0)
(0.467521687723 1.81195685891 0)
(0.465701411505 1.90422043933 0)
(0.464002030209 1.99338476671 0)
(0.462422006453 2.07961104157 0)
(0.460961138831 2.16305913858 -1.4874530707e-19)
(0.459613190215 2.24383606618 0)
(0.458392572967 2.32206402303 0)
(0.457316324652 2.39781346578 0)
(0.456362531191 2.47112876725 1.35592904328e-19)
(0.455474562494 2.54201483051 1.3285509857e-19)
(0.454557671374 2.61040378049 -1.3032619624e-19)
(0.453652384529 2.67636698242 -1.27978743094e-19)
(0.452736539775 2.7398087474 0)
(0.451800781363 2.80079056378 0)
(0.450815443105 2.8592364753 0)
(0.449749335469 2.91527050062 -1.20252729349e-19)
(0.448593565175 2.96887100737 0)
(0.447353938182 3.02016202614 0)
(0.446033185236 3.06912224171 1.16038024386e-19)
(0.444633989292 3.11586025819 0)
(0.443134447474 3.16031502751 1.13874560401e-19)
(0.441487310507 3.202620454 0)
(0.439629185461 3.24283086157 1.12162824301e-19)
(0.437476008804 3.28080316675 0)
(0.434877575659 3.31609077429 0)
(0.431637027519 3.34824544787 0)
(0.427492561634 3.37642478527 0)
(0.4221388748 3.39970684624 0)
(0.415213924463 3.41669983828 0)
(0.406338414021 3.42593471831 0)
(0.395163172743 3.42547994928 0)
(0.381344920837 3.41315767011 1.09385267558e-19)
(0.364566925061 3.38631517894 0)
(0.34466365324 3.34242215314 0)
(0.321589249767 3.27889723911 1.10662169758e-19)
(0.295434958394 3.19377521943 0)
(0.266488305676 3.08551223776 0)
(0.235131334233 2.95499411805 1.13577737056e-19)
(0.201550552046 2.80440551125 0)
(0.166557504998 2.63710702224 0)
(0.130905996004 2.4588454214 1.18712685763e-19)
(0.095252931162 2.27797408333 -1.21044712389e-19)
(0.0607922661 2.10489006428 1.23755898566e-19)
(0.0291217202654 1.95509442159 0)
(-0.000826353625545 1.85063537791 0)
(-0.0303088803073 1.80806441514 2.68116087837e-19)
(-0.0553515992058 1.85203527284 0)
(-0.0760631657526 2.0137096374 -2.84214418814e-19)
(-0.0912712061889 2.33764532059 -2.91852527246e-19)
(-0.104052664853 2.89401975533 0)
(-0.241370060921 -0.22615476943 -3.80565775268e-19)
(-0.17603223627 -0.239124328072 0)
(-0.137847796918 -0.228558661004 9.64443339198e-20)
(-0.112180232066 -0.215301797818 -7.48311029768e-20)
(-0.0925446590757 -0.203163053026 -6.13692425587e-20)
(-0.0757366074092 -0.193810087607 2.54239974389e-20)
(-0.0598862811304 -0.186739024399 4.45337638881e-20)
(-0.0439851580126 -0.181553415706 0)
(-0.0275745536311 -0.177749609174 -1.68764431724e-20)
(-0.0107180636949 -0.175246033412 3.11117422772e-20)
(0.00649275840157 -0.173749803287 4.19793227886e-20)
(0.0239287798444 -0.173306287185 -2.59339553663e-20)
(0.04145796992 -0.173717635881 3.55444149671e-20)
(0.0589519053397 -0.175055865735 1.07319518586e-20)
(0.0763114547278 -0.177153850867 0)
(0.0934369207851 -0.180082294575 -9.41483606075e-21)
(0.110260732052 -0.183681739102 -8.88484857779e-21)
(0.126700400429 -0.188018551095 -8.42704148721e-21)
(0.142678578943 -0.1929265436 1.71504900861e-20)
(0.158157215839 -0.198460936103 0)
(0.173065819285 -0.204464702587 1.59148726361e-20)
(0.187383356372 -0.210986141184 0)
(0.201064619835 -0.217869837949 -1.49577946064e-20)
(0.214118576986 -0.225154860259 0)
(0.226531591895 -0.232703444673 2.05763428494e-20)
(0.238381073959 -0.240549187225 -7.68108089584e-21)
(0.249680639392 -0.2485821711 -1.35696402021e-20)
(0.260465031269 -0.2568422119 -1.91390536813e-20)
(0.270770663132 -0.265229523972 -5.68641933184e-21)
(0.280656030815 -0.273783409163 -5.5384115398e-21)
(0.290148454943 -0.282415194226 0)
(0.299272413343 -0.291179042265 -1.23498593049e-20)
(0.308059385049 -0.299989537927 5.12865840711e-21)
(0.316556546475 -0.308897570232 0)
(0.324762982785 -0.317831548709 0)
(0.332707370702 -0.326853614605 4.76337708879e-21)
(0.340387788391 -0.335896681284 0)
(0.347821240373 -0.345013712297 0)
(0.354998543001 -0.354154688329 0)
(0.361945461785 -0.363367099527 0)
(0.368652060153 -0.372617387486 0)
(0.375132218864 -0.381948128639 1.28841566459e-20)
(0.38137787859 -0.391342534142 2.0868556926e-20)
(0.387396984011 -0.400842919409 0)
(0.393183615624 -0.410449403672 1.259557943e-20)
(0.398740203474 -0.420207508308 -7.59258015623e-21)
(0.404058802905 -0.430132944598 0)
(0.409144391396 -0.440281825551 0)
(0.413980695769 -0.450687481068 -2.66861049823e-20)
(0.418550550073 -0.461423240569 -1.93363661261e-20)
(0.42275503974 -0.47256207903 6.97039754583e-21)
(0.426538435206 -0.483411468107 1.90666757981e-20)
(0.4299963683 -0.493419775002 1.21564558747e-20)
(0.433234774292 -0.502478412586 0)
(0.4363075497 -0.510664877813 -2.54810062252e-20)
(0.439235054872 -0.518157506069 -6.65019568993e-21)
(0.442028959088 -0.52514855196 0)
(0.44464666022 -0.531839143195 1.87392273838e-20)
(0.447157563465 -0.536831951327 -1.87193937784e-20)
(0.449659576403 -0.539714151697 -6.57905847805e-21)
(0.452167825042 -0.540978529174 0)
(0.454707282691 -0.541242659968 0)
(0.45725353978 -0.540965391338 0)
(0.459791974816 -0.540545422644 1.87646366798e-20)
(0.462304903467 -0.540293521317 0)
(0.464773005647 -0.54049184241 -1.90466821017e-20)
(0.467183458591 -0.541390331756 0)
(0.469527268318 -0.543217741224 -1.26150010762e-20)
(0.471794398405 -0.546179028296 0)
(0.473970141412 -0.550475481665 -1.30709409501e-20)
(0.476042504455 -0.55626864113 -1.33694780413e-20)
(0.477990017298 -0.563744611725 0)
(0.479822447139 -0.573028823855 -7.96379922326e-21)