/*--------------------------------*- C++ -*----------------------------------*\
| =========                 |                                                 |
| \\      /  F ield         | OpenFOAM: The Open Source CFD Toolbox           |
|  \\    /   O peration     | Version:  v1806                                 |
|   \\  /    A nd           | Web:      www.OpenFOAM.com                      |
|    \\/     M anipulation  |                                                 |
\*---------------------------------------------------------------------------*/
FoamFile
{
    version     2.0;
    format      ascii;
    class       volScalarField;
    location    "24";
    object      alpha;
}
// * * * * * * * * * * * * * * * * * * * * * * * * * * * * * * * * * * * * * //

dimensions      [0 0 -1 0 0 0 0];


internalField   nonuniform List<scalar> 
12225
(
0.391692903089
0.328760540334
0.349014249302
0.348739193725
0.360467137338
0.364655567909
0.370488958608
0.37441642338
0.376470528041
0.375487549357
0.370036056229
0.361491435388
0.354620390293
0.343054743629
0.320134479436
0.290042724352
0.250946788785
0.218296748369
0.221998018283
0.281132211624
0.312506465169
0.307974424605
0.316778128355
0.319037530164
0.32260629564
0.324775265513
0.325901508362
0.32532280363
0.321727779881
0.315370091045
0.308757655498
0.299042306419
0.281771688124
0.259257499809
0.23438308502
0.231787365883
0.372110188258
0.298773273274
0.317267556051
0.315350676258
0.324885017325
0.328086494255
0.332452982684
0.335336834295
0.337274660625
0.337772362325
0.336164450126
0.332338864105
0.326801256696
0.317978458765
0.303496438482
0.285154566996
0.268045437932
0.272596366392
0.304954835362
0.287332224404
0.312915084681
0.307272680002
0.315778774684
0.317418714457
0.320460473447
0.322239285474
0.323386846217
0.323503518688
0.322283830201
0.319579179943
0.315267459236
0.308422892612
0.298099125812
0.286239727032
0.278444779672
0.287647196419
0.339966756156
0.287494929059
0.311805189105
0.304958575946
0.31268166948
0.313397236391
0.315574132266
0.316459577291
0.316694216716
0.315967271584
0.314160969766
0.311200163311
0.30687457382
0.300741369105
0.292813412736
0.285284923055
0.283082667876
0.29319686181
0.325772608069
0.28386029048
0.30854622356
0.300441429786
0.307589008009
0.307604249847
0.309247119696
0.309648376619
0.309464836506
0.30844393015
0.306546599848
0.303742906395
0.299881983536
0.294848104022
0.289178119248
0.285035991645
0.286097277038
0.295682336205
0.329707843565
0.282532005744
0.306097358074
0.297142054985
0.303625304523
0.302998654661
0.304131050744
0.304095403979
0.303567531199
0.302344586169
0.3004368269
0.297855799996
0.294571132647
0.290694415313
0.287000372755
0.285365619484
0.288245646435
0.297002451011
0.327335252699
0.281075459017
0.30395344749
0.294269346999
0.300207210581
0.299064948925
0.299815702269
0.299476434908
0.298766348434
0.297500368959
0.295711002887
0.293450102575
0.290804041082
0.288032415856
0.285973833412
0.286103732066
0.289947328583
0.297858678081
0.326422841301
0.28034506569
0.302207719887
0.292032353993
0.297447023262
0.29586612349
0.296299775771
0.295751075051
0.294971457594
0.293769046487
0.29218582391
0.290320023714
0.288344532718
0.286596551765
0.28584589272
0.287197321286
0.291503962555
0.298694878689
0.325541039709
0.28002482735
0.301011256579
0.290475564277
0.295453559158
0.293513028221
0.293715373713
0.293047339987
0.29226745334
0.291176258153
0.28984818834
0.288427166732
0.287134820333
0.286310995694
0.286594521534
0.288762578644
0.293244212867
0.299764178976
0.32557954951
0.279956456493
0.300639346308
0.289779212372
0.294506248919
0.292362279585
0.2924880119
0.291800178836
0.291077464866
0.290147445923
0.289118986999
0.288140075043
0.287435304764
0.287305226964
0.28825350696
0.290800346618
0.29511475246
0.300894147283
0.329469364944
0.280076571337
0.30207386253
0.290658076677
0.295444134807
0.293209471706
0.293321758375
0.292639802117
0.292015670973
0.291248127204
0.29038947354
0.289607950935
0.289139455571
0.289271619682
0.290390554035
0.292852002744
0.296725542593
0.30171521084
0.332670053964
0.280738743863
0.303522072571
0.291713466021
0.29632878721
0.293931211424
0.293949304851
0.293197226574
0.29249126869
0.291651296193
0.290786837757
0.290071061131
0.289773388532
0.29010296997
0.291375843395
0.293803710607
0.297358170205
0.30177814763
0.336574407025
0.281565831049
0.305178258874
0.292853170095
0.297263784404
0.294525894482
0.29425021185
0.293288718827
0.292480676311
0.291642982996
0.290891590464
0.290414183522
0.2904452278
0.291130342102
0.292636832069
0.295091306947
0.298355288095
0.302281789047
0.341675155795
0.282472492288
0.30726458994
0.294238862575
0.298440445742
0.295300081047
0.294690820637
0.293481068857
0.292553433192
0.291758466091
0.2911784031
0.291009796756
0.291426429689
0.292451653597
0.294167517064
0.296600248075
0.29959695725
0.303018257163
0.347057075252
0.283442513592
0.309654239134
0.295934243526
0.300031611652
0.296546040008
0.295691070249
0.294300856772
0.29332609429
0.292583911047
0.292198731894
0.292282848643
0.292992968488
0.294228144432
0.296031027839
0.298352043856
0.301058161074
0.304052555918
0.35194694685
0.284331409249
0.312088484404
0.297803346816
0.301944085242
0.298254863081
0.297301627995
0.295860339936
0.294917190546
0.29429373694
0.294057415222
0.294330815528
0.295194543297
0.296519694876
0.298278861507
0.300442407471
0.302844682476
0.305488628283
0.356588343755
0.285017768269
0.314420660728
0.299674401981
0.303999668142
0.300249388579
0.299340731776
0.297943868053
0.297092747786
0.296587538329
0.296477173989
0.296865654143
0.297799432819
0.299117852315
0.300781509893
0.302764972366
0.30490780775
0.307244052275
0.359120715552
0.28510547123
0.31567116775
0.300747389081
0.305366381821
0.301761098611
0.301077825323
0.299884579724
0.299246624378
0.298943300146
0.299008363835
0.299523905361
0.30052249483
0.301828781742
0.303409787822
0.305251695219
0.307205285133
0.309313247311
0.353966422955
0.284516613601
0.314125120269
0.300040211852
0.305124794812
0.302175501344
0.302116915749
0.301561901992
0.301498446255
0.30170578024
0.302187844493
0.303010080382
0.304208977946
0.305622508299
0.30722234917
0.309004426956
0.310834489847
0.312746138664
0.349274180693
0.283366410709
0.312287423599
0.298820721211
0.304268273747
0.301841179809
0.302276883607
0.302184564799
0.30256167646
0.30313229694
0.303908195964
0.30493120533
0.306270499529
0.307740728544
0.309351770479
0.311080626793
0.312835565888
0.314623044754
0.347623372214
0.282581435963
0.310445558313
0.297496898847
0.303211488164
0.301244312038
0.302080938
0.302391150246
0.303110829089
0.303970639868
0.304980910481
0.306161939136
0.307595874394
0.30911960837
0.310730913732
0.312430726966
0.314121357968
0.315848259574
0.339527795955
0.28081674511
0.308728947862
0.296279713497
0.302284955272
0.300749784252
0.301968889776
0.302640389974
0.303674985781
0.304811504528
0.306018730213
0.307358877318
0.308895775548
0.310487460449
0.312109291421
0.31380981819
0.315469652039
0.317132691198
0.34642391374
0.280406586604
0.306561904016
0.29464085812
0.300911786501
0.299825519175
0.301416481134
0.302456979562
0.303797002033
0.30518268765
0.306603224929
0.308098429271
0.309752376348
0.311418300764
0.313113613621
0.314849374106
0.316539990891
0.318197589483
0.319736001199
0.278162801547
0.304988463685
0.293892776488
0.300365056333
0.299699515062
0.30161653815
0.302933432505
0.30451110307
0.306093602299
0.307668073036
0.309254198907
0.310968514317
0.312669717627
0.314366748879
0.316115062152
0.317835741417
0.319512803868
0.362128693486
0.277993416001
0.302027656525
0.29124548676
0.297988249293
0.297695785162
0.299875289467
0.301475991719
0.303303217665
0.305128727409
0.306909737692
0.308672750976
0.310525679491
0.312363547166
0.314188447001
0.316035704582
0.317830641392
0.319440549105
0.269108580289
0.275101936051
0.299545606194
0.290944405134
0.297548168837
0.297847854325
0.300337501799
0.302254456759
0.304364079431
0.306469781014
0.308544956346
0.310460350569
0.312390396981
0.314297197366
0.31613203742
0.3179868761
0.31985881502
0.321899665528
0.41255127252
0.279131884513
0.291995681928
0.28497255924
0.291571571042
0.291998213405
0.294400891441
0.296153644114
0.298040765371
0.299915818832
0.3016487934
0.30326522476
0.304951747475
0.306626918208
0.308282828219
0.310065446397
0.31194773943
0.3134675453
0.152054437291
0.260703391255
0.284699891467
0.278657584245
0.284794168318
0.285863853253
0.288799925961
0.291447061202
0.294458252121
0.297713857436
0.301103759133
0.304280985046
0.307500602541
0.310853933288
0.314258643047
0.317729177536
0.321313271274
0.324787698934
0.329275330564
0.29668318494
0.301424405099
0.299784913395
0.307310274549
0.308283304826
0.310851789837
0.312838433514
0.314856466828
0.316629159966
0.318059702283
0.319395299249
0.320791639092
0.321868673936
0.322630496343
0.323269446192
0.323594233582
0.324338034966
0.476040509886
0.476400412558
0.476586517291
0.476568371455
0.476354518876
0.475979254799
0.475545310339
0.475086142019
0.474628343461
0.474190382522
0.473784224706
0.473416815062
0.473091451352
0.472808997433
0.472568593579
0.472368221687
0.472205276629
0.472076441028
0.471978654138
0.47190899383
0.471864242344
0.471842278663
0.471839925305
0.471856578559
0.471890460583
0.471942114954
0.472010041206
0.472094643719
0.472195431653
0.472313339864
0.472448244921
0.472600777639
0.472770665606
0.472958789769
0.473165033809
0.473389334736
0.473630613333
0.473889651621
0.474165303381
0.474457532952
0.474764968986
0.475086868804
0.475421529476
0.475767303254
0.476122045217
0.476483212541
0.476848189894
0.477213843691
0.47757690317
0.477934403688
0.478283480052
0.478622738977
0.478949042437
0.479258160807
0.479544729492
0.479803617992
0.480029433359
0.480216781787
0.480360146366
0.480454268346
0.480495079832
0.480481365326
0.480412177559
0.480284532541
0.480097479108
0.479854124915
0.479556535132
0.479206821589
0.47880828961
0.478363714041
0.477877350908
0.477353053184
0.476795570795
0.476209121102
0.475598351976
0.47496722828
0.474319697581
0.473660294496
0.472992798702
0.472319830578
0.471643422059
0.470966853511
0.470292165502
0.469622049012
0.468955728538
0.468295860658
0.467642536787
0.466989489498
0.466340453856
0.465691877052
0.465043003106
0.464393657061
0.463741682903
0.46311343222
0.462523430195
0.461933854907
0.461313076838
0.460675840418
0.460024028856
0.45936361447
0.458589240516
0.457722082592
0.457581265322
0.457535167377
0.457319390994
0.456880208277
0.456250994905
0.455906650959
0.455503835973
0.455140877641
0.454843956662
0.454588018136
0.454367888452
0.454161947158
0.453977319307
0.453805541054
0.453644551769
0.45348999836
0.453341302407
0.453199751291
0.453068314074
0.452948354707
0.452838614555
0.452737953805
0.452643597591
0.452554323718
0.452469399855
0.452388337332
0.452310784163
0.452236350862
0.452164677949
0.452095558007
0.452028814265
0.451964429135
0.451902341142
0.451842635516
0.451785327207
0.45173008102
0.451677362413
0.451627306128
0.451581630173
0.451538919934
0.45149998343
0.45146633649
0.451439679999
0.451421827639
0.451413894347
0.451416688224
0.451430915618
0.451457125254
0.451496408537
0.451550290537
0.451620491348
0.451708642725
0.451816513458
0.45194591825
0.45209890434
0.452277709542
0.452485289905
0.452725233361
0.453002873003
0.453323888689
0.453696299048
0.454131348791
0.454644398727
0.45525231987
0.455975963306
0.456831875864
0.457833292667
0.459002966915
0.460353882927
0.461882692986
0.463571951946
0.465379817214
0.467246322514
0.469227459332
0.471272760112
0.473304535677
0.475213900185
0.476698618172
0.476142476011
0.476375655252
0.476274428283
0.475987884401
0.475639919151
0.47528389294
0.474941245786
0.474622254056
0.474331420861
0.474070903237
0.473841005084
0.473642308648
0.473473903193
0.473335387256
0.473225372928
0.473142755139
0.473085712555
0.473052462303
0.47304055186
0.473048512259
0.473073829781
0.473115096503
0.473169999703
0.473238358299
0.473318800941
0.473412184578
0.473517670742
0.473636104139
0.473767704323
0.473913787204
0.474074531374
0.47425092361
0.474443552817
0.474653606676
0.47488075378
0.475125708275
0.475388165378
0.475668414143
0.4759659461
0.476280906015
0.476612317907
0.476959426515
0.47732074764
0.47769454794
0.478078569977
0.478470051273
0.478865613557
0.479261637499
0.479653476699
0.480035945286
0.480401441718
0.480744912782
0.481063452356
0.481354078915
0.481612888913
0.481836004045
0.482019609465
0.482157985664
0.482245189854
0.482279118692
0.482258307032
0.48218049926
0.482046084652
0.481859061945
0.481618401718
0.481321494044
0.48096816527
0.480558770536
0.480094259572
0.479575665292
0.479004915587
0.478384135725
0.477716651505
0.477006025775
0.476256364698
0.475472326157
0.474659023331
0.473821785098
0.472966129046
0.472096084663
0.471214754371
0.470325974558
0.46943391154
0.468540417425
0.467643821374
0.466749381178
0.465863774594
0.46497740917
0.464069478566
0.463158336953
0.46227456321
0.461384918938
0.460449777995
0.459499610784
0.458619506302
0.457814736342
0.456977200155
0.456288885779
0.455606968531
0.454893134307
0.454207184453
0.453390955909
0.452786552569
0.452135042831
0.451534342463
0.450955673546
0.450611447747
0.450346977122
0.450111204263
0.449867020913
0.449619429712
0.449363117753
0.449100938198
0.448836405088
0.448577928209
0.448321085921
0.448066166595
0.447811203046
0.447555954386
0.447303367717
0.447057102931
0.446819016711
0.446589186092
0.446365989872
0.446147550778
0.445932929604
0.445721405141
0.445512529408
0.44530580475
0.445101040216
0.4448981432
0.444697082356
0.444497713879
0.444299906986
0.444103261297
0.443907401953
0.443711701977
0.443515382406
0.443317719369
0.443118972464
0.442919300654
0.442717423185
0.442512931377
0.442306121288
0.442097872963
0.441888621911
0.441677975623
0.441464949522
0.441248323735
0.441027085293
0.440800122698
0.440566228363
0.440324188438
0.440073312013
0.439813733189
0.439546277694
0.439272927979
0.438996286421
0.43871993072
0.438447140654
0.43818290561
0.437932765321
0.437702112662
0.437494986534
0.437315072925
0.437165342212
0.437042264342
0.436953585662
0.436898523928
0.436875448212
0.436886010347
0.436937124144
0.437038372633
0.437191986758
0.437466922754
0.437772283664
0.438132432092
0.438538386074
0.438947842237
0.439376890298
0.475773680159
0.475848892523
0.475814212007
0.475699186278
0.475577625546
0.475477666435
0.475390125102
0.475308531613
0.475229155682
0.475151862172
0.47507720146
0.475006773441
0.47494222103
0.474885445405
0.474837852384
0.474800670836
0.474774408883
0.474759407434
0.474755275906
0.474761576451
0.474777413852
0.474802782605
0.474836156747
0.474877918257
0.474927708339
0.474986289255
0.475053501145
0.475130624163
0.475218122437
0.475317366876
0.475428953752
0.475554349434
0.475693938167
0.475848762899
0.476019167621
0.47620568202
0.476407854311
0.476626261584
0.476860342009
0.477109825136
0.477373791239
0.477651228681
0.477940561474
0.478239898469
0.478546873716
0.47885875573
0.479172242895
0.479483732828
0.479789173296
0.48008421543
0.480362681383
0.480618153449
0.48084371471
0.481034840617
0.48118801537
0.481300414904
0.481369693772
0.481395917636
0.481379966381
0.481320324425
0.481214316638
0.481059781177
0.48085133057
0.480585220246
0.480263209995
0.479884555538
0.47944813066
0.478953852522
0.478403322868
0.477799046913
0.477144830319
0.476445177458
0.475705231255
0.474930405938
0.474126189581
0.473298047196
0.472451217179
0.471590898188
0.470721965957
0.469849101834
0.468974405932
0.468100781344
0.467232613627
0.466372654821
0.465517069836
0.46466420515
0.46382819452
0.46301182728
0.462191171343
0.461356340765
0.460540875876
0.459772263869
0.458975241677
0.458173637375
0.457403069935
0.456662276749
0.455977989094
0.455448185515
0.454844932993
0.454054272397
0.453195005772
0.45258027225
0.452251436623
0.451909348344
0.451719175194
0.451480659164
0.451087542592
0.450523155534
0.449984262967
0.449515015056
0.449080350097
0.44867738207
0.448304931005
0.44796012023
0.447638611193
0.447332517531
0.447038576495
0.44675339709
0.446475760258
0.446207457752
0.445950496352
0.445705347732
0.445470641053
0.44524417402
0.445024835122
0.444811892312
0.444604847122
0.444403298548
0.444206899222
0.444015150833
0.443827356123
0.443642806964
0.443461034591
0.443281740358
0.44310467096
0.442929508799
0.442755698414
0.442582863942
0.4424108513
0.442240765613
0.442072656203
0.441905507795
0.441738126502
0.441570852766
0.441405194974
0.441242319084
0.44108273428
0.44092643954
0.440773555684
0.440624243427
0.440478690815
0.440336880271
0.44019893348
0.440064823748
0.439934298247
0.439806839558
0.439681721324
0.439557788989
0.439433850361
0.439308204695
0.439179145435
0.439044962611
0.438903918251
0.438754120089
0.438594177345
0.438422460202
0.438236349305
0.438035452648
0.437823007275
0.437602062493
0.437377726365
0.437159949853
0.436960944354
0.436804803882
0.436717802957
0.436716939443
0.436820977829
0.437036697213
0.437319175027
0.437515719438
0.475305278415
0.475424166928
0.475685634257
0.475826309067
0.475903051971
0.475962693502
0.475999386327
0.476013475729
0.476007176178
0.475983566038
0.475945808855
0.475897821456
0.475842883489
0.475784489863
0.475725381982
0.475668071997
0.475614293449
0.475565427909
0.475521999215
0.475485032796
0.475454190739
0.475429794423
0.475411698427
0.475400555414
0.475396005633
0.475399456446
0.4754112489
0.475432706049
0.475464636143
0.475508696586
0.47556578913
0.475637257346
0.475723967704
0.475827277651
0.475947127439
0.476084444991
0.476239162297
0.476411404498
0.476600572315
0.476806370296
0.477027583087
0.477262925191
0.477510446003
0.477767821769
0.478032243623
0.478300451086
0.478568617248
0.478832848099
0.47908863084
0.479331119341
0.479555650335
0.479758660947
0.479934449517
0.480078165749
0.480185340833
0.48025223178
0.480275420067
0.480253263538
0.480187178509
0.480079893556
0.479932080788
0.479742660815
0.479508941188
0.479225568037
0.478886034288
0.478486334902
0.47802439254
0.477499115319
0.476910772375
0.476261243286
0.47555393891
0.474793932711
0.473987737741
0.473142286548
0.472264954163
0.471364036024
0.470446908678
0.469519190233
0.468588021762
0.467660155859
0.466737842919
0.465820402905
0.464915868624
0.464033490816
0.463164988135
0.462302469704
0.461459977437
0.460670682326
0.459888487638
0.459102998979
0.458348222999
0.457640852514
0.456968696386
0.456310813059
0.455698336334
0.455081529263
0.454401002345
0.453664672034
0.452825756524
0.45202789165
0.451465825761
0.451212911248
0.45103020396
0.450809049361
0.450620268998
0.45030042206
0.449774370352
0.44910737269
0.448459737006
0.44787661551
0.447351493363
0.446886144638
0.446473174027
0.446102538472
0.44576425484
0.445449222923
0.445152427706
0.444869722709
0.444599852416
0.444343670882
0.444102121844
0.443874178807
0.443656876667
0.44344797086
0.443246310087
0.443051204495
0.442862002408
0.442678051283
0.442498656642
0.442323157455
0.442150661358
0.441980591384
0.441812735139
0.441646774483
0.441482315862
0.44131866566
0.44115525405
0.440991930938
0.440829452452
0.440669087244
0.440511094789
0.440353800793
0.440195320466
0.440035702118
0.439876111344
0.439717501893
0.439560165552
0.439403973005
0.439248710145
0.439094133055
0.43894007393
0.438786356184
0.438633126277
0.438480521271
0.438328668664
0.438177714444
0.438027944198
0.437879876298
0.43773416233
0.43759149911
0.437452275366
0.437316910748
0.437185729403
0.437058432055
0.436934269032
0.436811759867
0.436687475132
0.436559222744
0.436425227659
0.436282652636
0.436130008306
0.435968932283
0.435802956691
0.435639634806
0.435497307118
0.435381578758
0.435302312387
0.43526110318
0.435206614772
0.435010653324
0.474763625246
0.475427708831
0.476082724507
0.476323115557
0.47640854005
0.476464465343
0.476497939071
0.476512089746
0.47650657292
0.476482797237
0.476441868476
0.476386252843
0.476318596493
0.476242233474
0.476159880901
0.476074449477
0.475987861133
0.475902311223
0.475818899854
0.475738711329
0.475662246568
0.475590698871
0.475523735062
0.47546253531
0.475407568519
0.475359892746
0.475320123827
0.475289950791
0.475270310758
0.475262854316
0.475268604799
0.475289313734
0.475325625753
0.475378700173
0.475449081331
0.475537478912
0.475643539758
0.475767769536
0.475909516589
0.476068321707
0.476242992564
0.476432252874
0.47663412353
0.476846365033
0.477066168787
0.477290500764
0.477515690649
0.477737897485
0.477953027458
0.478156421466
0.478341906223
0.47850513641
0.478640794801
0.47874375722
0.478810000091
0.478836053279
0.478818119466
0.478753696416
0.478642355736
0.478482676714
0.47827353997
0.478014408942
0.477705128485
0.477346626507
0.476938000818
0.476476709384
0.475960392857
0.47538736186
0.474757674345
0.474072495196
0.473334608369
0.472548329339
0.471720485826
0.4708568352
0.469964017188
0.469050553886
0.468125098837
0.467191049388
0.466252121488
0.465321058864
0.464404101144
0.463491131358
0.46258840531
0.461714067284
0.460856415021
0.460001142612
0.459168370128
0.458377574785
0.45763702824
0.456911966367
0.456185345984
0.455509022806
0.454844313392
0.454207767513
0.453545750843
0.452773139134
0.451940980946
0.451127965217
0.450419368372
0.449950930356
0.449737788917
0.449653119675
0.449505729351
0.449287200603
0.44902030077
0.448619837413
0.448086578033
0.447492014541
0.446911675669
0.446369765432
0.445879780494
0.445447323053
0.445065825074
0.444725755315
0.444417626033
0.444133392915
0.443867610646
0.443616247074
0.443377845939
0.443152566501
0.442940314793
0.442738899455
0.442545116687
0.442357105554
0.442174252736
0.441996394517
0.441823369907
0.441654922214
0.441490671976
0.441330221871
0.441173289864
0.441019578138
0.440868638485
0.440720062211
0.440573287808
0.440427666186
0.440282866054
0.440139272517
0.439998451221
0.439861713476
0.439729204037
0.439598386816
0.439466954153
0.439334514731
0.439201828798
0.439069771778
0.438938655527
0.438808463972
0.438679012325
0.438550067897
0.438421495233
0.438293180965
0.438164984098
0.438036808244
0.437908580236
0.437780356793
0.437652154683
0.437523961049
0.437395885024
0.437268058815
0.437140317395
0.437012495596
0.436884319263
0.436755111726
0.436624197905
0.436490441659
0.436351501863
0.436206330217
0.436054714021
0.435895509948
0.435729545002
0.435559773779
0.435389259247
0.435223534955
0.435073169245
0.434939209162
0.434816458842
0.434689405928
0.434496133575
0.434124462662
0.474274456658
0.476111569494
0.476970879004
0.476966325141
0.476861802006
0.476813534975
0.476791707177
0.476776607064
0.47675444421
0.476718909133
0.476667003889
0.476599960197
0.476519162469
0.476427708395
0.47632782656
0.47622247169
0.476113510785
0.476003144105
0.475892455939
0.475783356756
0.475676147927
0.475571916485
0.475471322625
0.475375443402
0.475284483654
0.475200171773
0.475123299243
0.475055446332
0.474997742491
0.474951996312
0.474919366289
0.47490134547
0.474898918108
0.474913452732
0.474945022117
0.474994502507
0.475061804142
0.475146957095
0.475249185108
0.47536798743
0.475501861322
0.475649374974
0.475808299255
0.475976275978
0.476150380386
0.476327591939
0.476504275235
0.47667700207
0.476841792706
0.47699412167
0.47712809325
0.477239471851
0.47732251551
0.477372028939
0.477383369766
0.477352435004
0.477275476363
0.477153200295
0.476987189733
0.476778433702
0.47652702083
0.476232849675
0.475893994575
0.475508611727
0.475071733897
0.474579840956
0.474029376244
0.473418163701
0.472746577296
0.472017570714
0.471233641954
0.470400726223
0.46952783377
0.4686235773
0.467692050987
0.466743092778
0.465790418941
0.464839508592
0.463886566853
0.462940917047
0.462027002421
0.461109453963
0.46020471279
0.459325930101
0.458484211706
0.457683465491
0.456901119898
0.456143174468
0.455409235882
0.454681042627
0.454000175217
0.453322628249
0.452573072221
0.451810913072
0.451029997809
0.450263000135
0.449576619122
0.449014824465
0.448601959209
0.448371665098
0.448257458245
0.448135402818
0.447934012969
0.447674909071
0.447347968115
0.446921960888
0.446427074026
0.445909114748
0.445400843183
0.444918636372
0.444477492625
0.444082006008
0.443727979522
0.443408695278
0.443117126932
0.442847156656
0.442594149631
0.442355165721
0.442129281499
0.441916936245
0.441717803578
0.441529465494
0.441349308499
0.441175919098
0.441008937988
0.440848313421
0.440693930244
0.440545472987
0.440402442818
0.440264209013
0.440130044329
0.439999018504
0.439870378408
0.43974348251
0.439617607797
0.439492016645
0.439366493737
0.439242069059
0.439120623984
0.439003902555
0.438891620528
0.438781136923
0.438670167816
0.438558065851
0.438445423517
0.438332908952
0.438220855022
0.43810929867
0.437998139488
0.437887414804
0.437777075093
0.437667076954
0.437557355708
0.437447760294
0.437338201179
0.437228566695
0.437118794199
0.437008783254
0.436898514996
0.436787918213
0.436676690444
0.436564522025
0.436450916743
0.436335002273
0.436215748816
0.436091802146
0.435960881036
0.43582179441
0.43567398357
0.435516189554
0.435349371396
0.435176290628
0.434999310797
0.43482231005
0.434654025251
0.434494203841
0.43433454833
0.43415320474
0.43389046971
0.433459061345
0.474023716339
0.477522271853
0.478089489324
0.477505847947
0.477160814323
0.47701032593
0.476934842435
0.476881084483
0.476823452223
0.476754155805
0.476669275989
0.476570027368
0.476457416994
0.476334466762
0.476202885416
0.476065555071
0.475923867037
0.475780246075
0.475635621724
0.475491395993
0.475348305304
0.475207868465
0.475070075546
0.474936399565
0.47480755186
0.47468471952
0.474568740179
0.474461387876
0.474363683249
0.474277339452
0.474203436244
0.474143689649
0.474098776617
0.474069785945
0.474057232203
0.474061672013
0.474082703966
0.474120571903
0.474174370551
0.474243369146
0.474326030035
0.474420874316
0.474525678985
0.474638242482
0.474755855072
0.474876042964
0.474995693432
0.475112006834
0.475222070795
0.47532243546
0.475406513894
0.475470761977
0.475508829305
0.475513502302
0.475478397981
0.475397656465
0.475268054763
0.475092882058
0.474873922876
0.474613126211
0.474311537095
0.473971889265
0.473594483699
0.473176801382
0.472711623086
0.472194953033
0.471621261381
0.47098624187
0.47029025261
0.469537387324
0.468730781367
0.467873300758
0.466977744917
0.466058220927
0.465117724354
0.464162174118
0.463206577761
0.462256800884
0.46130330163
0.460363228883
0.459445228276
0.458563230471
0.457720550553
0.456890901758
0.456083593831
0.455309093725
0.454568068499
0.453859504877
0.453146145638
0.452403835458
0.451675543469
0.450928035947
0.450172163347
0.449453196491
0.448775061603
0.448183450907
0.447705671334
0.447346591612
0.447086498322
0.446911981036
0.446755976399
0.446561343146
0.446316811142
0.446029569885
0.44568074746
0.44526750789
0.444820152232
0.44436542557
0.443920894793
0.44349878152
0.443109286016
0.442754943969
0.442433609566
0.442141338524
0.441873708864
0.441626409844
0.441396051542
0.441180486444
0.440979151147
0.440792105986
0.440618218694
0.440454830935
0.4402992333
0.440149876187
0.440006091711
0.439867586563
0.439734072915
0.439605173025
0.439480375232
0.439359080838
0.439240706486
0.439124785011
0.4390109464
0.438898692868
0.438787324954
0.438676165075
0.438565264983
0.438456042799
0.438350594316
0.438250597126
0.438155274069
0.438062038902
0.437968626616
0.437874403663
0.437779785749
0.437685224975
0.43759091523
0.437496767171
0.437402794249
0.437308948323
0.437215246983
0.437121643909
0.437028087184
0.436934528532
0.436840852518
0.436746910031
0.436652597793
0.436557803189
0.436462471199
0.436366432283
0.436269305242
0.43617066348
0.436069954053
0.435966146492
0.43585808348
0.435744376988
0.435622901902
0.435492437312
0.435352253963
0.435201022627
0.435039408089
0.434869699593
0.434693233386
0.43451198526
0.434332228807
0.434152204744
0.433961994707
0.433736395925
0.433421279974
0.43295167573
0.474140538855
0.47944850248
0.479094401053
0.477811048258
0.477329381969
0.477113092956
0.476982032388
0.476868426935
0.476750672585
0.476623657523
0.476483966895
0.47633388287
0.476173391101
0.476005363262
0.475830549512
0.47565155783
0.475469219959
0.475285606525
0.47510119072
0.474917860408
0.474735767869
0.474556230442
0.474379869986
0.47420773852
0.47404002919
0.473878406238
0.473723476699
0.47357666551
0.473438892888
0.473311753479
0.473196138107
0.473093301668
0.473003993466
0.472929258286
0.472869049969
0.472823989257
0.472793806495
0.472778304829
0.472776581116
0.472787968531
0.472810872957
0.472843928609
0.472885145171
0.472932703311
0.472984563418
0.473039044161
0.473094431444
0.473149325108
0.473202179108
0.473251250183
0.473291332956
0.473316386088
0.473318462872
0.473286057954
0.473207609896
0.473072970389
0.472881755804
0.472640772289
0.472354255626
0.472027418659
0.471667123357
0.4712809208
0.470873685285
0.470435149789
0.469957005017
0.469431514136
0.468851182959
0.468207460462
0.467497439547
0.466729616889
0.46591188042
0.465043719388
0.464135623858
0.463214146233
0.462264872462
0.461301859016
0.460347754243
0.459410374557
0.458501358073
0.457625523979
0.456761676366
0.455921487781
0.455116163815
0.454344221752
0.453607747925
0.452900666639
0.452199655513
0.451484091489
0.450750912181
0.450015753866
0.449310223914
0.448613637792
0.447963716148
0.447373742486
0.446845747014
0.44640175208
0.446046488538
0.445772644815
0.445553459727
0.445366980059
0.445171204023
0.444947841193
0.444693474703
0.4443996617
0.44405548957
0.443672224804
0.443273592907
0.442875707721
0.442489533073
0.442123256118
0.441782668172
0.441469180322
0.441181915733
0.440918764498
0.440676896731
0.440453171535
0.44024498445
0.440050694945
0.439869871011
0.439702317541
0.439546661133
0.4394004773
0.439261549063
0.439128601382
0.439001108777
0.438878897758
0.438761830007
0.438649672769
0.438542040382
0.438438426981
0.438338281664
0.4382410757
0.438146189144
0.438052876886
0.4379601713
0.437867351755
0.437774707427
0.437683873483
0.437597104647
0.437515711377
0.437438716012
0.437363681151
0.437288594709
0.437212902082
0.437136851244
0.43706076422
0.436984663655
0.436908496555
0.436832198908
0.436755765807
0.436679243364
0.436602609763
0.43652582516
0.436448793897
0.436371379506
0.43629340013
0.436214695203