/*--------------------------------*- C++ -*----------------------------------*\
| =========                 |                                                 |
| \\      /  F ield         | OpenFOAM: The Open Source CFD Toolbox           |
|  \\    /   O peration     | Version:  v1806                                 |
|   \\  /    A nd           | Web:      www.OpenFOAM.com                      |
|    \\/     M anipulation  |                                                 |
\*---------------------------------------------------------------------------*/
FoamFile
{
    version     2.0;
    format      ascii;
    class       volScalarField;
    location    "24";
    object      p;
}
// * * * * * * * * * * * * * * * * * * * * * * * * * * * * * * * * * * * * * //

dimensions      [0 2 -2 0 0 0 0];


internalField   nonuniform List<scalar> 
12225
(
-4.85115005114
-5.5993848881
-5.83471562084
-5.89152446548
-5.9330023326
-5.96532349163
-5.97598807937
-5.96308680566
-5.9278908205
-5.87003527396
-5.78759849876
-5.67769289677
-5.53643754234
-5.3583776051
-5.13562569946
-4.85634897685
-4.50011933691
-4.03072082613
-5.02503212281
-5.61007475879
-5.84032464256
-5.90077923425
-5.94065780936
-5.97145613465
-5.98148947271
-5.9683678365
-5.93317823252
-5.87556655258
-5.79363961664
-5.68455824487
-5.54454205702
-5.36834769214
-5.14852640373
-4.87440203543
-4.52973921685
-4.12324039314
-5.16796995479
-5.59724300509
-5.82798948206
-5.90100341551
-5.94281684838
-5.97392929063
-5.98502595684
-5.97324657942
-5.93953264556
-5.8837207058
-5.80413335626
-5.69818755349
-5.56250774531
-5.39258610331
-5.18242436646
-4.92460166024
-4.61150595635
-4.26191045264
-5.29302819162
-5.61011443633
-5.83259779485
-5.91497865182
-5.95692549886
-5.98649802923
-5.99741467894
-5.98630144094
-5.95378978963
-5.89987916558
-5.82314417091
-5.7213304308
-5.59160866665
-5.43046237335
-5.23373223068
-4.99747904826
-4.72058239667
-4.42196656992
-5.40459399955
-5.63802768965
-5.83956349202
-5.92612596689
-5.96811729529
-5.99632752446
-6.00744924763
-5.99774717708
-5.96741134457
-5.91654575131
-5.84401893711
-5.74798832533
-5.62628572035
-5.47651769913
-5.29640849522
-5.08502130459
-4.84541794301
-4.59483152539
-5.50490532822
-5.67651829694
-5.85257890345
-5.94087358713
-5.98423252757
-6.01195751211
-6.02367744647
-6.01583810702
-5.98825981654
-5.94114902396
-5.87373645119
-5.78468173191
-5.67255314771
-5.53610057458
-5.37476789865
-5.18994692804
-4.98714990977
-4.78189371499
-5.59605018462
-5.72253062453
-5.87226842621
-5.95889219401
-6.00317561267
-6.03031434391
-6.04241629012
-6.03651647058
-6.01212607987
-5.96949063863
-5.90820540821
-5.82746258045
-5.72657041714
-5.60533905881
-5.46464642694
-5.3075234663
-5.14068262438
-4.97781362328
-5.67988391113
-5.77369414873
-5.89858574343
-5.98080641404
-6.02562636061
-6.05271385588
-6.06569910992
-6.06236896317
-6.04202569274
-6.00491929305
-5.95100138037
-5.88000641741
-5.79195117621
-5.68756857095
-5.56884037362
-5.43982259924
-5.30758402522
-5.18393843163
-5.75798868057
-5.82831194012
-5.93115380657
-6.00714130028
-6.05191782739
-6.07933426384
-6.09356155466
-6.09318613842
-6.07747533318
-6.04670136135
-6.00115017483
-5.94107390005
-5.86712285895
-5.78077334101
-5.6847692518
-5.58367679881
-5.48435549563
-5.39671366541
-5.83170364639
-5.88523517933
-5.96939659503
-6.03825371997
-6.08241681622
-6.11051496523
-6.12648633688
-6.12962461028
-6.1193018785
-6.09582577634
-6.05976156024
-6.01180826763
-5.95313749546
-5.88576455377
-5.81287633317
-5.73914694446
-5.67089366409
-5.61621170036
-5.90213706461
-5.94371301894
-6.01263203466
-6.07429304153
-6.11745296819
-6.1465702694
-6.16484974676
-6.17209871705
-6.16787823292
-6.15255328272
-6.12691204546
-6.09201562363
-6.04942961322
-6.00151012537
-5.95161367677
-5.90422976109
-5.86494344997
-5.84017333937
-5.96458818109
-5.99844627971
-6.05630576689
-6.11183870361
-6.15393391611
-6.18429244238
-6.20523184832
-6.21683218466
-6.21885619158
-6.21174004478
-6.19642246204
-6.17420137023
-6.14687275824
-6.11693424848
-6.08769299946
-6.06329297828
-6.04859167138
-6.04869135028
-6.02516162574
-6.05340030523
-6.10254481063
-6.15274266724
-6.19386719167
-6.22573347886
-6.24977186146
-6.26618234623
-6.27491488064
-6.2764806775
-6.27192126779
-6.26268126563
-6.25068748746
-6.23844166618
-6.22908136448
-6.22630084798
-6.23421293789
-6.25665486348
-6.09293740044
-6.11672153325
-6.15854740758
-6.20395630097
-6.24437457338
-6.27838580617
-6.30656199905
-6.32909600997
-6.34609933541
-6.35815611293
-6.36635923558
-6.37222595107
-6.37768510294
-6.38512043999
-6.39733585612
-6.41746178686
-6.44879408074
-6.49398255645
-6.16836755496
-6.18896270078
-6.22531694933
-6.26711356612
-6.30754956361
-6.34463721002
-6.37825042159
-6.40847497118
-6.43551631564
-6.4599973656
-6.48299747114
-6.50598265465
-6.53075108531
-6.55941042419
-6.59430020409
-6.63788593559
-6.69263525155
-6.76008509792
-6.25160955103
-6.27030241506
-6.30336736665
-6.34338508036
-6.385183942
-6.42669202261
-6.46732481139
-6.50700095833
-6.5459341268
-6.58471051164
-6.62430558407
-6.66599864778
-6.71131976006
-6.76195497484
-6.81969292904
-6.88628677481
-6.96342261191
-7.05164274753
-6.34194373012
-6.36000829499
-6.39220066083
-6.43287116822
-6.47803659206
-6.52577880631
-6.57526385983
-6.62623968911
-6.67882466256
-6.73347900232
-6.7909592709
-6.85225028984
-6.91847755012
-6.99083673481
-7.07050788575
-7.15857880459
-7.25602753389
-7.36259460838
-6.4364860886
-6.45517332582
-6.48906909172
-6.53327682461
-6.58435799567
-6.64051084719
-6.70077199463
-6.76472246067
-6.83230495266
-6.90375520443
-6.97952614666
-7.06022202161
-7.14651384344
-7.23908095215
-7.33854009464
-7.44539860474
-7.56007969948
-7.68172128716
-6.527611683
-6.54843051774
-6.58710415319
-6.6383814479
-6.69853318379
-6.76564632111
-6.8386700433
-6.91703361117
-7.00045399987
-7.08888093675
-7.18242507194
-7.28129369456
-7.38571744738
-7.49590496975
-7.61199775784
-7.73404010928
-7.86203947858
-7.99469992791
-6.58142263358
-6.60558398828
-6.6514837539
-6.71206590228
-6.78230950153
-6.86004321511
-6.94431318053
-7.03452703893
-7.13024238344
-7.23120380865
-7.33730531668
-7.44850962392
-7.56478804756
-7.68607838268
-7.81227199354
-7.94317983374
-8.07862573661
-8.2171444534
-6.60023514906
-6.62836997128
-6.68263823795
-6.75289712227
-6.83228851473
-6.91867135703
-7.01153088792
-7.11038356539
-7.21470470005
-7.32414770384
-7.43851977589
-7.55767357886
-7.68144204057
-7.80962772549
-7.94198863705
-8.07823697281
-8.21811253908
-8.36010273818
-6.59466047815
-6.62868998481
-6.69418098547
-6.7755433069
-6.86379568033
-6.95772249093
-7.05770907056
-7.16340520773
-7.27420903633
-7.38976569855
-7.50988836099
-7.63438798681
-7.76302545849
-7.89552180847
-8.03155898548
-8.17077366198
-8.31283940643
-8.4561756846
-6.56871858765
-6.61181073205
-6.69246608964
-6.7861196981
-6.88244906263
-6.98281662725
-7.08886368971
-7.20022293502
-7.31622357497
-7.43660433063
-7.56124280104
-7.68993568557
-7.82239875059
-7.95830115901
-8.09728262396
-8.23893648865
-8.38293408459
-8.52772806243
-6.52498723946
-6.58257219459
-6.68342999311
-6.78965742213
-6.89250370838
-6.99799848833
-7.10884033494
-7.22433281604
-7.3438335215
-7.4673107837
-7.59475990799
-7.72598483561
-7.86068683616
-7.99852461364
-8.13910422084
-8.28196366109
-8.4266753186
-8.57158801431
-6.46489044296
-6.5458698514
-6.6723940107
-6.78988505859
-6.89747501788
-7.00762484223
-7.12309241031
-7.24243851341
-7.36514880441
-7.4914784833
-7.62151211865
-7.75505156595
-7.89179000155
-8.03138719727
-8.17343807114
-8.31744977621
-8.462962633
-8.60834810537
-6.38846498701
-6.50712197479
-6.66343414866
-6.78813457889
-6.8974198433
-7.01039784714
-7.12865540034
-7.25007228906
-7.37448030139
-7.50240285509
-7.63395674398
-7.76891982064
-7.90698076939
-8.04778733689
-8.1909023981
-8.33575620125
-8.48170966403
-8.62677783166
-6.29516943568
-6.47296302567
-6.66009534656
-6.78858563664
-6.90008644808
-7.01685659358
-7.1379787903
-7.26117869925
-7.38692603328
-7.5160080341
-7.64857312064
-7.78442949798
-7.92331011493
-8.064898988
-8.20877374214
-8.35435184816
-8.50089163847
-8.64607358357
-6.18326601338
-6.44998456869
-6.65643945729
-6.7793506512
-6.89121413102
-7.01121319489
-7.13469265749
-7.25949617444
-7.38665376623
-7.51704010838
-7.6507629527
-7.78764578349
-7.92747145432
-8.06996846852
-8.21476437768
-8.36134307498
-8.50892796771
-8.65462556091
-6.05178256991
-6.45813863154
-6.67564038631
-6.78727919466
-6.89696990784
-7.01753053706
-7.14102433995
-7.26562222044
-7.39273952637
-7.52322309316
-7.65709822777
-7.79417329194
-7.93424766251
-8.07707450173
-8.22234570499
-8.36974483207
-8.51897173351
-8.6681641803
-5.88111127758
-6.44039535744
-6.67051847121
-6.77916336204
-6.89057697418
-7.01329413573
-7.138037393
-7.26342476561
-7.39117072194
-7.52217009863
-7.65645646658
-7.79386551378
-7.93422814097
-8.07732350486
-8.22288341932
-8.3707385003
-8.52102111517
-8.67773774616
-1.23098083286
-1.24260368461
-1.25350417862
-1.27393199737
-1.32621559928
-1.42148980201
-1.56363474037
-1.75515967312
-1.99867275301
-2.29604650669
-2.64837558113
-3.05598511387
-3.51842089946
-4.03447613955
-4.60220757001
-5.21898269632
-5.88152175452
-6.58596250198
-7.32792877216
-8.10260998351
-8.90485241549
-9.72924835117
-10.5702446109
-11.4222322313
-12.2796612287
-13.1371205171
-13.9894458541
-14.831778137
-15.6596539042
-16.4690319063
-17.2563566863
-18.0185491154
-18.7530434877
-19.4577435271
-20.1310341858
-20.7717115924
-21.3789817162
-21.9523726677
-22.4917277004
-22.9971128024
-23.4688122123
-23.9072385118
-24.3129349461
-24.6864922097
-25.0285585803
-25.3397630468
-25.6207333871
-25.8720259728
-26.0941512908
-26.2875120839
-26.452436138
-26.5891162883
-26.6976411416
-26.7779210945
-26.8297035677
-26.8525196021
-26.8457690863
-26.8088102497
-26.741112485
-26.6423226535
-26.5123738937
-26.3513893881
-26.159822251
-25.9384572209
-25.6884619447
-25.4113084666
-25.1088544457
-24.7832543723
-24.4369730815
-24.0726475842
-23.693078804
-23.3010697163
-22.8994137367
-22.4907362373
-22.0775048628
-21.6618915907
-21.2458129896
-20.8308134579
-20.4181173021
-20.0085321716
-19.6025320502
-19.2001968718
-18.80132791
-18.4054130641
-18.011759556
-17.6194638555
-17.2275122849
-16.8346533261
-16.4393361786
-16.0394189083
-15.6319952067
-15.2130358378
-14.7770627625
-14.3167729105
-13.8228530666
-13.2839190434
-12.6867895055
-12.017033261
-11.2598969428
-10.4015088289
-9.43028966074
-8.33828522559
-7.12227457404
-5.78452494547
-4.33342406842
-2.78363484643
-1.15611597788
0.523167589113
2.22475681065
3.91799496835
5.57264043042
7.16312202235
8.66356387766
10.0544725143
11.3210809394
12.4540152159
13.4534042447
14.3150976192
15.0421957068
15.6469292363
16.1329751244
16.5124721632
16.8103291534
17.0305032591
17.1853914232
17.2850425419
17.3259594327
17.3093135873
17.2464393198
17.1494347708
17.0286188033
16.8925031349
16.7479001091
16.600338211
16.4541251707
16.3126583041
16.178435953
16.0533120199
15.9384750945
15.834626368
15.7419948875
15.6604329152
15.5897326478
15.5297464815
15.4801852729
15.4405898689
15.4102955817
15.3884188372
15.3739917263
15.3660492032
15.3636898359
15.3660755173
15.3724460985
15.3821045131
15.3944262483
15.4088452334
15.4248617154
15.4420294691
15.4599616451
15.4783218451
15.4968263831
15.5152349896
15.5333519172
15.5510240512
15.5681370265
15.5846143796
15.6004150656
15.6155394707
15.6300258003
15.6439584592
15.6574671977
15.670747712
15.6840650827
15.6977853633
15.7123965422
15.7285779436
15.747280308
15.7698179766
15.7991709057
15.8268309857
-1.15914591358
-1.19443678864
-1.23923991426
-1.27960412515
-1.33865799561
-1.43512090271
-1.5784771791
-1.77262280716
-2.02019222597
-2.32292892636
-2.68177600247
-3.09689111883
-3.5676496713
-4.09267039032
-4.66983531793
-5.29633368533
-5.96870724231
-6.68291434075
-7.43440139957
-8.2181851897
-9.02894695758
-9.86112665226
-10.7090325167
-11.5669393648
-12.4292015349
-13.2903419519
-14.1451554948
-14.9887771723
-15.8167626284
-16.6251236144
-17.4103775745
-18.1695476096
-18.9001796379
-19.600308232
-20.2684476868
-20.9035340883
-21.5048997079
-22.0722020787
-22.6053929863
-23.1046464565
-23.5703309579
-24.0029429881
-24.403084887
-24.771408247
-25.1086010318
-25.4153364772
-25.6922641213
-25.9399657719
-26.1589606945
-26.3496708042
-26.5124247404
-26.6474294043
-26.7547874015
-26.8344404552
-26.8860986963
-26.9091681656
-26.9027206812
-26.8658580579
-26.7977522094
-26.6979946845
-26.5666450003
-26.4037894542
-26.2099454444
-25.9859710199
-25.7329554687
-25.4523731615
-25.1461603794
-24.8165594363
-24.4661114372
-24.0975620698
-23.7137994656
-23.3177403985
-22.9122600587
-22.5000823282
-22.0837310817
-21.6654487982
-21.2471734151
-20.8304761217
-20.4165592598
-20.0062213868
-19.5998845059
-19.1975978372
-18.7991149822
-18.4039354434
-18.0113920836
-17.6206807554
-17.2309058613
-16.8409911374
-16.4495044709
-16.0544140198
-15.6527841844
-15.2405384865
-14.8120661915
-14.359991011
-13.8750130579
-13.3459254298
-12.7597909311
-12.1024096929
-11.3590314929
-10.5154150741
-9.55917765349
-8.48130807373
-7.27749618249
-5.94921554985
-4.50444760429
-2.9578775035
-1.33080644974
0.350529477983
2.05693284495
3.75894369963
5.42456665446
7.0259328986
8.53725444424
9.9374834154
11.2144645952
12.3530042521
13.3523110113
14.2148245199
14.9411209551
15.5414332233
16.0326374922
16.4236058225
16.7330315976
16.9676970946
17.1289263199
17.2286116951
17.2701849283
17.2574967373
17.2000936141
17.1087046861
16.9930971732
16.8615697607
16.7209579461
16.5768096703
16.4335334988
16.2945789079
16.1625434535
16.0392997391
15.9261038692
15.8237103798
15.7324428276
15.65233455
15.5831692525
15.5244241854
15.4756658883
15.4366505399
15.4068592733
15.3854344891
15.3714134165
15.3638328573
15.3617967074
15.3644689352
15.3710942946
15.380977247
15.3934973805
15.4080890748
15.4242560754
15.4415530197
15.4595972574
15.4780516342
15.4966349523
15.5151070647
15.5332759895
15.5509872571
15.5681284209
15.5846220569
15.6004293922
15.615548335
15.6300171146
15.6439182657
15.6573817995
15.6705974635
15.6838256651
15.6974231272
15.7118668253
15.727811261
15.7461658924
15.7681196905
15.7965391413
15.8192033699
-1.08725565338
-1.14069600258
-1.21789678657
-1.31294474892
-1.43289025581
-1.58488011472
-1.77543139867
-2.01029555778
-2.29388084005
-2.62906526674
-3.01746905988
-3.45964112534
-3.95516878025
-4.50276752578
-5.10034358209
-5.74506319302
-6.4334165758
-7.16129373992
-7.92406610746
-8.71667627241
-9.53373954447
-10.3696454442
-11.218673344
-12.0750973141
-12.9333041261
-13.7878878378
-14.6337547292
-15.4661935081
-16.2809528359
-17.0742750211
-17.8429373694
-18.5842459772
-19.2960409075
-19.9766555125
-20.6248941764
-21.2399690911
-21.8214635291
-22.3692595807
-22.88349981
-23.3645189109
-23.8128119857
-24.2289742278
-24.6136803546
-24.9676365534
-25.2915626989
-25.5861498083
-25.8520464234
-26.0898338068
-26.3000128178
-26.482971081
-26.6389884235
-26.7682734543
-26.8709203239
-26.9467503799
-26.9952808131
-27.0155076104
-27.0063611836
-26.9666217622
-26.8955344148
-26.7928512103
-26.6581102067
-26.4913319675
-26.2930456767
-26.0639686118
-25.8052095544
-25.5184178735
-25.2055980288
-24.8691295012
-24.5117078002
-24.1362535082
-23.7458208749
-23.3434870981
-22.9322554646
-22.5149530466
-22.0941561398
-21.6721245492
-21.2507604913
-20.8315700502
-20.4156581143
-20.0037356097
-19.596153211
-19.1929471033
-18.7939174567
-18.3987000643
-18.0068210476
-17.6177150934
-17.2307144199
-16.8449358996
-16.4590691555
-16.0710662714
-15.6779483285
-15.2755352436
-14.8581875148
-14.4186100568
-13.9477289735
-13.4346228663
-12.8665243271
-12.2290765025
-11.5069461099
-10.6848018002
-9.74889966545
-8.68895921639
-7.4998097396
-6.18242205812
-4.74451694408
-3.20025619565
-1.57062740706
0.117878523736
1.83451810216
3.54807486528
5.22674251266
6.83969708971
8.36280428496
9.76982808947
11.0479096848
12.1901387593
13.1897064794
14.0493845093
14.7806120714
15.3937153944
15.9005054661
16.3093320367
16.628801845
16.8686985632
17.0362278735
17.1401062205
17.1857184309
17.1787916022
17.1281026199
17.0434693547
16.9342192491
16.8084702649
16.6730704801
16.5335973363
16.3945469231
16.2594062236
16.1308364234
16.0107504731
15.9004547724
15.8007274552
15.711923193
15.6340899548
15.5669988411
15.51030189
15.4634149136
15.4259333593
15.3974967872
15.3772950083
15.3643696884
15.3577790959
15.3566308015
15.3601073409
15.3674532739
15.3779869709
15.3910861241
15.4061971392
15.4228216978
15.44052421
15.4589196489
15.4776798985
15.4965217741
15.5152125701
15.5335579786
15.5514082602
15.568648508
15.5852036359
15.6010311967
15.6161301026
15.6305329301
15.6443160563
15.6575978713
15.6705551208
15.6834242097
15.6965265582
15.7102795875
15.7252338619
15.7420963587
15.7616385954
15.7853166202
15.8000632013
-1.18635198421
-1.26287406336
-1.37002182537
-1.5061365734
-1.67335014442
-1.87456042718
-2.11359726704
-2.39451661915
-2.72082319224
-3.09513160128
-3.51908649283
-3.99334797162
-4.51761488404
-5.09068187174
-5.71049698077
-6.37423432293
-7.07836802801
-7.81875681519
-8.59073633079
-9.38921745825
-10.2087975311
-11.0438695952
-11.8887464983
-12.7377722084
-13.5854458678
-14.4265201284
-15.2561080089
-16.0697516399
-16.8634958266
-17.6339148314
-18.3781440969
-19.0938629462
-19.7792875151
-20.4331181012
-21.0545063835
-21.6429837765
-22.19841748
-22.7209361293
-23.2108894291
-23.6687818982
-24.0952431583
-24.4909758025
-24.8567378535
-25.1932957042
-25.5014080784
-25.7817901488
-26.0351083636
-26.2619387728
-26.4627431363
-26.6378439966
-26.7874672762
-26.9117606235
-27.01064138
-27.0837444873
-27.1303677531
-27.1491624548
-27.1385926305
-27.096997748
-27.0235357534
-26.9177343677
-26.7788560011
-26.6070358951
-26.4027232107
-26.1666061076
-25.8999806855
-25.6046828876
-25.282942349
-24.9373920139
-24.5709791408
-24.1868662108
-23.7883216539
-23.3785978924
-22.9608162644
-22.5378545316
-22.1122608845
-21.6861965694
-21.2614119146
-20.8392446321
-20.4206524016
-20.006271088
-19.5964837041
-19.1914862003
-18.7913497559
-18.3960508918
-18.0054500189
-17.6192357065
-17.2368658367
-16.857473528
-16.4796779299
-16.1013832397
-15.7195958143
-15.3303011931
-14.9281898979
-14.5063913303
-14.0562490469
-13.5670635848
-13.0258450099
-12.4173939893
-11.7250723716
-10.9318327374
-10.0221090181
-8.98430507137
-7.81265981513
-6.50759134152
-5.0759562592
-3.53075753643
-1.8931735017
-0.193477880824
1.53627368215
3.26346132482
4.95656896923
6.57940394477
8.10583869453
9.51834037589
10.7980558699
11.9399676363
12.9464873546
13.8216780914
14.5732064206
15.2060523407
15.7271477446
16.1467622053
16.4755906223
16.7233287567
16.8980779915
17.0078292102
17.0593033344
17.0594919968
17.0169290933
16.9408165089
16.8399974881
16.722336813
16.5945564005
16.462203445
16.3297686887
16.2007645165
16.0778747265
15.9630504685
15.8576239149
15.7624080558
15.6777823944
15.6038046485
15.540272279
15.4868411077
15.4430220897
15.4083875199
15.3824554829
15.3644377244
15.3534190924
15.3485040382
15.3488328133
15.3536170078
15.3621193147
15.3736767062
15.3876774562
15.4035810112
15.4208960869
15.4391985077
15.4581086591
15.4773072814
15.496514754
15.5155047656
15.5340855517
15.5521115103
15.5694680917
15.5860830205
15.6019121511
15.616950387
15.6312226371
15.644797146
15.6577770684
15.6703151904
15.682611764
15.694930675
15.7075973342
15.7210020427
15.7355535724
15.7514422057
15.7687976028
15.7748114617
-1.55568644748
-1.63706900563
-1.75444837106
-1.91063266641
-2.10529472821
-2.33927121
-2.61444037301
-2.93293896201
-3.29668827584
-3.70715307173
-4.16517223367
-4.67085097096
-5.2235076343
-5.82166993186
-6.46309514958
-7.1448166524
-7.86320559837
-8.61404688056
-9.39263031567
-10.1938479458
-11.0123086209
-11.8424499268
-12.6786674731
-13.5154298892
-14.3474075208
-15.1695727847
-15.9773079384
-16.7664709268
-17.5334637961
-18.2752505887
-18.9893784053
-19.6739470302
-20.3275890604
-20.9494053956
-21.5389216702
-22.0960088984
-22.6208357646
-23.1137920454
-23.5754484641
-24.0064939471
-24.4077115031
-24.7799330134
-25.1240214322
-25.4408265988
-25.7311708327
-25.9958225214
-26.235480659
-26.4507043801
-26.641901523
-26.8093001899
-26.9529807313
-27.0728499039
-27.1685027166
-27.2392691429
-27.2841543904
-27.3015108432
-27.2888830585
-27.244714994
-27.168058696
-27.0576612813
-26.9131118718
-26.7346024083
-26.5224717691
-26.2775892165
-26.0015935914
-25.6965329432
-25.364914637
-25.0096314719
-24.6338678797
-24.2409873906
-23.8344070979
-23.4174608801
-22.9932727249
-22.5646430464
-22.1339707304
-21.7032260065
-21.2739748349
-20.8474303753
-20.4245273446
-20.0060111911
-19.592507313
-19.1845528135
-18.7825931114
-18.3869213236
-17.9975759286
-17.6142388311
-17.2362060381
-16.8624390577
-16.4915658145
-16.1217108534
-15.7503734045
-15.3741687625
-14.9884983029
-14.587075979
-14.1615528127
-13.7011412787
-13.1922315697
-12.6183709684
-11.9613868517
-11.202508193
-10.323878061
-9.31192064472
-8.15961343122
-6.8669146197
-5.44021347438
-3.89413069885
-2.24995353675
-0.541084332454
1.19793694493
2.93176074617
4.62793232508
6.25379848572
7.77928535825
9.19029418439
10.475026435
11.6314743801
12.6595481472
13.5551119045
14.3225944225
14.9690418814
15.5031705918
15.9348433149
16.2742638096
16.5311787439
16.7142914698
16.8318341417
16.8913696784
16.9006448524
16.8680806309
16.8024592449
16.7121610465
16.6047845428
16.4868511975
16.3638489075
16.2402088669
16.1194624759
16.004290821
15.8966718107
15.7979580037
15.7089831451
15.6301496203
15.5615199345
15.5029224024
15.4539939926
15.4144133848
15.3837651196
15.3613849082
15.3464543053
15.3381337817
15.3355829524
15.3380039147
15.3446351734
15.354777521
15.3677796505
15.3830568139
15.4000756853
15.4183669523
15.4375103609
15.4571443126
15.4769522927
15.4966697237
15.5160719106
15.5349782363
15.5532435032
15.5707612523
15.5874555113
15.6032828317
15.6182315625
15.6323236366
15.6456117793
15.6581807325
15.6701511138
15.6816794677
15.6929578673
15.704198316
15.7155996951
15.7272441085
15.7387481294
15.7492112406
15.7459378665
-2.14478257575
-2.22083947751
-2.33654795806
-2.49858018731
-2.70546830226
-2.95713118765
-3.25407425995
-3.59697634082
-3.98642650167
-4.42273630819
-4.90578051639
-5.43488585961
-6.00876028616
-6.62546102782
-7.28239108149
-7.9763210294
-8.70343455804
-9.45938866573
-10.2393966731
-11.038317604
-11.8507689112
-12.671236585
-13.4942069506
-14.3142835464
-15.1263198009
-15.9255208106
-16.7075519422
-17.4686012904
-18.2054422074
-18.9154411489
-19.5965667704
-20.2473461519
-20.8668318763
-21.4545252008
-22.0103240009
-22.5344377405
-23.027336541
-23.4896749718
-23.9222541822
-24.3259631778
-24.7017606725
-25.0506320701
-25.3735718927
-25.6715402645
-25.9454461492
-26.1961005479
-26.4241904575
-26.6302093487
-26.8144288769
-26.9768726123
-27.1172833526
-27.2351348138
-27.3296054797
-27.399584598
-27.4436904238
-27.4600301143
-27.4458914983
-27.3993286734
-27.3190304673
-27.2036346022
-27.0530260758
-26.8673381996
-26.6469676537
-26.3932534574
-26.1080865438
-25.7937340922
-25.4529301343
-25.0887534757
-24.704534117
-24.3037314614
-23.8898000711
-23.4660505999
-23.035530358
-22.6009339608
-22.1645513389
-21.7282690141
-21.2936269381
-20.8618927731
-20.4341385549
-20.0113155289
-19.5942772822
-19.1837622865
-18.7803388408
-18.3843214276
-17.9956735326
-17.6139516441
-17.2383683438
-16.8680307105
-16.5020831822
-16.1395437309
-15.7788240003
-15.4173056542
-15.0507796398
-14.6729737543
-14.2751646516
-13.8459759316
-13.3709939473
-12.8325289262
-12.2108928708
-11.4857367579
-10.6362196447
-9.64616358985
-8.50800203298
-7.22424128198
-5.80347318932
-4.26064745072
-2.61552847364
-0.906204926947
0.82799166072
2.55571698711
4.24588806058
5.86632210387
7.39163879614
8.81238918014
10.1156281726
11.2891750932
12.3309392997
13.2403771404
14.0216514748
14.6814789932
15.2283646511
15.6719421796
16.0222833629
16.2892252812
16.4819200555
16.6089717095
16.6785380144
16.6987688544
16.6780535497
16.6248259039
16.5471046655
16.4521724169
16.3463570673
16.2350052068
16.1224839577
16.0122787164
15.9070646641
15.8088069136
15.7188717998
15.638096086
15.5668930774
15.5053324888
15.4532687122
15.4103473564
15.3764281169
15.3510719203
15.3333952371
15.3225849363
15.3178805124
15.3185151655
15.3237523739
15.3328731959
15.345215406
15.360154192
15.3771321379
15.3956342618
15.4152123302
15.4354606502
15.4560360353
15.476633818
15.4970043008
15.5169307343
15.5362442057
15.5548049699
15.5725124493
15.5892901037
15.6050975023
15.6199195975
15.633770726
15.6466864959
15.6587304592
15.6699882711
15.6805656989
15.6905722172
15.7000961207
15.7091380406
15.7174609468
15.7241845691
15.7276688685
15.7153183468
-2.85615379169
-2.92467487453
-3.03549007529
-3.19685213304
-3.4068582449
-3.6654199487
-3.97244860206
-4.32782447619
-4.73127867125
-5.18227793409
-5.67991464671
-6.22282207088
-6.80911737694
-7.43636714374
-8.10157989329
-8.80121555352
-9.53122210421
-10.2870829799
-11.0638927397
-11.8564378266
-12.6593065497
-13.4669964303
-14.2740485947
-15.075166798
-15.8653548389
-16.6400208201
-17.3950872742
-18.1270503497
-18.8330361383
-19.510797551
-20.1587111316
-20.7757190229
-21.3612832618
-21.9152984557
-22.4380314447
-22.9300315831
-23.392078232
-23.8251043456
-24.2301600297
-24.6083560812
-24.9608447338
-25.2887760915
-25.5932777239
-25.8754025095
-26.1360994928
-26.3761454432
-26.5961136272
-26.7963105512
-26.9767452696
-27.1371071035
-27.2767539556
-27.394704707
-27.4896843078
-27.5601150313
-27.6042016174
-27.6199350357
-27.6045924299
-27.5555252517
-27.4711861387
-27.3507773219
-27.1941489282
-27.0013940161
-26.7733075084
-26.5114879332
-26.2179221318
-25.895066684
-25.5458108359
-25.1733644111
-24.7811475863
-24.3726619039
-23.9513621827
-23.5205345819
-23.0832020488
-22.6420567434
-22.199411856
-21.7571906965
-21.3169731036
-20.8800646235
-20.447572373
-20.0204620748
-19.599567957
-19.1855775564
-18.7789933769
-18.3801291539
-17.9891085665
-17.6058793386
-17.2302277058
-16.8620190404
-16.5013581545
-16.1481877133
-15.8014247382
-15.4582900425
-15.1138186985
-14.7607047811
-14.3895085464
-13.988293624
-13.5421628252
-13.0325093675
-12.4381865473
-11.7380355703
-10.9094334761
-9.93536286423
-8.8110336212
-7.53991542265
-6.13167795349
-4.60442384363
-2.97687857712
-1.28418249929
0.43191259708
2.14291671792
3.82552681184
5.4487911866
6.9823960718
8.41166042237
9.72335286568
10.907247953
11.9596819957
12.8804772181
13.6733619225
14.3448020736
14.9031895397
15.3580232234
15.7193307566
15.9969981113
16.2004856131
16.3387003933
16.4202002721
16.4533282782
16.4464328863
16.4076369859
16.3446477788
16.2644144618
16.1730564825
16.0757304118
15.9767111668
15.8794006192
15.7864366425
15.6997563194
15.6207119339
15.5501402108
15.48844679
15.435715756
15.391810929
15.3565093691
15.3297176551
15.3108741235
15.2989755661
15.2932676703
15.2930588804
15.2976733418
15.306424667
15.3186572729
15.3337382922
15.3510901606
15.3701737788
15.3905115839
15.4116698412
15.4332753172
15.4549962302
15.4765546699
15.4977088929
15.5182635094
15.5380556099
15.556960634
15.5748788908
15.591743497
15.6075127864
15.6221708527
15.6357184573
15.6481783091
15.6595873265
15.6699958797
15.6794500948
15.6879757533
15.6955337112
15.7019328825
15.7066508671
15.7084146803
15.7051064086
15.6844206443
-3.59544969547
-3.65695914017
-3.76283930454
-3.92102503619
-4.12952782606
-4.38860837435
-4.69803813892
-5.05738458749
-5.46594350211
-5.92268056991
-6.42617273532
-6.9745567146
-7.5654960813
-8.19615654439
-8.86320570531
-9.56281983971
-10.2907190716
-11.0422073827
-11.8122447076
-12.5955213855
-13.3865672101
-14.1798576451
-14.9699519119
-15.7516157158
-16.5199650469
-17.2705738552
-17.9995863799
-18.7037737865
-19.380584047
-20.0281270371
-20.6451588977
-21.2310109697
-21.7855314327
-22.308987418
-22.8019979238
-23.2654390404
-23.7003871972
-24.1080416699
-24.4896862535
-24.8466307532
-25.180187751
-25.4916246493
-25.7821378096
-26.0527930263
-26.3044851835
-26.537871548
-26.7533303276
-26.9509068315
-27.130301021
-27.2908591867
-27.431586356
-27.5510960497
-27.6476819309
-27.7194519165
-27.764454711
-27.7806277139
-27.7650804085
-27.7146508786
-27.6276887899
-27.5036290426
-27.3420779975
-27.1431862712
-26.9081608406
-26.6387808229
-26.337215759
-26.0061563208
-25.6486862072
-25.2681746382
-24.8681462532
-24.4521594644
-24.0236911913
-23.5860371795
-23.1422276585
-22.6949501068
-22.2464907598
-21.7987145519
-21.3531119791
-20.9108866547
-20.473062891
-20.0405447837
-19.614137263
-19.1945674096
-18.7825220387
-18.3787228642
-17.9840074184
-17.5992471019
-17.2251159007
-16.86212838
-16.5105883558
-16.1700952005
-15.8386994859
-15.5124816263
-15.185258415
-14.8486327104
-14.4932407881
-14.1076155272
-13.6770112067
-13.1822698298
-12.6017818298
-11.9160035581
-11.1046771938
-10.1507511906
-9.05076941431
-7.80849342264
-6.43136390147
-4.93477201036
-3.33746415528
-1.66947148539
0.0298167206464
1.72945986954
3.40330038457
5.022097065
6.55676831016
7.98860911072
9.30372881192
10.4926208522
11.5511046522
12.4791028391
13.2801706538
13.9606220446
14.5286920191
14.9937753031
15.3657989538
15.6546790028
15.8700010816
16.0208890024
16.116077686
16.1639995832
16.1728681869
16.1505507911
16.1044159386
16.041116808
15.9665050991
15.8855505068
15.8023768929
15.7202944163
15.6418555255
15.5689620374
15.5029255005
15.4445671351
15.3942823666
15.3521553148
15.3180247528
15.2920092106
15.2738860169
15.2627492756
15.2577045357
15.2580899496
15.2632935645
15.2727138094
15.2857250386
15.3017265576
15.3201297103
15.3403985598
15.3620277312
15.3845750365
15.4076354461
15.4308655758
15.4539568238
15.4766557372
15.4987390783
15.5200319606
15.5403848123
15.5596866012
15.5778460524
15.594805112
15.610522166
15.6249781127
15.6381640687
15.6500878196
15.6607606262
15.6701927307
15.67837111
15.685238173
15.6906312649
15.6941844222
15.6951374881
15.6919337956
15.6821966577
15.6541300537
-4.28187847481
-4.33778367356
-4.43960517186
-4.59394551059
-4.79898196227
-5.05536213442
-5.36288029368
-5.72104060946
-6.12897082204
-6.58539763213
-7.08862119916
-7.6364871656
-8.22637574686