/*--------------------------------*- C++ -*----------------------------------*\
| =========                 |                                                 |
| \\      /  F ield         | OpenFOAM: The Open Source CFD Toolbox           |
|  \\    /   O peration     | Version:  v1806                                 |
|   \\  /    A nd           | Web:      www.OpenFOAM.com                      |
|    \\/     M anipulation  |                                                 |
\*---------------------------------------------------------------------------*/
FoamFile
{
    version     2.0;
    format      ascii;
    class       surfaceScalarField;
    location    "24";
    object      phi;
}
// * * * * * * * * * * * * * * * * * * * * * * * * * * * * * * * * * * * * * //

dimensions      [0 3 -1 0 0 0 0];
oriented        oriented;


internalField   nonuniform List<scalar> 
24170
(
3.07332822716e-06
1.15077695283e-07
2.98608764892e-06
8.72403320867e-08
2.90565589059e-06
8.0431330558e-08
2.82800688419e-06
7.76490183986e-08
2.7533639921e-06
7.4642556618e-08
2.68182967683e-06
7.15344019952e-08
2.61321922978e-06
6.86101077111e-08
2.54727801779e-06
6.5941292566e-08
2.48373140382e-06
6.35463674805e-08
2.42227957666e-06
6.14519417729e-08
2.36258327984e-06
5.9696151057e-08
2.30425056568e-06
5.83328714071e-08
2.24680890513e-06
5.74417042175e-08
2.18965588273e-06
5.71532959661e-08
2.13195220615e-06
5.77041106861e-08
2.07233769189e-06
5.96155505079e-08
2.00797719023e-06
6.43621973828e-08
7.95472694807e-08
1.92843130399e-06
3.43140407859e-06
1.0092248901e-07
3.42600430344e-06
9.26398625081e-08
3.41860560424e-06
8.78296516546e-08
3.40802098944e-06
8.82336519893e-08
3.39471684804e-06
8.79464514724e-08
3.37931423578e-06
8.69371255947e-08
3.36213327819e-06
8.57908590544e-08
3.34335237859e-06
8.4722315053e-08
3.32307466672e-06
8.38240195413e-08
3.30133221364e-06
8.31945997688e-08
3.27807669018e-06
8.29517821908e-08
3.25316831568e-06
8.32415718531e-08
3.22634893043e-06
8.42614564638e-08
3.19719022759e-06
8.63125550008e-08
3.16498295477e-06
8.99121857377e-08
3.12852571447e-06
9.60740425551e-08
3.08574735792e-06
1.07142420136e-07
1.26950139807e-07
3.03834531343e-06
3.67982151376e-06
8.36176215108e-08
3.68390148291e-06
8.85596679898e-08
3.68609024912e-06
8.56405471107e-08
3.68701256014e-06
8.73112587967e-08
3.68643118485e-06
8.85275741247e-08
3.68454038366e-06
8.88278853193e-08
3.68143866571e-06
8.88923307154e-08
3.67712948851e-06
8.90314386417e-08
3.67157710307e-06
8.9376214954e-08
3.66471480502e-06
9.00568558516e-08
3.65643496077e-06
9.12314901265e-08
3.64657858003e-06
9.30979231009e-08
3.6349168289e-06
9.59231526604e-08
3.62112459661e-06
1.00104800859e-07
3.60475018614e-06
1.06286700122e-07
3.58525195702e-06
1.15572592163e-07
3.56249044741e-06
1.29904287345e-07
1.50761754514e-07
3.53867807997e-06
3.93952262442e-06
6.94831866477e-08
3.94525093173e-06
8.28311307117e-08
3.94823885852e-06
8.26523199519e-08
3.95037783399e-06
8.51722190819e-08
3.95144737601e-06
8.74578610453e-08
3.95152835337e-06
8.87469179627e-08
3.95071865464e-06
8.97019107967e-08
3.94902368991e-06
9.07264386999e-08
3.94640035171e-06
9.19995495423e-08
3.94277813931e-06
9.36791793343e-08
3.93805704706e-06
9.59526990345e-08
3.93210399273e-06
9.90511973953e-08
3.92474835861e-06
1.03279054112e-07
3.91578392776e-06
1.09069575481e-07
3.90499907453e-06
1.17071998023e-07
3.89231097641e-06
1.28261243802e-07
3.87820376978e-06
1.44012123709e-07
1.64956501352e-07
3.86400906972e-06
4.21832607013e-06
5.82839711803e-08
4.22449896268e-06
7.66580140089e-08
4.22758066527e-06
7.95703147049e-08
4.22977370771e-06
8.29790271051e-08
4.23103157418e-06
8.61997596421e-08
4.23134657307e-06
8.84317954068e-08
4.23080485471e-06
9.02434056066e-08
4.22942685473e-06
9.21043094445e-08
4.22718179405e-06
9.4244425733e-08
4.22401364461e-06
9.68472058793e-08
4.21984522571e-06
1.00120968435e-07
4.21457967218e-06
1.04316635168e-07
4.20810624855e-06
1.09752357386e-07
4.20032046091e-06
1.16855247435e-07
4.19118053403e-06
1.26211822687e-07
4.18084550255e-06
1.3859624445e-07
4.16995413959e-06
1.54903268603e-07
1.75401265309e-07
4.15950838068e-06
4.51793040855e-06
4.94405210192e-08
4.52409505414e-06
7.04931379675e-08
4.52730928149e-06
7.63558408178e-08
4.52950136518e-06
8.07867993956e-08
4.53081815976e-06
8.48828331408e-08
4.53120165456e-06
8.80482223629e-08
4.53070913429e-06
9.07358494059e-08
4.52936846367e-06
9.34449425542e-08
4.5271601165e-06
9.64527710021e-08
4.52404117009e-06
9.99661730684e-08
4.51995527236e-06
1.04206937316e-07
4.51483880089e-06
1.09433208539e-07
4.50863400172e-06
1.15957272686e-07
4.50131885277e-06
1.24170496464e-07
4.49296923907e-06
1.34561519584e-07
4.48387134039e-06
1.47694113016e-07
4.47468092272e-06
1.64093603161e-07
1.83779372452e-07
4.46630262139e-06
4.83968098042e-06
4.24792291971e-08
4.84554964268e-06
6.46242232254e-08
4.84887792515e-06
7.30272813383e-08
4.85107180344e-06
7.85926899744e-08
4.85242060301e-06
8.3533812366e-08
4.85286141942e-06
8.76071989663e-08
4.85242014635e-06
9.11769200506e-08
4.8511253721e-06
9.47395216537e-08
4.84896816979e-06
9.86097925377e-08
4.84591938582e-06
1.03014773644e-07
4.84194415656e-06
1.08182006607e-07
4.83701257735e-06
1.14364616573e-07
4.83111746133e-06
1.21852214461e-07
4.82430751207e-06
1.30980226074e-07
4.81674371926e-06
1.42125036011e-07
4.80877932802e-06
1.55658240256e-07
4.80103715699e-06
1.71835428424e-07
1.90504914877e-07
4.79431012942e-06
5.18506684295e-06
3.6993114472e-08
5.1904682243e-06
5.92226104127e-08
5.19385589064e-06
6.9639370019e-08
5.19607397417e-06
7.63744330963e-08
5.19746599036e-06
8.21416389237e-08
5.19798945251e-06
8.70836367909e-08
5.19764319088e-06
9.15230795034e-08
5.19645108288e-06
9.59315779611e-08
5.19441468777e-06
1.00646126306e-07
5.19152131355e-06
1.05908142329e-07
5.1877603825e-06
1.11942925197e-07
5.1831375986e-06
1.18987432527e-07
5.17769459651e-06
1.27295179802e-07
5.17154054068e-06
1.37134211964e-07
5.16489700746e-06
1.48768390289e-07
5.15814811307e-06
1.62406855914e-07
5.1518683032e-06
1.78114503947e-07
1.95629361531e-07
5.14674324896e-06
5.5556756013e-06
3.26546114698e-08
5.56053120713e-06
5.43667287053e-08
5.56391136316e-06
6.62589209911e-08
5.56616995791e-06
7.41155775469e-08
5.56762204244e-06
8.06893109853e-08
5.56825259088e-06
8.64528644499e-08
5.56804400451e-06
9.17314562929e-08
5.56701428904e-06
9.6961094178e-08
5.56517594881e-06
1.02484283626e-07
5.56253532979e-06
1.08548576768e-07
5.55910832038e-06
1.15369801312e-07
5.55493622978e-06
1.23159343754e-07
5.55010524059e-06
1.3212599715e-07
5.54477283888e-06
1.42466352557e-07
5.53919944014e-06
1.54341467623e-07
5.53377394201e-06
1.67831968286e-07
5.5290119921e-06
1.82875981171e-07
1.99155471326e-07
5.52548439798e-06
5.95323119932e-06
2.91992705693e-08
5.95753133951e-06
5.00663526211e-08
5.96084448316e-06
6.29455752093e-08
5.96315475294e-06
7.18051194484e-08
5.96469433106e-06
7.91496194843e-08
5.9654689583e-06
8.56781282437e-08
5.96545498586e-06
9.17453860697e-08
5.96466539575e-06
9.77506289584e-08
5.96312277024e-06
1.04026899585e-07
5.96085305092e-06
1.10818359314e-07
5.957898482e-06
1.18324377765e-07
5.95433344396e-06
1.26724377752e-07
5.95028152205e-06
1.36177858144e-07
5.94593520527e-06
1.46812535672e-07
5.9415746824e-06
1.5870180258e-07
5.93757563326e-06
1.71830728688e-07
5.93439249576e-06
1.86058327811e-07
2.0104921384e-07
5.93249817609e-06
6.37959412929e-06
2.64168994773e-08
6.3833767789e-06
4.62834083673e-08
6.38658487654e-06
5.97371701289e-08
6.38895832128e-06
6.94314261226e-08
6.39062262553e-06
7.74850709633e-08
6.39159016566e-06
8.47104135041e-08
6.39183794244e-06
9.1497427661e-08
6.39137633125e-06
9.8212118772e-08
6.3902370813e-06
1.05166073413e-07
6.38846509808e-06
1.12590264479e-07
6.38612756993e-06
1.20661842735e-07
6.38332759446e-06
1.295242805e-07
6.38021764039e-06
1.39287678349e-07
6.37701181685e-06
1.50018198645e-07
6.37399399322e-06
1.61719386822e-07
6.37151358638e-06
1.74310829285e-07
6.36996217792e-06
1.87609423484e-07
2.01293130337e-07
6.36971717096e-06
5.74279591172e-06
2.44551499793e-08
5.74564342046e-06
4.34356688581e-08
5.74826357014e-06
5.71167923583e-08
5.7503312263e-06
6.73635533574e-08
5.75187007102e-06
7.59460486693e-08
5.75288436255e-06
8.36959620596e-08
5.75335737962e-06
9.1024279638e-08
5.75329781925e-06
9.82715617781e-08
5.75273859694e-06
1.05725180967e-07
5.7517304531e-06
1.13598336031e-07
5.75034639646e-06
1.22045834415e-07
5.74869044549e-06
1.31179768448e-07
5.74690577893e-06
1.41072148156e-07
5.74517959341e-06
1.51743849354e-07
5.74374440476e-06
1.6315427924e-07
5.74286920616e-06
1.75185510593e-07
5.74284098424e-06
1.87636772392e-07
2.00196060399e-07
5.74393730984e-06
7.0000609614e-06
2.25493250526e-08
7.00298516728e-06
4.05112387996e-08
7.00588762835e-06
5.42141166593e-08
7.00834118103e-06
6.49098050929e-08
7.01029271409e-06
7.39943545852e-08
7.01173166884e-06
8.22568727538e-08
7.01264184911e-06
9.01139952161e-08
7.01303542208e-06
9.78779033943e-08
7.01295697388e-06
1.0580358635e-07
7.01247757867e-06
1.14077754989e-07
7.01169646192e-06
1.22826365413e-07
7.01074820045e-06
1.32127811608e-07
7.0098062671e-06
1.42013313654e-07
7.00908566458e-06
1.52464128755e-07
7.00883659562e-06
1.63402539393e-07
7.00933275165e-06
1.74688824987e-07
7.01084753845e-06
1.86120981456e-07
1.97423429534e-07
7.01361949763e-06
8.53269894345e-06
2.06972262567e-08
8.53569912478e-06
3.75108710049e-08
8.53892107365e-06
5.09918801514e-08
8.54187049472e-06
6.19601930701e-08
8.54441086457e-06
7.14537204924e-08
8.54650487741e-06
8.01627099356e-08
8.54813504262e-06
8.84836147199e-08
8.54931836885e-06
9.66944676351e-08
8.55011197017e-06
1.05009872449e-07
8.55060773644e-06
1.13581501585e-07
8.55093177472e-06
1.22501923381e-07
8.55124571948e-06
1.31813087755e-07
8.55174835171e-06
1.41510169911e-07
8.55267074476e-06
1.51540969804e-07
8.55426809082e-06
1.6180472594e-07
8.55680219247e-06
1.72153831248e-07
8.56052162474e-06
1.82401014605e-07
1.92313134504e-07
8.5656307131e-06
1.04010640265e-05
1.88519566562e-08
1.04042067953e-05
3.43677631184e-08
1.04078530672e-05
4.73453949595e-08
1.04114841315e-05
5.83287282545e-08
1.04148893633e-05
6.80482894372e-08
1.04179951785e-05
7.7056484437e-08
1.04207787416e-05
8.56998746604e-08
1.04232613268e-05
9.42114870831e-08
1.04255114403e-05
1.02759450037e-07
1.04276388326e-05
1.11453444278e-07
1.04297905501e-05
1.20349633651e-07
1.0432147012e-05
1.29455748891e-07
1.04349189183e-05
1.3873792657e-07
1.04383373785e-05
1.48121820062e-07
1.04426434707e-05
1.57498369697e-07
1.04480696792e-05
1.66727008465e-07
1.04548232906e-05
1.75646995116e-07
1.84072643778e-07
1.04630636086e-05
1.26787417428e-05
1.68997508619e-08
1.26822076597e-05
3.09015736145e-08
1.2686516928e-05
4.30356684454e-08
1.26911604265e-05
5.36849406456e-08
1.2695871709e-05
6.33365296908e-08
1.27005373781e-05
7.2390562618e-08
1.27051213104e-05
8.1115420359e-08
1.27096449602e-05
8.96876009698e-08
1.27141811533e-05
9.82225484533e-08
1.27188484872e-05
1.06785748762e-07
1.27238005269e-05
1.15396590356e-07
1.27292208909e-05
1.24035354064e-07
1.27353102405e-05
1.3264777963e-07
1.27422800697e-05
1.41152241871e-07
1.27503339843e-05
1.49443783523e-07
1.27596586762e-05
1.57402765017e-07
1.27704033987e-05
1.64901582986e-07
1.71805106054e-07
1.2782671618e-05
1.54554500606e-05
1.46293064922e-08
1.5459595256e-05
2.67559139062e-08
1.54650284391e-05
3.76020818637e-08
1.54712559226e-05
4.7457055606e-08
1.54779707351e-05
5.66213644179e-08
1.54850174438e-05
6.53434756302e-08
1.5492337048e-05
7.37955001492e-08
1.54999384109e-05
8.20858244612e-08
1.55078857131e-05
9.02748953637e-08
1.5516286731e-05
9.83841516665e-08
1.55252816541e-05
1.06401423611e-07
1.55350299622e-05
1.14286596342e-07
1.5545700293e-05
1.21977458552e-07
1.55574566472e-05
1.29395584429e-07
1.55704483481e-05
1.36452305194e-07
1.5584796153e-05
1.43054761127e-07
1.56005857108e-05
1.49112453284e-07
1.54535847418e-07
1.56178548152e-05
1.88405760046e-05
1.16902260137e-08
1.88460147816e-05
2.13167283839e-08
1.88533640417e-05
3.02524754609e-08
1.8862106054e-05
3.87146870472e-08
1.88718841556e-05
4.68430153418e-08
1.88824925517e-05
5.47347564876e-08
1.88938333261e-05
6.24545705409e-08
1.89058829305e-05
7.00358924139e-08
1.89186740774e-05
7.74836510928e-08
1.89322788231e-05
8.4779023718e-08
1.89467958198e-05
9.18844090002e-08
1.89623341892e-05
9.87478831525e-08
1.89790040215e-05
1.05307732139e-07
1.89969024729e-05
1.11496843996e-07
1.90161076825e-05
1.17247266778e-07
1.90366679026e-05
1.22494239299e-07
1.90586003636e-05
1.27180207566e-07
1.31253151505e-07
1.90818826061e-05
2.29675815757e-05
7.44551631086e-09
2.29753823596e-05
1.35156337648e-08
2.2985984458e-05
1.96500815136e-08
2.29987297231e-05
2.59691309292e-08
2.30131620552e-05
3.2410493141e-08
2.30290030398e-05
3.88935075566e-08
2.30460930413e-05
4.53644759965e-08
2.30643499606e-05
5.17787172601e-08
2.30837475887e-05
5.80860281354e-08
2.31042953302e-05
6.42310398684e-08
2.31260234092e-05
7.01564172115e-08
2.31489665702e-05
7.58045405458e-08
2.31731553062e-05
8.11191547504e-08
2.31986049757e-05
8.60470748248e-08
2.32253117037e-05
9.05407618529e-08
2.32532459976e-05
9.45599038057e-08
2.32823529118e-05
9.80735463837e-08
1.01058135271e-07
2.3312547968e-05
1.68145666505e-05
3.58380826561e-09
1.68215255888e-05
6.55647634108e-09
1.68308078339e-05
1.03679241103e-08
1.68418009455e-05
1.49757892426e-08
1.68541385892e-05
2.00729259099e-08
1.68676088154e-05
2.5423003856e-08
1.68820772163e-05
3.08961300674e-08
1.68974568823e-05
3.63988658067e-08
1.69136976792e-05
4.18452460514e-08
1.6930771272e-05
4.71573652851e-08
1.69486600393e-05
5.2267580114e-08
1.696734804e-05
5.71165317029e-08
1.69868153225e-05
6.16516594148e-08
1.70070347241e-05
6.58277085895e-08
1.70279679741e-05
6.96071030052e-08
1.70495665417e-05
7.29612910001e-08
1.70717688361e-05
7.58705806005e-08
7.83229109913e-08
1.70945036794e-05
1.46386945562e-05
-5.42205834046e-10
1.46459835724e-05
-7.32480328917e-10
1.46553998022e-05
9.51506762869e-10
1.46662668148e-05
4.10886437089e-09
1.46782750384e-05
8.06459499794e-09
1.46912613868e-05
1.24368448674e-08
1.47051077966e-05
1.70496959033e-08
1.47197323956e-05
2.17743964574e-08
1.47350830423e-05
2.64947165324e-08
1.47511234746e-05
3.1116974906e-08
1.47678224198e-05
3.55687677057e-08
1.47851476078e-05
3.97912836771e-08
1.48030637793e-05
4.37356246625e-08
1.4821529741e-05
4.73615355271e-08
1.48404993482e-05
5.06375712921e-08
1.4859919723e-05
5.35405007556e-08
1.48797348421e-05
5.60553727828e-08
5.8173983851e-08
1.48998831046e-05
1.27446808232e-05
-5.09108104441e-09
1.27524159375e-05
-8.46775998086e-09
1.27618998594e-05
-8.53233377467e-09
1.27724514342e-05
-6.44278292627e-09
1.2783890123e-05
-3.37397849449e-09
1.27961161679e-05
2.10701215913e-10
1.28090321437e-05
4.13389474808e-09
1.28225716596e-05
8.23509228262e-09
1.28366939799e-05
1.23725531894e-08
1.28513671873e-05
1.64440596147e-08
1.2866558554e-05
2.03775688401e-08
1.28822326037e-05
2.41173909676e-08
1.28983497876e-05
2.76185363456e-08
1.29148660202e-05
3.08453060667e-08
1.29317325629e-05
3.37710428309e-08
1.29488961024e-05
3.63768144207e-08
1.29662995141e-05
3.86517965669e-08
4.05917260723e-08
1.29838815574e-05
1.10961573203e-05
-1.03195346811e-08
1.11044629176e-05
-1.67734605762e-08
1.11139055977e-05
-1.79752738901e-08
1.11239812253e-05
-1.65184869756e-08
1.11347125446e-05
-1.41054616526e-08
1.11460507527e-05
-1.11273755784e-08
1.11579168685e-05
-7.73219408089e-09
1.11702698025e-05
-4.11776644442e-09
1.11830880461e-05
-4.45464504871e-10
1.11963475495e-05
3.18462353087e-09
1.12100187807e-05
6.70649884891e-09
1.12240673472e-05
1.00690222519e-08
1.12384539406e-05
1.32320420896e-08
1.12531361195e-05
1.61633812353e-08
1.12680679144e-05
1.88390919353e-08
1.12832040731e-05
2.12408257807e-08
1.12985015842e-05
2.33539462024e-08
2.5168181274e-08
1.13139251371e-05
9.66146690316e-06
-1.65720395595e-08
9.6704236741e-06
-2.57304423589e-08
9.67964944326e-06
-2.72011224889e-08
9.68910626526e-06
-2.59755232037e-08
9.69902792551e-06
-2.40272267804e-08
9.7093772123e-06
-2.14769205783e-08
9.72010284147e-06
-1.84578810465e-08
9.73119884465e-06
-1.52137718536e-08
9.7426617652e-06
-1.19084736274e-08
9.75447558452e-06
-8.62907031864e-09
9.76661632654e-06
-5.43424064519e-09
9.7790550615e-06
-2.36959955513e-09
9.79175787927e-06
5.29258118771e-10
9.80468443813e-06
3.23686780423e-09
9.81778958054e-06
5.73406899197e-09
9.83102528229e-06
8.00506061986e-09
9.84434282173e-06
1.00363903411e-08
1.18170549439e-08
9.85769380938e-06
8.4131880988e-06
-2.44079425771e-08
8.42274852832e-06
-3.52910987068e-08
8.43153199876e-06
-3.598490528e-08
8.44031310431e-06
-3.47568363911e-08
8.44943474596e-06
-3.31491127178e-08
8.45882960654e-06
-3.08718601418e-08
8.46848014707e-06
-2.81086114982e-08
8.47841082994e-06
-2.5144621605e-08
8.48863026883e-06
-2.21280004379e-08
8.49912979424e-06
-1.91288431011e-08
8.5098916578e-06
-1.61961969052e-08
8.52089116046e-06
-1.33692643124e-08
8.53209682536e-06
-1.06763532725e-08
8.54347052144e-06
-8.13687647131e-09
8.55497056056e-06
-5.76602733516e-09
8.56655355392e-06
-3.57799089221e-09
8.57818325389e-06
-1.59333968765e-09
1.51762848922e-10
8.58984838004e-06
7.32729415429e-06
-3.44180143777e-08
7.33715934611e-06
-4.51565413207e-08
7.34524229391e-06
-4.40680455764e-08
7.35326774735e-06
-4.27825740079e-08
7.36150596597e-06
-4.13875627078e-08
7.36988398005e-06
-3.92501690272e-08
7.37844252795e-06
-3.6667371071e-08
7.38722833706e-06
-3.39306300358e-08
7.396253667e-06
-3.11535813352e-08
7.40551257378e-06
-2.8387890183e-08
7.41499062246e-06
-2.56745107588e-08
7.42466670918e-06
-2.30454987368e-08
7.43451301478e-06
-2.05229057227e-08
7.44449556167e-06
-1.81195877789e-08
7.45457220416e-06
-1.58428249211e-08
7.464691029e-06
-1.36970110909e-08
7.47479070199e-06
-1.16930465053e-08
-9.86981684908e-09
7.48481220955e-06
6.38320369339e-06
-4.75559866736e-08
6.39281557775e-06
-5.47686752179e-08
6.40021135617e-06
-5.14640972435e-08
6.40761910679e-06
-5.01905563851e-08
6.4150462558e-06
-4.88149811976e-08
6.42248139497e-06
-4.66855093887e-08
6.43002795432e-06
-4.4214179612e-08
6.4377449409e-06
-4.1647859764e-08
6.44564915439e-06
-3.90580209037e-08
6.45374084784e-06
-3.64798963986e-08
6.4620116471e-06
-3.39454659405e-08
6.47044573602e-06
-3.14799199203e-08
6.4790213326e-06
-2.90987074335e-08
6.48771044008e-06
-2.68089328139e-08
6.49647635049e-06
-2.46089715348e-08
6.50526671054e-06
-2.24875477275e-08
6.51400614656e-06
-2.04326896504e-08
-1.84667190961e-08
6.5226030893e-06
5.56224961311e-06
-6.43413632968e-08
5.57029416161e-06
-6.28135071816e-08
5.57679405787e-06
-5.79642455232e-08
5.5832911978e-06
-5.66880245197e-08
5.58956101718e-06
-5.50851383228e-08
5.5957148302e-06
-5.28396249426e-08
5.60188027203e-06
-5.03799112989e-08
5.60811102932e-06
-4.78788949757e-08
5.61442963105e-06
-4.53769250696e-08
5.62084769152e-06
-4.2898155414e-08
5.62736844726e-06
-4.04665436704e-08
5.63398824549e-06
-3.81000782917e-08
5.64069839965e-06
-3.58092173228e-08
5.64748581356e-06
-3.35966477268e-08
5.6543301853e-06
-3.14536245091e-08
5.66119000317e-06
-2.9347651871e-08
5.66795889785e-06
-2.72016307551e-08
-2.48066298721e-08
5.67429861416e-06
4.84629673597e-06
-8.30311575667e-08
4.84837299188e-06
-6.48900763469e-08
4.84976006935e-06
-5.93516374321e-08
4.85001332636e-06
-5.69416729014e-08
4.84925030167e-06
-5.43225175152e-08
4.84790024969e-06
-5.14899274084e-08
4.84621057019e-06
-4.86905687408e-08
4.84432594077e-06
-4.59945950415e-08
4.84235676969e-06
-4.34080679316e-08
4.8403911378e-06
-4.09328290238e-08
4.83849620512e-06
-3.85720100483e-08
4.83672209917e-06
-3.63264423787e-08
4.83510633714e-06
-3.41938831684e-08
4.83367815909e-06
-3.21688396917e-08
4.83246372863e-06
-3.02395445942e-08
4.83148845202e-06
-2.83726360813e-08
4.83076720266e-06
-2.64806158187e-08
-2.37470752596e-08
4.82970751103e-06
4.11964505182e-06
4.05475495049e-06
3.99540327872e-06
3.9384615666e-06
3.8841390122e-06
3.83264904686e-06
3.78395843852e-06
3.73796380111e-06
3.6945556916e-06
3.65362280404e-06
3.61505071646e-06
3.57872419663e-06
3.54453024243e-06
3.51236133173e-06
3.48212172197e-06
3.45374903353e-06
3.42726837899e-06
3.40352121909e-06
6.52088304286e-08
-6.52687238272e-08
5.63775079051e-08
8.76289109743e-09
-5.40289193849e-08
1.1037341603e-07
-2.52036681572e-07
1.97981481283e-07
-4.727476977e-07
2.20703313002e-07
-7.06116518986e-07
2.33357596371e-07
-9.49642093731e-07
2.43523690263e-07
-1.2016793549e-06
2.52031086762e-07
-1.46077812984e-06
2.5909832024e-07
-1.72562173373e-06
2.64839927759e-07
-1.99495102768e-06
2.69329539073e-07
-2.2675731263e-06
2.72619917626e-07
-2.54232638216e-06
2.74753844351e-07
-2.81809591216e-06
2.75768397192e-07
-3.09379390017e-06
2.75698790245e-07
-3.36837421657e-06
2.74579945561e-07
-3.64082216498e-06
2.72448853047e-07
-3.9101675023e-06
2.69345519427e-07
-4.17548114664e-06
2.65314646081e-07
-4.43588681038e-06
2.60406271024e-07
-4.69056266205e-06
2.54676882001e-07
-4.93875133412e-06
2.48189653525e-07
-5.17976506418e-06
2.41014865084e-07
-5.41299335543e-06
2.33229614145e-07
-5.63790948651e-06
2.24917347685e-07
-5.85407469998e-06
2.16166819534e-07
-6.06114407578e-06
2.07070645695e-07
-6.25886574846e-06
1.9772350279e-07
-6.44708422157e-06
1.88219786656e-07
-6.62573352846e-06
1.78651262668e-07
-6.79483662511e-06
1.69104292878e-07
-6.95449222219e-06
1.59657546182e-07
-7.10487051735e-06
1.50379397944e-07
-7.24619510355e-06
1.41326431066e-07
-7.37873615174e-06
1.32541875684e-07
-7.50278996116e-06
1.24055524453e-07
-7.61867282167e-06
1.15883550531e-07
-7.72670133229e-06
1.08030153431e-07
-7.82718959574e-06
1.00488853461e-07
-7.92043357168e-06
9.32455404006e-08
-8.00671368852e-06
8.62805929849e-08
-8.08628477178e-06
7.95724941946e-08
-8.15938437484e-06
7.30999110771e-08
-8.22622822598e-06
6.68450325391e-08
-8.28702288465e-06
6.07947372641e-08
-8.34196420336e-06
5.49422442109e-08
-8.39125102452e-06
4.92867395131e-08
-8.43508377108e-06
4.3833466846e-08
-8.47367582357e-06
3.8591841493e-08
-8.50724904156e-06
3.35738456793e-08
-8.53603925907e-06
2.8789994818e-08
-8.56028599737e-06
2.42473479308e-08
-8.58023332045e-06
1.99471434434e-08
-8.59611312057e-06
1.58803114271e-08
-8.60813333985e-06
1.20198863975e-08
-8.61645273918e-06
8.31983920778e-09
-8.62116092563e-06
4.70787837607e-09
-8.62230533306e-06
1.14484750368e-09
-8.61993394956e-06
-2.37176705712e-09
-8.61406176321e-06
-5.87166054919e-09
-8.60466445749e-06
-9.39754603419e-09
-8.59167580611e-06
-1.29880608378e-08
-8.57500518949e-06
-1.66709356755e-08
-8.55454967845e-06
-2.0454870263e-08
-8.53022257873e-06
-2.43273965478e-08
-8.50196714124e-06
-2.82546614326e-08
-8.46978524294e-06
-3.21821254625e-08
-8.43374951283e-06
-3.60349169318e-08
-8.39402584042e-06
-3.97239933997e-08
-8.35087386488e-06
-4.3151324411e-08
-8.30465541909e-06
-4.62189926954e-08
-8.25581865841e-06
-4.88363397402e-08
-8.20488958563e-06
-5.09298335028e-08
-8.15244012746e-06
-5.2449153112e-08
-8.09906663156e-06
-5.33742215588e-08
-8.04534951573e-06
-5.37167259018e-08
-7.99182841735e-06
-5.35215719595e-08
-7.93896564046e-06
-5.28624249112e-08
-7.88712919107e-06
-5.18370440628e-08
-7.83657068828e-06
-5.05583117275e-08
-7.78742459333e-06
-4.91465266487e-08
-7.73970485507e-06
-4.77195781742e-08
-7.69331900457e-06
-4.63859622447e-08
-7.64807964378e-06
-4.52387979768e-08
-7.60372509299e-06
-4.4353478678e-08
-7.55993486176e-06
-4.37882177535e-08
-7.51634428323e-06
-4.35873851423e-08
-7.4725491891e-06
-4.37895861687e-08
-7.42810421625e-06
-4.44383407018e-08
-7.38250088216e-06
-4.5589520137e-08
-7.335153568e-06
-4.73302615337e-08
-7.28535495651e-06
-4.97764362806e-08
-7.23224725023e-06
-5.30841055075e-08
-7.17478096926e-06
-5.74405234203e-08
-7.11169597943e-06
-6.30598974108e-08
-7.04150405403e-06
-7.0166615147e-08
-6.96250088667e-06
-7.89797645333e-08
-6.87279379715e-06
-8.96847736009e-08
-6.77036298142e-06
-1.02410929601e-07
-6.65314136902e-06
-1.17203231423e-07
-6.519125948e-06
-1.3399898766e-07
-6.36649798209e-06
-1.52611012012e-07
-6.19374930675e-06
-1.72732601539e-07
-5.99977734528e-06
-1.93953646659e-07
-5.78397045644e-06
-2.15791140164e-07
-5.54628280911e-06
-2.37670281278e-07
-5.28734663038e-06
-2.5892356858e-07
-5.00852558162e-06
-2.78806599756e-07
-4.71184817221e-06
-2.96668545083e-07
-4.39976544798e-06
-3.1207093974e-07
-4.07513183292e-06
-3.24628312583e-07
-3.7412305541e-06
-3.33892401244e-07
-3.40155643153e-06
-3.39673737115e-07
-3.05928829489e-06
-3.42264491787e-07
-2.71767928465e-06
-3.41616378991e-07
-2.37933771001e-06
-3.38347296527e-07
-2.04722644394e-06
-3.32132135353e-07
-1.72396150924e-06
-3.23292998619e-07
-1.41240892721e-06
-3.11600234226e-07
-1.11595578444e-06
-2.96502411286e-07
-8.36405408212e-07
-2.79602376337e-07
-5.88717606605e-07
-2.47719677568e-07
-3.49242930199e-07
-2.39489809006e-07
-5.50930000244e-08
-2.94151782869e-07
2.71228506063e-07
-3.26330939214e-07
5.64041745553e-07
-2.92813816615e-07
8.09862932193e-07
-2.45844019646e-07
1.02067240987e-06
-2.10826471857e-07
1.20434219432e-06
-1.83712516369e-07
1.36533039293e-06
-1.61026739619e-07
1.50634091267e-06
-1.41073955516e-07
1.62929603039e-06
-1.23014381559e-07
1.73565279872e-06
-1.06438886154e-07
1.8266776727e-06
-9.11038089928e-08
1.90346216332e-06
-7.68845869703e-08
1.96704580258e-06
-6.36830099399e-08
2.01837451743e-06
-5.14481024245e-08
2.05837375614e-06
-4.01271321772e-08
2.08791956052e-06
-2.96965749664e-08
2.10789449015e-06
-2.01381570802e-08
2.11921970221e-06
-1.14943559664e-08
2.12306480319e-06
-4.01535189311e-09
2.12081610288e-06
2.08454137858e-09
2.11337295637e-06
7.2797693721e-09
2.10118547116e-06
1.20297312172e-08
2.08476075608e-06
1.62672550394e-08
2.06466383531e-06
1.99456519191e-08
2.04141497169e-06
2.30981861372e-08
2.01549688106e-06
2.57734778268e-08
1.98733662034e-06
2.801573125e-08
1.95733444973e-06
2.98628498398e-08
1.92584432261e-06
3.13503815024e-08
1.89319903363e-06
3.25101696157e-08
1.85968982413e-06
3.33738143098e-08
1.82558957477e-06
3.39694906347e-08
1.79113328615e-06
3.43260423185e-08
1.75653941646e-06
3.44686288159e-08
1.72199193982e-06
3.44238348505e-08
1.68765939077e-06
3.42142754342e-08
1.65367914885e-06
3.38646485132e-08
1.62017365381e-06
3.33954574721e-08
1.58723722444e-06
3.28301139117e-08
1.5549488272e-06
3.21877643467e-08
1.52336176125e-06
3.14913021954e-08
1.49251206053e-06
3.07598104983e-08
1.46241102309e-06
3.00172508633e-08
1.43304860525e-06
2.92845999385e-08
1.40438848106e-06
2.85894258305e-08
1.37636528558e-06
2.79581177574e-08
1.34888104579e-06
2.74267753136e-08
1.32179400012e-06
2.70342048601e-08
1.29491360719e-06
2.6834928872e-08
1.26797590383e-06
2.68951866636e-08
1.24062816623e-06
2.73118265855e-08
1.21237484177e-06
2.82182002913e-08
1.18252103783e-06
2.98241454435e-08
1.15002905347e-06
3.24614479228e-08
1.11317131372e-06
3.68359173578e-08
1.06939284827e-06
4.37642314456e-08
6.31894439215e-08
1.00621128293e-06
-1.8396686625e-07
1.18675921152e-07
-4.11556432643e-07
2.36337540714e-07
-6.06092968864e-07
3.04902746208e-07
-7.7773446496e-07
3.69614770874e-07
-9.72164694519e-07
4.15129971676e-07
-1.18778028699e-06
4.48967927587e-07
-1.41963310011e-06
4.75374589289e-07
-1.66396613847e-06
4.96360674248e-07
-1.91794561563e-06
5.13076965698e-07
-2.17934083746e-06
5.26232877961e-07
-2.44629290931e-06
5.36281311386e-07
-2.71719666379e-06
5.43522354504e-07
-2.99060738021e-06
5.48164684439e-07
-3.26520162642e-06
5.5036206153e-07
-3.53973869613e-06
5.50236293572e-07
-3.81305053702e-06
5.47891749399e-07
-4.08402645869e-06
5.43425404749e-07
-4.35161425488e-06
5.36933660365e-07
-4.61481638935e-06
5.28517538699e-07
-4.87269578985e-06
5.18286323551e-07
-5.12437846425e-06
5.06360407475e-07
-5.36906099644e-06
4.92873064707e-07
-5.60601666715e-06
4.77971502959e-07
-5.83460278468e-06
4.618168775e-07
-6.05426780518e-06
4.44583441759e-07
-6.26455625063e-06
4.26456590353e-07
-6.46511432998e-06
4.07629910057e-07
-6.65569049967e-06
3.88301215265e-07
-6.83613722106e-06
3.68667779154e-07
-7.00640533223e-06
3.48920992114e-07
-7.1665404884e-06
3.29240734626e-07
-7.31667117987e-06
3.09789908469e-07
-7.45700011317e-06
2.90709560741e-07
-7.58778720726e-06
2.72115106359e-07
-7.70933803903e-06
2.54093825855e-07
-7.8219851197e-06
2.36704091275e-07
-7.92607684781e-06
2.19976302339e-07
-8.02196103906e-06
2.03915754701e-07
-8.10997816568e-06
1.88506928755e-07
-8.19045025391e-06
1.73718927371e-07
-8.26368039635e-06
1.59511565855e-07
-8.32994851223e-06
1.45841730388e-07
-8.38951775068e-06
1.32669797423e-07
-8.44263624305e-06
1.19964402042e-07
-8.4895462241e-06
1.07705132212e-07
-8.53048799522e-06
9.58846161229e-08
-8.56570953963e-06
8.450848682e-08
-8.59546966265e-06
7.35940003459e-08
-8.62004131613e-06
6.31635350658e-08
-8.63970551479e-06
5.32382809622e-08
-8.65474893338e-06
4.38334076103e-08
-8.6654610146e-06
3.49596444701e-08
-8.67212025147e-06
2.66063010988e-08
-8.67496618459e-06
1.87263104487e-08
-8.67418564186e-06
1.12391826902e-08
-8.66989002087e-06
4.02427925714e-09
-8.66221255382e-06
-2.96975199336e-09
-8.65128937622e-06
-9.77828740056e-09
-8.6371141174e-06
-1.6547118189e-08
-8.61956292e-06
-2.34226629264e-08
-8.59846496162e-06
-3.04954437925e-08
-8.5736369152e-06
-3.78158057797e-08
-8.54491318157e-06
-4.5394550305e-08
-8.5121698577e-06
-5.31977956294e-08
-8.47534829847e-06
-6.11487108766e-08
-8.43447186252e-06
-6.91306082079e-08
-8.38966232882e-06
-7.69913603164e-08
-8.34114383623e-06
-8.4552942092e-08
-8.28924391859e-06
-9.16237541317e-08
-8.23438213812e-06
-9.80128844451e-08
-8.17705506301e-06
-1.03546213117e-07
-8.11780953842e-06
-1.08081946631e-07
-8.05721511464e-06
-1.11524664576e-07
-7.99582913584e-06
-1.13835438703e-07
-7.9341664867e-06
-1.15037346212e-07
-7.87266849235e-06
-1.15214953381e-07
-7.81168232462e-06
-1.14508167976e-07
-7.75144473664e-06
-1.13100348953e-07
-7.69207957776e-06
-1.11202710653e-07
-7.63360188912e-06
-1.09036378287e-07
-7.57593433197e-06
-1.06814558016e-07
-7.51892741734e-06
-1.04726807741e-07
-7.46238585085e-06
-1.02927689991e-07
-7.40609243781e-06
-1.0153193398e-07
-7.34982900443e-06
-1.00616188277e-07
-7.29338734554e-06
-1.00228162643e-07
-7.23656983844e-06
-1.00401956672e-07
-7.17917618234e-06
-1.01179877052e-07
-7.12097069289e-06
-1.02635058966e-07
-7.0616489108e-06