/*--------------------------------*- C++ -*----------------------------------*\
| =========                 |                                                 |
| \\      /  F ield         | OpenFOAM: The Open Source CFD Toolbox           |
|  \\    /   O peration     | Version:  v1806                                 |
|   \\  /    A nd           | Web:      www.OpenFOAM.com                      |
|    \\/     M anipulation  |                                                 |
\*---------------------------------------------------------------------------*/
FoamFile
{
    version     2.0;
    format      ascii;
    class       surfaceScalarField;
    location    "24";
    object      phia;
}
// * * * * * * * * * * * * * * * * * * * * * * * * * * * * * * * * * * * * * //

dimensions      [0 3 -1 0 0 0 0];
oriented        oriented;


internalField   nonuniform List<scalar> 
24170
(
1.92441731673e-07
1.35192618239e-07
2.88065220235e-07
-8.78888225082e-08
2.76373107143e-07
1.63876923263e-08
2.87431012982e-07
-9.99667558978e-09
2.94048684723e-07
-5.48955749151e-09
3.02990834555e-07
-8.92992501987e-09
3.13044809208e-07
-1.01738981989e-08
3.25184512804e-07
-1.2426727806e-08
3.39234349074e-07
-1.45089759301e-08
3.55488713338e-07
-1.63513330528e-08
3.73472263751e-07
-1.82221509841e-08
3.95165165238e-07
-2.16028518826e-08
4.25699064843e-07
-3.04891656058e-08
4.72637162366e-07
-4.66770565734e-08
5.33814002794e-07
-6.08159179715e-08
5.84482069719e-07
-4.99517626793e-08
6.46987312032e-07
-6.13825738009e-08
-5.58056753668e-07
1.20621738682e-06
8.14664529267e-07
-3.21014167555e-07
3.91192165057e-07
3.47037704629e-07
4.79603749549e-07
-6.55202883427e-08
4.80013164987e-07
-7.82234647857e-09
4.96265903704e-07
-2.01247963742e-08
5.09279287772e-07
-2.16613683565e-08
5.25075944381e-07
-2.62935866845e-08
5.42449775028e-07
-3.04503993738e-08
5.61816555247e-07
-3.46942508865e-08
5.83287840976e-07
-3.83194380856e-08
6.06775366359e-07
-4.21504835305e-08
6.34171252685e-07
-4.91415537314e-08
6.68271614066e-07
-6.46502085536e-08
7.10037094428e-07
-8.83251237004e-08
7.51092030932e-07
-1.01584517048e-07
7.86008473316e-07
-8.42914586771e-08
8.76713907998e-07
-1.51158071627e-07
-6.76408110866e-07
9.95662704859e-07
-1.40209794779e-07
1.87745654904e-07
4.65938472454e-07
-2.56603704378e-07
3.774342985e-07
2.49400253486e-08
3.85986983767e-07
-1.63148553166e-08
3.84986564256e-07
-1.8925729231e-08
3.88488257566e-07
-2.54531005145e-08
3.91969958197e-07
-2.99997378891e-08
3.97142634309e-07
-3.57986446997e-08
4.03802685781e-07
-4.15067255758e-08
4.12575879665e-07
-4.70373723814e-08
4.24100212481e-07
-5.36469136595e-08
4.40672497206e-07
-6.55427185848e-08
4.64385503716e-07
-8.81814838391e-08
4.94095205459e-07
-1.17772466525e-07
5.2599027469e-07
-1.33159473834e-07
5.78060470904e-07
-1.35915555136e-07
6.93391128859e-07
-2.65953290291e-07
-6.9589734865e-07
7.12983352655e-07
8.95988404557e-07
-3.04924933139e-07
3.73018937394e-07
2.73787833185e-07
4.64622717109e-07
-6.23069750616e-08
4.59383850209e-07
-9.42550112498e-09
4.70230419739e-07
-2.90815077618e-08
4.75482875053e-07
-3.08795062498e-08
4.83197403624e-07
-3.82387901284e-08
4.90777674356e-07
-4.40033957982e-08
4.99006178909e-07
-5.03185563009e-08
5.07897600389e-07
-5.62853209533e-08
5.18183896438e-07
-6.41522515925e-08
5.31144138052e-07
-7.8524989155e-08
5.46428096933e-07
-1.03378277862e-07
5.60455249544e-07
-1.31591852799e-07
5.74247173519e-07
-1.4664027654e-07
6.11402746093e-07
-1.72636426215e-07
6.73500344954e-07
-3.2752478178e-07
-6.38882920486e-07
6.16830247841e-07
1.44784307059e-08
9.9011582538e-08
5.21781756005e-07
-2.34018063804e-07
4.24255605949e-07
3.52948489917e-08
4.47411061515e-07
-3.29564958162e-08
4.47576399665e-07
-2.94823677706e-08
4.56462128355e-07
-4.00512112995e-08
4.64076706149e-07
-4.60359374009e-08
4.73666863832e-07
-5.36187086806e-08
4.84390226669e-07
-6.10059935474e-08
4.97088859177e-07
-6.8819345655e-08
5.12642542695e-07
-7.95357033687e-08
5.31742606859e-07
-9.73809030827e-08
5.52477732032e-07
-1.23845214551e-07
5.71377292727e-07
-1.50189827555e-07
5.93363891226e-07
-1.68299192932e-07
6.33782547234e-07
-2.12676971342e-07
6.64481542922e-07
-3.57861037345e-07
-5.662547505e-07
5.91904708679e-07
8.2217972483e-07
-2.67921794543e-07
4.15555764757e-07
1.75744772433e-07
4.92906973602e-07
-3.99910460428e-08
4.92170460431e-07
-3.14609068855e-08
5.00237769211e-07
-3.73440744419e-08
5.05212668435e-07
-4.52939153819e-08
5.11685750527e-07
-5.28573282875e-08
5.18566084547e-07
-6.08609218285e-08
5.26326719e-07
-6.90002785585e-08
5.35594556267e-07
-7.82173789755e-08
5.47376292363e-07
-9.12986051368e-08
5.61756938776e-07
-1.116468196e-07
5.76636268471e-07
-1.38522863564e-07
5.9091901972e-07
-1.64208426833e-07
6.11729153926e-07
-1.88795326529e-07
6.43972965799e-07
-2.44577419349e-07
6.52437870403e-07
-3.65975119099e-07
-5.0169076221e-07
5.88255166481e-07
1.99021331198e-07
1.20678160464e-08
5.31447617967e-07
-1.59269592047e-07
5.10561284208e-07
-2.02666306726e-08
5.14341999028e-07
-3.5960641881e-08
5.21424907201e-07
-4.47433526831e-08
5.28779296195e-07
-5.28425554129e-08
5.36795185424e-07
-6.08582879482e-08
5.4544504824e-07
-6.93879373095e-08
5.54904638757e-07
-7.82364027435e-08
5.65704204293e-07
-8.87600679596e-08
5.7826526685e-07
-1.03564904129e-07
5.91773599875e-07
-1.24850907057e-07
6.04181975702e-07
-1.50601335288e-07
6.16149012673e-07
-1.75852897362e-07
6.33558231628e-07
-2.05871271918e-07
6.53386239676e-07
-2.64064430114e-07
6.46842375555e-07
-3.59034800726e-07
-4.48666608939e-07
5.93644317292e-07
7.00577981386e-07
-1.718270075e-07
5.23791142026e-07
1.68824484564e-08
5.41826159666e-07
-3.83536902987e-08
5.50949525487e-07
-4.51198788435e-08
5.56485903746e-07
-5.04101285884e-08
5.63109258447e-07
-5.96395769172e-08
5.70112746286e-07
-6.80253558574e-08
5.77929427694e-07
-7.72646736786e-08
5.86739795288e-07
-8.70499329386e-08
5.97048551347e-07
-9.89552156767e-08
6.08785642993e-07
-1.15126804885e-07
6.20690721155e-07
-1.36498958321e-07
6.31209514682e-07
-1.60866318795e-07
6.4167444296e-07
-1.86007536035e-07
6.54887753669e-07
-2.18800690805e-07
6.63813991226e-07
-2.72650664196e-07
6.49013883639e-07
-3.4415099608e-07
-4.0432438314e-07
6.04867192348e-07
4.99800046037e-07
-1.21557680335e-07
5.76535147367e-07
-6.3205681323e-08
5.80574314246e-07
-4.42479151573e-08
5.85503714412e-07
-5.09660270779e-08
5.92122438326e-07
-5.7410604082e-08
5.98587840073e-07
-6.6183283262e-08
6.05518565535e-07
-7.48332726034e-08
6.12973071239e-07
-8.44750034021e-08
6.21301160843e-07
-9.50689649965e-08
6.30785529009e-07
-1.08099224819e-07
6.41050882627e-07
-1.2501626822e-07
6.50821620305e-07
-1.45929787073e-07
6.59298711776e-07
-1.68971213817e-07
6.67622793048e-07
-1.9401382448e-07
6.75906018378e-07
-2.26738846364e-07
6.76514735359e-07
-2.72990798261e-07
6.58159008816e-07
-3.25521482001e-07
-3.66998775859e-07
6.20602650485e-07
6.26686353776e-07
-1.57236917853e-07
6.10489354529e-07
-4.96544557736e-08
6.17796554904e-07
-5.28911731205e-08
6.23708125459e-07
-5.76209290731e-08
6.29818841872e-07
-6.38903173188e-08
6.36106064852e-07
-7.27415442422e-08
6.42727620544e-07
-8.15371432317e-08
6.49792425232e-07
-9.15803106398e-08
6.57570016901e-07
-1.02733722316e-07
6.66070040972e-07
-1.1642059802e-07
6.74679485264e-07
-1.33375272557e-07
6.82345092666e-07
-1.5330666909e-07
6.88723503985e-07
-1.75024118532e-07
6.94335828326e-07
-1.99282360457e-07
6.97634813231e-07
-2.29721182889e-07
6.9244149613e-07
-2.67446789158e-07
6.72733123596e-07
-3.05794793629e-07
-3.34382866739e-07
6.4021592896e-07
6.51207317037e-07
-1.75627015601e-07
6.55080466368e-07
-5.70387779124e-08
6.59210475494e-07
-5.91880887416e-08
6.64606356936e-07
-6.40993292507e-08
6.70265589477e-07
-7.00878637289e-08
6.76139919063e-07
-7.87101988096e-08
6.82257274913e-07
-8.76043756161e-08
6.88753538427e-07
-9.78249173506e-08
6.95716514728e-07
-1.09423557812e-07
7.02971962526e-07
-1.23291233759e-07
7.09782235576e-07
-1.39814527198e-07
7.1538118851e-07
-1.58460993497e-07
7.1958741024e-07
-1.78813996201e-07
7.22189619343e-07
-2.0145810601e-07
7.21119282853e-07
-2.28212161358e-07
7.11980759239e-07
-2.58009268035e-07
6.92153368514e-07
-2.85642230574e-07
-3.05619743929e-07
6.63286486128e-07
5.86616335518e-07
-1.92999757884e-07
5.87593871808e-07
-6.15023394371e-08
5.90375143726e-07
-6.41491884877e-08
5.94409174764e-07
-6.93031472724e-08
5.98752250162e-07
-7.50043166257e-08
6.03265351648e-07
-8.34129013547e-08
6.07953068991e-07
-9.22324857853e-08
6.1284257537e-07
-1.02536684356e-07
6.17942394755e-07
-1.14166681831e-07
6.22934757268e-07
-1.27922637044e-07
6.2726749019e-07
-1.43669055595e-07
6.30396535349e-07
-1.61316939091e-07
6.32270622952e-07
-1.80043241233e-07
6.32187534995e-07
-2.01023179436e-07
6.28606733633e-07
-2.24128182944e-07
6.19105921452e-07
-2.48141923809e-07
6.02644300545e-07
-2.69086950647e-07
-2.83541556816e-07
5.80715569632e-07
7.13279821897e-07
-2.09904667771e-07
7.14009551909e-07
-6.50357212246e-08
7.16486071272e-07
-6.84149776881e-08
7.20396360011e-07
-7.43239463112e-08
7.24753626736e-07
-7.98600120334e-08
7.29288253252e-07
-8.81216598717e-08
7.3395546181e-07
-9.68336644004e-08
7.38735575957e-07
-1.07053051067e-07
7.43463407077e-07
-1.18597961383e-07
7.47793109994e-07
-1.31787625303e-07
7.5095737199e-07
-1.46693819811e-07
7.52850640868e-07
-1.62595692504e-07
7.52811833964e-07
-1.79779697583e-07
7.50404695043e-07
-1.97923832344e-07
7.43757020791e-07
-2.17171483509e-07
7.31547855172e-07
-2.35467963362e-07
7.13251401687e-07
-2.50628371516e-07
-2.60431301388e-07
6.90302238379e-07
8.65604297667e-07
-2.25470129596e-07
8.66796132392e-07
-6.84442421402e-08
8.68877156669e-07
-7.22324439298e-08
8.72392957471e-07
-7.84308054623e-08
8.76347508874e-07
-8.43138319494e-08
8.80528973893e-07
-9.2152274861e-08
8.84717032947e-07
-1.00874349911e-07
8.8883935666e-07
-1.10758401121e-07
8.92632348959e-07
-1.21923344174e-07
8.95473581189e-07
-1.342987096e-07
8.9695715056e-07
-1.47818278666e-07
8.96590927336e-07
-1.61978529441e-07
8.94142764949e-07
-1.7673802373e-07
8.88485061147e-07
-1.91868994545e-07
8.78699905115e-07
-2.06743484941e-07
8.63634079902e-07
-2.20060475639e-07
8.43725712678e-07
-2.3024639246e-07
-2.36429901539e-07
8.19874711016e-07
1.05028225712e-06
-2.37825266107e-07
1.05103140419e-06
-7.12653640722e-08
1.05267750524e-06
-7.48715473516e-08
1.05511449427e-06
-8.18102134944e-08
1.0583165348e-06
-8.73513198865e-08
1.06128972356e-06
-9.51968051094e-08
1.06441055932e-06
-1.03353141534e-07
1.06697758684e-06
-1.12928226919e-07
1.06898666537e-06
-1.23178675229e-07
1.06943595001e-06
-1.34560382349e-07
1.06835313422e-06
-1.46189549451e-07
1.06494092905e-06
-1.58371162645e-07
1.0591845095e-06
-1.70290324999e-07
1.0499188405e-06
-1.82135223483e-07
1.03673511458e-06
-1.92838324478e-07
1.01908954698e-06
-2.01847403586e-07
9.97467994231e-07
-2.0810264217e-07
-2.11213196372e-07
9.72894422117e-07
1.26826344789e-06
-2.40451234848e-07
1.27411911319e-06
-7.86175300417e-08
1.2748434979e-06
-7.68532011269e-08
1.27589632744e-06
-8.31518336301e-08
1.2771900324e-06
-8.88598773494e-08
1.27847572025e-06
-9.59392866291e-08
1.2792070264e-06
-1.037307668e-07
1.27953058259e-06
-1.12330735039e-07
1.27835858535e-06
-1.21671095958e-07
1.27591425983e-06
-1.31272912749e-07
1.2709288929e-06
-1.41174841601e-07
1.26415728356e-06
-1.50707308433e-07
1.25412555894e-06
-1.59997230171e-07
1.2413444365e-06
-1.68350894702e-07
1.22459605516e-06
-1.75599196164e-07
1.20470169942e-06
-1.80985209469e-07
1.18155074091e-06
-1.84356775315e-07
-1.85663406199e-07
1.15677316196e-06
1.57929291958e-06
-2.7560959615e-07
1.54313705769e-06
-4.36812411598e-08
1.54024977138e-06
-7.47669864868e-08
1.53949304434e-06
-8.26869627421e-08
1.53793941354e-06
-8.72104484834e-08
1.5357609301e-06
-9.33714477627e-08
1.53293931826e-06
-1.00304626833e-07
1.52912897625e-06
-1.07860340657e-07
1.52393072274e-06
-1.15728845488e-07
1.51673474649e-06
-1.23619847344e-07
1.50752687578e-06
-1.31275405332e-07
1.4957661409e-06
-1.38444949594e-07
1.4815234939e-06
-1.44938521935e-07
1.46429126508e-06
-1.50460206598e-07
1.44439458078e-06
-1.54779929204e-07
1.42183986046e-06
-1.57651710712e-07
1.39735212636e-06
-1.58918577213e-07
-1.58186022754e-07
1.37064712428e-06
1.69760784099e-06
-9.13398222998e-08
1.84853934501e-06
-1.95759306751e-07
1.86684841671e-06
-9.40110532845e-08
1.86205669978e-06
-7.79985988305e-08
1.85496506315e-06
-7.99831204797e-08
1.84756585693e-06
-8.55466044877e-08
1.83979254314e-06
-9.19164335336e-08
1.83083676209e-06
-9.83261581775e-08
1.82056609702e-06
-1.04679840501e-07
1.80815242296e-06
-1.10679725494e-07
1.79395609559e-06
-1.16246555832e-07
1.77718435934e-06
-1.21133155577e-07
1.75840501933e-06
-1.25230609077e-07
1.73694737631e-06
-1.28362664761e-07
1.71357557176e-06
-1.30392145213e-07
1.68786261765e-06
-1.31174867996e-07
1.66077030656e-06
-1.30785024892e-07
-1.29875106084e-07
1.63329225108e-06
2.86121722433e-06
-6.58194298712e-07
2.39054389507e-06
2.72272859113e-07
2.28499493516e-06
1.11518993778e-08
2.2529499284e-06
-4.69912070035e-08
2.23682038355e-06
-6.34114480225e-08
2.22327891028e-06
-7.20709703929e-08
2.21067889559e-06
-7.83812050058e-08
2.19657497431e-06
-8.3929771624e-08
2.18175658218e-06
-8.88199126988e-08
2.16470847122e-06
-9.3246530268e-08
2.14657574531e-06
-9.7049605802e-08
2.12620619082e-06
-1.00302991741e-07
2.10488507522e-06
-1.02813045742e-07
2.08176104861e-06
-1.04643169347e-07
2.05822898588e-06
-1.05721039307e-07
2.03414283102e-06
-1.06323198878e-07
2.01080412551e-06
-1.06320057875e-07
-1.04893680086e-07
1.98677603648e-06
6.97372071564e-07
3.20527355866e-07
1.48797635996e-06
-5.21041770706e-07
1.59166587571e-06
-9.59684389977e-08
1.59602636908e-06
-5.24825720092e-08
1.5869753348e-06
-5.52278207514e-08
1.57564730028e-06
-6.08198318734e-08
1.56299011477e-06
-6.57043797493e-08
1.54903132222e-06
-6.9762828218e-08
1.53388109181e-06
-7.33245531523e-08
1.51739272404e-06
-7.64427495671e-08
1.49974838874e-06
-7.89613632746e-08
1.48083832651e-06
-8.09813924677e-08
1.46085649364e-06
-8.24126581738e-08
1.44000666922e-06
-8.32639111215e-08
1.41803814189e-06
-8.34357844006e-08
1.39504087366e-06
-8.26556617585e-08
1.369927415e-06
-8.11123279331e-08
-8.04266795177e-08
1.3461141076e-06
2.69765816089e-06
-9.14877023228e-07
1.52424167952e-06
6.4950383323e-07
1.43785128925e-06
-9.50070266526e-09
1.43627312138e-06
-5.28117120271e-08
1.43589033042e-06
-5.55449570854e-08
1.4306379148e-06
-5.66158679002e-08
1.4236442005e-06
-5.88540408593e-08
1.41513584875e-06
-6.14370114097e-08
1.40564209952e-06
-6.38778294692e-08
1.39543342472e-06
-6.59913609722e-08
1.38443126999e-06
-6.785915986e-08
1.37296802179e-06
-6.91458573069e-08
1.36080253247e-06
-6.99859547879e-08
1.34816073761e-06
-7.02193648741e-08
1.33526323196e-06
-7.00417836584e-08
1.32262182109e-06
-6.97165654968e-08
1.31146936239e-06
-6.93128980563e-08
-6.59765718507e-08
1.29704559875e-06
-4.92863771562e-07
8.5089137405e-07
1.1658430802e-06
-1.00850378517e-06
1.20047291736e-06
-4.61847399639e-08
1.18297201961e-06
-3.52275019254e-08
1.16574385419e-06
-3.89269826138e-08
1.15395490269e-06
-4.45190732202e-08
1.14125304319e-06
-4.65353941369e-08
1.12801093386e-06
-4.8456250763e-08
1.11438232654e-06
-5.0219617499e-08
1.10020495461e-06
-5.1974974303e-08
1.0859911013e-06
-5.3359503917e-08
1.07141372494e-06
-5.45342417377e-08
1.05709412581e-06
-5.52778643326e-08
1.04286483713e-06
-5.57739375916e-08
1.02913253739e-06
-5.58221538491e-08
1.01493206707e-06
-5.51841424078e-08
9.99700333548e-07
-5.36362031707e-08
-5.6096431216e-08
9.90146870917e-07
3.32252716332e-06
-1.35904978983e-06
1.07408415952e-06
1.24167748289e-06
1.10987737314e-06
-7.9150498328e-08
1.12299487058e-06
-4.77240458207e-08
1.13224721144e-06
-4.73675869442e-08
1.12799461257e-06
-4.04198346402e-08
1.12352524785e-06
-4.18199367178e-08
1.11757969779e-06
-4.23425641612e-08
1.11059408908e-06
-4.32161812553e-08
1.10275220255e-06
-4.38135179809e-08
1.09379227959e-06
-4.43088011101e-08
1.08404621819e-06
-4.4542886342e-08
1.073472916e-06
-4.45721702151e-08
1.06228938612e-06
-4.42414638122e-08
1.05049985836e-06
-4.38001656869e-08
1.03956519683e-06
-4.38228996989e-08
1.0308440247e-06
-4.47411317286e-08
-3.95875127451e-08
1.01476799658e-06
-1.69173757025e-06
1.30156152474e-06
1.04898273886e-06
-1.49582233441e-06
9.04298828367e-07
6.66560123467e-08
8.90532081862e-07
-3.1922334135e-08
8.66022431529e-07
-2.16738282807e-08
8.5911218629e-07
-3.22302812222e-08
8.48301536299e-07
-3.044497972e-08
8.38135617455e-07
-3.17678930535e-08
8.27704788073e-07
-3.2379441787e-08
8.17335227889e-07
-3.31792588907e-08
8.07055825625e-07
-3.37500074473e-08
7.96940603732e-07
-3.42081748756e-08
7.87148692357e-07
-3.4478525169e-08
7.77775303885e-07
-3.45972882781e-08
7.6871120029e-07
-3.44679007004e-08
7.58562195004e-07
-3.33678632386e-08
7.44518551563e-07
-3.04761558025e-08
-3.5518552958e-08
7.40705770829e-07
3.41572827661e-06
-1.26758568352e-06
5.8298309647e-07
1.34134798921e-06
8.92873322828e-07
-2.39549654792e-07
8.712385213e-07
-7.79207116218e-09
8.91950498655e-07
-4.09373991176e-08
8.81747919197e-07
-2.12262552838e-08
8.7813125973e-07
-2.59048184766e-08
8.71701335519e-07
-2.47006493837e-08
8.65341249781e-07
-2.55288304801e-08
8.58463572537e-07
-2.58611290786e-08
8.51408493997e-07
-2.62978541197e-08
8.44188102759e-07
-2.66608328069e-08
8.36902237283e-07
-2.69287774542e-08
8.29611144777e-07
-2.70098433584e-08
8.22319773642e-07
-2.68867943556e-08
8.16504055143e-07
-2.73035159222e-08
8.15881242499e-07
-2.95933047836e-08
-2.08614538466e-08
8.01357661387e-07
-1.46736831756e-06
9.37245606214e-07
1.06225867003e-06
-1.18384100119e-06
6.33395341116e-07
1.92272083972e-07
6.87328624388e-07
-5.92186926169e-08
6.4970275147e-07
-1.16748477703e-09
6.52108657078e-07
-2.2269950745e-08
6.42384706307e-07
-1.53139948268e-08
6.36000811857e-07
-1.76561156799e-08
6.28306438049e-07
-1.73209471317e-08
6.20749940119e-07
-1.78565445924e-08
6.12892597048e-07
-1.80507342767e-08
6.04727671687e-07
-1.81342410225e-08
5.96234566774e-07
-1.80792558976e-08
5.87449882758e-07
-1.79304917946e-08
5.7845802298e-07
-1.763796601e-08
5.67810600244e-07
-1.64292251186e-08
5.50855409276e-07
-1.2487425834e-08
-2.14100080611e-08
5.51547373341e-07
2.4166683934e-06
-8.36603113137e-07
3.7882056205e-07
8.58459860401e-07
7.4286103961e-07
-1.68682038998e-07
6.80131179952e-07
8.33582691579e-09
7.0121735144e-07
-2.21880695998e-08
6.87365762683e-07
-7.41220080386e-09
6.84884976184e-07
-1.19246696872e-08
6.78383022176e-07
-1.05166713652e-08
6.7279160931e-07
-1.12622498356e-08
6.66718071577e-07
-1.13693344325e-08
6.60855806158e-07
-1.17222219394e-08
6.55051886443e-07
-1.20283743847e-08
6.49619280169e-07
-1.23692188417e-08
6.44690237067e-07
-1.27200158523e-08
6.40350688139e-07
-1.30782038577e-08
6.38281862936e-07
-1.42205533257e-08
6.44925299549e-07
-1.89680460562e-08
-9.37561325255e-09
6.32833253188e-07
-8.40475014291e-07
5.64870146191e-07
7.62666297662e-07
-7.39956950438e-07
4.76181440062e-07
1.21998340917e-07
5.16043502916e-07
-2.68741098239e-08
4.93199987628e-07
1.96204917703e-09
4.9395985731e-07
-7.28961403787e-09
4.87691073512e-07
-4.72419507177e-09
4.83526172799e-07
-5.71003822092e-09
4.7854059157e-07
-5.80540455529e-09
4.73785421606e-07
-6.18784923131e-09
4.68992270915e-07
-6.45197628674e-09
4.64099257184e-07
-6.76061515135e-09
4.59119475808e-07
-7.08801339148e-09
4.54084037767e-07
-7.42709909933e-09
4.48918521163e-07
-7.72138543789e-09
4.41987198723e-07
-7.10927356817e-09
4.24527639516e-07
-1.56657543087e-09
-1.46923191818e-08
4.29999897681e-07
1.32076267068e-06
-2.65962148976e-07
4.44929727226e-07
1.41327940019e-07
6.06765601394e-07
-3.49034086264e-08
5.76634610891e-07
8.58214442208e-09
5.83592253884e-07
-3.2886986116e-09
5.77254576132e-07
1.23221466803e-10
5.74753999975e-07
-1.18593078049e-09
5.7066385486e-07
-8.71468715142e-10
5.66605595729e-07
-1.19870560025e-09
5.62226449524e-07
-1.27341431445e-09
5.57717521154e-07
-1.36139867638e-09
5.52909107914e-07
-1.50426399002e-09
5.47842838398e-07
-1.67060809748e-09
5.42407473285e-07
-1.69483413956e-09
5.36275901709e-07
-1.34811078949e-09
5.31096813338e-07
-1.81417409388e-09
5.36780023392e-07
-7.14419703783e-09
1.08244651499e-08
5.11307214389e-07
1.54724194574e-07
2.9644254231e-07
2.62047462823e-07
2.70801375064e-07
2.67623265837e-07
2.67866825729e-07
2.66774993023e-07
2.65976841407e-07
2.6485144284e-07
2.63669555329e-07
2.62384616294e-07
2.60943476866e-07
2.59331321825e-07
2.57686952359e-07
2.56372906113e-07
2.54578159941e-07
2.47447329818e-07
2.58347966003e-07
1.12838386519e-07
-1.1463579866e-07
1.41018297327e-07
-2.67969218052e-08
1.08410702008e-07
2.97370045754e-08
5.89916045292e-08
5.09632350966e-08
1.24583117332e-08
4.43205946396e-08
-2.21552977565e-08
3.51432422586e-08
-5.17695817721e-08
2.76742490764e-08
-7.4240418579e-08
2.2283756761e-08
-9.43523417957e-08
1.84774439285e-08
-1.10769332232e-07
1.60766479953e-08
-1.26485793512e-07
1.45515912144e-08
-1.40223143627e-07
1.36918517814e-08
-1.54054849758e-07
1.31098082414e-08
-1.66280380055e-07
1.27324960003e-08
-1.79031998212e-07
1.23048655579e-08
-1.89920905852e-07
1.18976945228e-08
-2.01694340283e-07
1.13270364689e-08
-2.11200695516e-07
1.07818221949e-08
-2.21788694194e-07
1.00710979152e-08
-2.3001778882e-07
9.43655785856e-09
-2.39515238682e-07
8.69000378287e-09
-2.46724662076e-07
8.08127932612e-09
-2.55210320392e-07
7.37835496713e-09
-2.61618795824e-07
6.84516535364e-09
-2.69168861173e-07
6.2430545278e-09
-2.74969435348e-07
5.7922860761e-09
-2.81847053452e-07
5.27145717339e-09
-2.87153916763e-07
4.90972632773e-09
-2.9335437863e-07
4.48422301056e-09
-2.98218278361e-07
4.19930455081e-09
-3.03868846501e-07
3.83873886989e-09
-3.08312242007e-07
3.61208319115e-09
-3.1337726641e-07
3.31823618616e-09
-3.1735129685e-07
3.13662370144e-09
-3.21982157757e-07
2.86955324102e-09
-3.25533012829e-07
2.71995956226e-09
-3.29690967296e-07
2.47742100129e-09
-3.32825303908e-07
2.33486033008e-09
-3.36535969628e-07
2.09434802649e-09
-3.39219241315e-07
1.94722645519e-09
-3.42464417451e-07
1.69345646153e-09
-3.44630657405e-07
1.52869252423e-09
-3.47409458891e-07
1.24305377827e-09
-3.49000946919e-07
1.04936900281e-09
-3.51358796787e-07
7.12609037762e-10
-3.52353417796e-07
4.8920508277e-10
-3.54213361515e-07
8.96668715459e-11
-3.54599737813e-07
-1.86994103087e-10
-3.55991632583e-07
-6.48223603159e-10
-3.55800299466e-07
-9.52261568465e-10
-3.56673509164e-07
-1.48194475569e-09
-3.55934922548e-07
-1.81614799411e-09
-3.56241837572e-07
-2.36043278019e-09
-3.55091325909e-07
-2.72543330577e-09
-3.55077013787e-07
-3.32620668681e-09
-3.53448709508e-07
-3.68980915773e-09
-3.52706872083e-07
-4.34461879658e-09
-3.50229594506e-07
-4.87979528671e-09
-3.48620375293e-07
-5.57297160228e-09
-3.45247349362e-07
-5.94956251185e-09
-3.42588055882e-07
-6.52941211456e-09
-3.38330200688e-07
-6.82379466226e-09
-3.35034297077e-07
-7.3244171974e-09
-3.30090222195e-07
-7.44871207397e-09
-3.26244314212e-07
-7.79499957926e-09
-3.2078283547e-07
-7.78153311304e-09
-3.16622548813e-07
-8.0584325977e-09
-3.10832755265e-07
-7.98238396775e-09
-3.06637432124e-07
-8.26813818248e-09
-3.00775190318e-07
-8.16980254433e-09
-2.96719726663e-07
-8.49299544516e-09
-2.90856399777e-07
-8.38851116423e-09
-2.86984950619e-07
-8.74832977603e-09
-2.81108448569e-07
-8.5917775366e-09
-2.77199361322e-07
-8.96775059992e-09
-2.71145309116e-07
-8.78788907459e-09
-2.670776266e-07
-9.13962745839e-09
-2.61278760132e-07
-9.02216537961e-09
-2.57914879268e-07
-9.52844150518e-09
-2.52491629102e-07
-9.35256680873e-09
-2.49402358785e-07
-9.72527981481e-09
-2.44508792936e-07
-9.45636307103e-09
-2.42347957288e-07
-9.79247841431e-09
-2.37862095801e-07
-9.19223188919e-09
-2.3595584971e-07
-9.14195200326e-09
-2.32496371013e-07
-8.24940133356e-09
-2.32642697004e-07
-7.95250137674e-09
-2.33796714708e-07
-6.69365999174e-09
-2.41387954946e-07
-5.80771692458e-09
-2.53534069853e-07
-4.49247886509e-09
-2.66033100053e-07
-3.1882403307e-09
-2.77452946879e-07
-1.49308843496e-09
-2.89468141516e-07
2.87303996701e-10
-3.03412026507e-07
2.07757932449e-09
-3.19431724635e-07
3.71085053611e-09
-3.37805953436e-07
5.09103342504e-09
-3.5773648971e-07
6.23325441354e-09
-3.79248102647e-07
7.08387474089e-09
-4.0116213558e-07
7.62218694827e-09
-4.22927586631e-07
7.99216790074e-09
-4.42909969558e-07
7.75281513008e-09
-4.57666883739e-07
8.4513887544e-09
-4.69175056054e-07
7.94748529546e-09
-4.73728935296e-07
8.9595281003e-09
-4.79695913109e-07
6.41994966371e-09
-4.80948103629e-07
4.40810369747e-09
-4.86382871493e-07
-3.01955673473e-09
-4.8829528839e-07
-6.98583756934e-09
-5.01757754581e-07
-1.04440239423e-08
-5.20758271684e-07
-6.24076106043e-09
-5.61177510462e-07
-3.22586436872e-09
-6.22036396327e-07
1.33973911932e-08
-7.23104769479e-07
2.89983262111e-08
-8.48974325299e-07
4.39382844418e-08
-1.00735295426e-06
4.19492902781e-08
-1.15881062545e-06
1.22679135715e-08
-1.34060223594e-06
-5.92592643792e-09
-1.57380546667e-06
8.89970801775e-09
-1.91003039327e-06
4.12860301683e-08
-2.61383126866e-06
3.36452464482e-07
-4.02367109985e-06
9.45709768196e-07
-6.0861003201e-06
1.53474270122e-06
-7.84909557172e-06
1.15616063833e-06
-7.93152347104e-06
-4.03074737528e-07
-7.36554254007e-06
-9.2001982404e-07
-6.94286807534e-06
-7.13920795688e-07
-6.69381919114e-06
-5.37905653805e-07
-6.55264181086e-06
-4.09006924817e-07
-6.5168024896e-06
-3.26521329064e-07
-6.54493485843e-06
-2.56795411825e-07
-6.65950560788e-06
-2.11394025907e-07
-6.83071472941e-06
-1.63800185883e-07
-7.09587574436e-06
-1.34099690701e-07
-7.43189122064e-06
-9.71946107e-08
-7.88402281891e-06
-7.62763765829e-08
-8.43482156943e-06
-5.02716622142e-08
-9.11265151575e-06
-3.74881100605e-08
-9.88023965774e-06
-2.75207802583e-08
-1.07108272387e-05
-1.77091668541e-08
-1.15792763697e-05
-1.20673300744e-08
-1.24699230659e-05
5.98700672292e-09
-1.34060460855e-05
1.5898005215e-08
-1.43669340857e-05
3.9542749731e-08
-1.53906037271e-05
5.58479363414e-08
-1.64463199256e-05
1.01733257687e-07
-1.75748674366e-05
1.2576361061e-07
-1.87131227437e-05
1.70270638917e-07
-1.99062789318e-05
1.83284692682e-07
-2.10687655166e-05
2.3118621918e-07
-2.22582942951e-05
2.3981062353e-07
-2.33517057265e-05
2.97809702876e-07
-2.44284569393e-05
3.00215355816e-07
-2.53079644732e-05
3.70626303145e-07
-2.61030579527e-05
3.60020537318e-07
-2.65424115422e-05
4.41692208328e-07
-2.67815627287e-05
4.05528057293e-07
-2.64128036191e-05
4.9243359661e-07
-2.56504179905e-05
4.11438733243e-07
-2.39032305534e-05
4.93501764924e-07
-2.1483867399e-05
3.43625369157e-07
-1.75753008231e-05
4.08125715494e-07
-1.26560586638e-05
1.61868395304e-07
-5.64069402413e-06
1.97433380478e-07
2.74701751164e-06
-1.65913535107e-07
1.39262226258e-05
-1.64479056056e-07
2.68675089806e-05
-6.4931007471e-07
4.3384896481e-05
-6.50674072825e-07
6.20565109203e-05
-1.16536078803e-06
8.50628297703e-05
-9.89720693332e-07
0.000110444546405
-1.23167971083e-06
0.000140797552879
-6.31112912204e-07
0.000174358334855
-1.01809259558e-06
0.000214797390594
-1.12462222905e-06
0.000260509781028
-2.63684927342e-06
0.000316411500999
-4.69792518181e-06
0.000382255055857
-9.64351794341e-06
0.000465145064554
-1.72141518163e-05
0.00056415761922
-2.8402499633e-05
0.000679743324387
-3.74344986123e-05
-2.99857552901e-05
0.000788501787328
7.99458849804e-08
-1.93437597708e-07
3.61378520205e-08
1.82314141191e-08
-1.2272512588e-09
6.73693105935e-08
-1.07046611565e-08
6.12502332259e-08
-1.07278961163e-08
4.42742606703e-08
-4.09160761423e-09
2.88048077498e-08
5.0628412807e-09
1.80063139912e-08
1.53856085841e-08
1.17421980283e-08
2.43613978815e-08
8.85506357545e-09
3.18965129901e-08
8.16621660623e-09
3.71880742054e-08
8.73787299086e-09
4.07606388067e-08
9.95163114311e-09
4.22258320667e-08
1.13805602618e-08
4.23727246805e-08
1.27971931729e-08
4.06159129095e-08
1.40158106292e-08
3.80824086468e-08
1.49932214781e-08
3.37785083493e-08
1.56504889684e-08
2.92160198654e-08
1.60439120622e-08
2.30899778596e-08
1.61462651115e-08
1.71751757599e-08
1.60465610921e-08
9.91079901665e-09
1.57130676399e-08
3.11632378705e-09
1.52570879877e-08
-4.63377221128e-09
1.46583726352e-08
-1.16904241157e-08
1.39821802973e-08
-1.94030419891e-08
1.32136295145e-08
-2.63258765188e-08
1.24113904208e-08
-3.35953502665e-08
1.15567285544e-08
-3.99746672029e-08
1.06902005472e-08
-4.64348670441e-08
9.78966731765e-09
-5.19926715775e-08
8.88587338569e-09
-5.73937013116e-08
7.96268799436e-09
-6.18109997558e-08
7.04518102423e-09
-6.59070264419e-08
6.0990574419e-09
-6.89762906154e-08
5.15583111883e-09
-7.16154226302e-08
4.17929610316e-09
-7.31652058886e-08
3.20339467227e-09
-7.42124589361e-08
2.18225995638e-09
-7.410042898e-08
1.16209124872e-09
-7.34180147558e-08
8.83231383737e-11
-7.15134500822e-08
-9.87268590454e-10
-6.89937143079e-08
-2.12069916159e-09
-6.51840736347e-08
-3.25573566512e-09
-6.07748876069e-08
-4.45212063656e-09
-5.50202249351e-08
-5.64573869298e-09
-4.87589702234e-08
-6.90376563962e-09
-4.11249221799e-08
-8.14677934582e-09
-3.30628377723e-08
-9.44889713945e-09
-2.36089345082e-08
-1.07258439044e-08
-1.38778765785e-08
-1.20726253137e-08
-2.87031702073e-09
-1.33671838735e-08
8.39422413559e-09
-1.46969657212e-08
2.08568000015e-08
-1.5973480318e-08
3.34196487057e-08
-1.72915702134e-08
4.69555041239e-08
-1.85292034304e-08
6.0539322134e-08
-1.97606660297e-08
7.50115138612e-08
-2.08207105744e-08
8.9225334308e-08
-2.17507997451e-08
1.0412680605e-07
-2.28272695869e-08
1.1923551855e-07
-2.40732211751e-08
1.35209972605e-07
-2.50153754171e-08
1.51144299225e-07
-2.58431214633e-08
1.67691745966e-07
-2.64692675676e-08
1.8407506166e-07
-2.70691852139e-08
2.01077624205e-07
-2.7481538948e-08
2.17844304245e-07
-2.78664616344e-08
2.35149957366e-07
-2.80318315087e-08
2.51978526635e-07
-2.8182435621e-08
2.69139715099e-07
-2.81370428705e-08
2.85502600629e-07
-2.81361902954e-08
3.01994238643e-07
-2.79538238472e-08
3.17448897252e-07
-2.78429244161e-08
3.32942097969e-07
-2.75280895303e-08
3.47202278092e-07
-2.729174041e-08
3.61371955422e-07
-2.68089534213e-08
3.74284468094e-07
-2.63845214792e-08
3.8709976446e-07
-2.57178348465e-08
3.98332099593e-07
-2.52145669171e-08
4.08951983481e-07
-2.45188621934e-08
4.17725229494e-07
-2.39454168468e-08
4.25981139747e-07