/*--------------------------------*- C++ -*----------------------------------*\
| =========                 |                                                 |
| \\      /  F ield         | OpenFOAM: The Open Source CFD Toolbox           |
|  \\    /   O peration     | Version:  v1806                                 |
|   \\  /    A nd           | Web:      www.OpenFOAM.com                      |
|    \\/     M anipulation  |                                                 |
\*---------------------------------------------------------------------------*/
FoamFile
{
    version     2.0;
    format      ascii;
    class       volScalarField;
    location    "24";
    object      rho;
}
// * * * * * * * * * * * * * * * * * * * * * * * * * * * * * * * * * * * * * //

dimensions      [0 0 0 0 0 0 0];


internalField   nonuniform List<scalar> 
12225
(
0.585378252632
0.649874168535
0.62903165648
0.629314161857
0.617281886014
0.612991367317
0.607021569168
0.603006046531
0.600907097345
0.601911432396
0.60748482169
0.616232301471
0.623276945206
0.635155937623
0.658775841696
0.689945904265
0.730716132555
0.765003482768
0.761105596673
0.699210730171
0.666659986577
0.671349728156
0.66224345472
0.659908906335
0.656223527448
0.653984928792
0.652822901974
0.653419962154
0.657130513236
0.6636988399
0.670538948512
0.680604739948
0.698545290973
0.722023507205
0.748083120251
0.750809819346
0.605363621293
0.680883747616
0.661737662147
0.663718910322
0.653871678702
0.65056921558
0.646068291374
0.643097736857
0.641102580888
0.640590275653
0.642245544894
0.646185875033
0.651894748181
0.661003074615
0.675987586459
0.695026444175
0.712847030463
0.708101063697
0.67447667958
0.692762484646
0.666237350939
0.672076260032
0.663276372591
0.661581459192
0.65843916126
0.656602412523
0.655417811104
0.655297387457
0.65655642508
0.659349393464
0.66380493843
0.670885471009
0.681582953427
0.693898158649
0.702008176837
0.692435109406
0.638332082134
0.692593370372
0.667385395298
0.674472804865
0.666478768452
0.665738703935
0.663487912797
0.662572682882
0.662330176912
0.663081529537
0.664948937251
0.668011320824
0.672488472245
0.678843020425
0.687068313068
0.694890895037
0.697181344299
0.686670191226
0.652955884953
0.696372468073
0.670757805051
0.679153978452
0.671748746329
0.671732966031
0.670032330834
0.669617047573
0.669806999503
0.670863693798
0.672828091189
0.675732214364
0.679734025167
0.684956102691
0.690844186108
0.695149746275
0.694046256193
0.684090328664
0.648897503902
0.697754212222
0.673293318725
0.682575756234
0.675854063332
0.676503391045
0.675330072237
0.675367003281
0.675913924112
0.677181213892
0.679158750572
0.681835346251
0.685243577222
0.689268929426
0.69310742591
0.694806985572
0.691813148359
0.682720587709
0.651343970159
0.699269790929
0.675514076697
0.685556824631
0.679396814633
0.680581258626
0.679802751281
0.680154546691
0.68089092939
0.682204043093
0.684060580605
0.686407276408
0.689155058893
0.692034747732
0.694174597163
0.694039545162
0.69004500833
0.681832360852
0.652285090613
0.70002994784
0.677323061752
0.687879350961
0.682259382016
0.683899611346
0.683449634404
0.684018997098
0.684828076351
0.686076166923
0.687719980736
0.689657835944
0.691710384142
0.693527205304
0.694307616861
0.692902706222
0.688428093305
0.680965051458
0.653194796168
0.700363269978
0.678563233721
0.689496261738
0.684327741679
0.686341948946
0.686131885518
0.686825431009
0.687635214915
0.688768447496
0.690148004377
0.691624511059
0.692967672477
0.69382406602
0.693529315851
0.691275965913
0.686621030328
0.67985617567
0.653155064509
0.700434436915
0.678948789146
0.690219664156
0.685310923672
0.687536746915
0.687406188711
0.688120461364
0.688871058576
0.689837113992
0.690905627099
0.69192286203
0.692655342897
0.692790546147
0.691804979502
0.689158896369
0.684679357171
0.678684636679
0.649143357231
0.70030941051
0.677461794814
0.689306675647
0.68433752201
0.686657099314
0.68654052187
0.687248576693
0.687896675663
0.688693802357
0.689585691455
0.690397593423
0.690884359278
0.690747036512
0.689584569045
0.687028245062
0.683007876641
0.677833528033
0.645844636144
0.699620213832
0.675961025714
0.688210514107
0.683419532194
0.685907824347
0.685889041985
0.686669812519
0.68740280696
0.688275079472
0.689172928179
0.689916466311
0.690225714642
0.68988331768
0.688561155439
0.686040181835
0.68235155628
0.677768293803
0.641823464826
0.698759496796
0.674245249416
0.687027033007
0.682449471836
0.685290532354
0.685576687148
0.686574823684
0.687413805769
0.688283713053
0.689064121298
0.689560022957
0.689527774627
0.688816137694
0.687251660612
0.684703689912
0.681317258699
0.677246296199
0.636574676046
0.697816129269
0.672084636431
0.685588467868
0.681228935049
0.684487019256
0.685119348592
0.686375128071
0.687338257664
0.688163780575
0.688766219681
0.688941342808
0.688508617076
0.6874439422
0.685662526191
0.683137873174
0.680029571194
0.67648307795
0.631042166812
0.696807020728
0.669610980367
0.68382892445
0.679578881128
0.683194116525
0.684081265133
0.685524117264
0.686536020319
0.687306610883
0.687706576708
0.687619228239
0.686881882882
0.685599593488
0.683728494775
0.681320623582
0.678514610306
0.675411395405
0.626020461043
0.695882473957
0.667092339223
0.681889755548
0.677596302635
0.681421419206
0.68241021279
0.683905612876
0.684884398716
0.685531507683
0.685776816513
0.685493020049
0.684596547709
0.68322145102
0.68139652793
0.679152964821
0.676662947422
0.673923774195
0.621258315695
0.695168696337
0.664680420873
0.679949266517
0.675466189542
0.679353084082
0.680295267391
0.681743995153
0.682626909303
0.683151060065
0.683265569028
0.682862510773
0.681893815531
0.680526395776
0.678801406381
0.676745550295
0.674525393762
0.672105901058
0.61866186219
0.695077496692
0.663387605536
0.678836779482
0.674050392637
0.6777859651
0.678494225549
0.679731333234
0.680392856549
0.680707415227
0.680639940165
0.680105321912
0.67906993358
0.677715811925
0.676077370462
0.674169183582
0.672146040653
0.669963889436
0.623947922485
0.695689861695
0.664986006131
0.679569964026
0.674300628514
0.677356453514
0.677417173004
0.677992436594
0.67805821148
0.677843302957
0.677343660872
0.676491551131
0.675249338373
0.673785109588
0.67212837247
0.67028352283
0.668389661558
0.66641208794
0.628764698724
0.696886183312
0.666886555317
0.680834539467
0.675187907765
0.6777029615
0.677251380181
0.677347059997
0.676956229809
0.676364905755
0.675560960199
0.674501157009
0.673114011424
0.671591667927
0.669924018761
0.668134995247
0.666319594695
0.664471168342
0.630460359113
0.697702786192
0.668792095496
0.682207642846
0.676282846446
0.678321641791
0.677454461533
0.677132955863
0.676387151328
0.675496264391
0.67444966951
0.673226437123
0.671741637364
0.670164306213
0.668496830524
0.666738326368
0.664989896417
0.663204547514
0.638783727948
0.699539035094
0.670568663713
0.683470451078
0.677243014736
0.678834296397
0.677570593686
0.676874656471
0.675802587537
0.674625152131
0.67337474864
0.671987012694
0.670395983114
0.668748737198
0.667070815948
0.665312043973
0.663595917929
0.661877031654
0.631692745878
0.699965915777
0.672812243154
0.685171206201
0.678666350566
0.679792572213
0.678143173422
0.67706473249
0.675676166041
0.674240662031
0.672769454047
0.671221353637
0.669509417704
0.667785639664
0.666032024313
0.664237167554
0.662489572085
0.660776663631
0.659187411358
0.702301783029
0.674441845503
0.685947722974
0.679233160487
0.679923226297
0.677935804271
0.676570978065
0.674936343314
0.673297208316
0.671666888618
0.670025003881
0.66825099124
0.666491130351
0.664736163766
0.662928768263
0.661150538691
0.6594179554
0.615579416309
0.702478161352
0.677509684693
0.688696544774
0.681697960039
0.682001330192
0.679740966112
0.678081486868
0.676187796335
0.674296555035
0.672452061136
0.670626833445
0.668709190295
0.66680781474
0.664920525582
0.663010794357
0.661155808415
0.659492590622
0.711737948651
0.705489907761
0.680082819252
0.689009263418
0.682154457692
0.681843588202
0.679261728609
0.677274623355
0.675088654315
0.67290764066
0.670759116792
0.668776789147
0.666780042147
0.664808078365
0.662911222338
0.660994377451
0.659060559278
0.656953045148
0.564173676855
0.701292804976
0.687917433625
0.695215708442
0.688357877744
0.687914804765
0.685420281898
0.683601262893
0.681643487456
0.679698942165
0.677902370837
0.676227164379
0.674479878195
0.672744919065
0.671030462289
0.669185432964
0.667237931471
0.665665993524
0.83524529654
0.720512608619
0.695499259806
0.701786607408
0.695401218173
0.694288943128
0.691237157648
0.688487189565
0.685360742779
0.681982583502
0.678467341629
0.675174738918
0.671840275884
0.668369543902
0.664847943025
0.661260649507
0.657558508419
0.653972098942
0.6493434003
0.683051823526
0.67813495968
0.679834676133
0.67203733505
0.67102996891
0.668371761676
0.666316628779
0.66422983459
0.662397413656
0.66091913079
0.659539331782
0.658097161437
0.656985042838
0.656198544659
0.655538988444
0.655203757839
0.654436119724
0.50015031454
0.499789595969
0.499603079057
0.499621264791
0.499835592313
0.500211710961
0.500646677219
0.501106965973
0.501565921797
0.502005027402
0.502412279584
0.502780706399
0.503106992458
0.503390263523
0.503631374909
0.503832344973
0.503995782142
0.504125010442
0.504223097514
0.504292972779
0.50433786285
0.504359894688
0.504362255354
0.504345550407
0.504311563372
0.504259749334
0.504191613895
0.504106752074
0.504005657014
0.503887391977
0.503752081922
0.503599095486
0.503428707422
0.503240035931
0.503033199633
0.502808263843
0.502566313085
0.502306565568
0.502030173203
0.501737174373
0.501428946697
0.501106237382
0.500770756152
0.500424157081
0.500068592197
0.499706611784
0.499340838119
0.498974412088
0.498610611158
0.498252405177
0.49790266356
0.497562780418
0.497235897343
0.496926248661
0.496639204666
0.496379900264
0.496153732587
0.495966099262
0.495822521203
0.495728261204
0.495687390399
0.495701124803
0.495770413502
0.495898247133
0.496085582587
0.496329313696
0.496627379781
0.496977674689
0.497376897694
0.497822279958
0.498309568901
0.498834915317
0.499393570451
0.499981317997
0.500593508753
0.501226176457
0.501875370541
0.502536550005
0.503205928775
0.503880881697
0.504559372579
0.505238111674
0.505915051548
0.506587491008
0.507256206647
0.507918530396
0.508574368046
0.509230009869
0.509881705172
0.510533020503
0.511184715016
0.511836964589
0.512491935472
0.51312315106
0.513716006508
0.514308499951
0.514932422794
0.515572964387
0.516228237462
0.516892242342
0.51767093317
0.518543062083
0.51868470024
0.518731067739
0.518948111293
0.51938990083
0.520022913643
0.520369369131
0.52077468317
0.521139920034
0.521438723843
0.521696298942
0.521917846311
0.522125122362
0.522310953774
0.522483857719
0.522645907151
0.522801483022
0.52295116703
0.52309366268
0.5232259804
0.523346746283
0.523457226672
0.523558568456
0.523653564822
0.523743445945
0.523828948893
0.523910565468
0.523988649889
0.524063594159
0.524135760099
0.524205356446
0.524272561088
0.524337391644
0.524399909927
0.524460030034
0.524517736827
0.524573367759
0.524626454056
0.524676859959
0.524722855358
0.524765864663
0.524805074116
0.52483895716
0.524865800857
0.524883778668
0.524891767728
0.52488895421
0.524874626818
0.52484823307
0.524808674084
0.524754414407
0.524683722374
0.524594955512
0.524486333649
0.524356030738
0.524201987027
0.524021951429
0.523812950386
0.523571375101
0.523291861103
0.522968696737
0.522593818562
0.522155919742
0.521639556748
0.521027775509
0.520299629921
0.519438522392
0.518431206411
0.51725488604
0.51589662146
0.514359918251
0.512662459968
0.510846426735
0.508972146704
0.506983488807
0.504931212809
0.502893301786
0.500978892008
0.499490733097
0.500048114742
0.499814408606
0.499915863031
0.500203061405
0.500551842563
0.500908727566
0.501252224148
0.501572026865
0.501863616434
0.502124825337
0.502355344315
0.502554585472
0.502723458524
0.502862363137
0.502972688782
0.503055541887
0.503112747705
0.503146093394
0.503158038074
0.50315005479
0.503124664561
0.503083279593
0.50302821958
0.502959666545
0.502878996239
0.502785349867
0.502679568926
0.502560807111
0.502428845149
0.502282364558
0.502121187484
0.501944325895
0.501751190937
0.501540593673
0.50131286845
0.501067301581
0.500804201094
0.500523279885
0.500225050462
0.499909370684
0.499577221821
0.499229363867
0.498867287198
0.498492731539
0.498107961318
0.497715746335
0.497319472481
0.496922766107
0.496530281196
0.496147210645
0.495781165087
0.495437201257
0.495118224834
0.49482721662
0.494568080334
0.494344694186
0.494160872875
0.494022338223
0.493935036056
0.493901069489
0.493921904265
0.493999799193
0.494134367089
0.49432160882
0.494562560718
0.494859843479
0.495213640566
0.495623607757
0.496088807035
0.496608218493
0.497179926986
0.49780182039
0.498470584145
0.499182665763
0.49993396741
0.500719836795
0.501535163117
0.502374616663
0.503232675439
0.504105306726
0.504989405325
0.505881127573
0.506776296138
0.50767305371
0.508573078436
0.509471092701
0.510360389285
0.511250598578
0.512162622932
0.513078031893
0.513966097138
0.514860212964
0.515800218088
0.516755499798
0.517640496498
0.518449870293
0.519292330052
0.519984791813
0.520670907805
0.52138923318
0.522079591174
0.522901183117
0.523509640647
0.524165599363
0.524770474208
0.525353230253
0.525699917926
0.525966295537
0.526203779823
0.526449746946
0.526699158552
0.526957367485
0.527221500548
0.527488018135
0.527748447095
0.528007241882
0.52826411167
0.528521038556
0.528778265311
0.529032821819
0.529281018992
0.52952098455
0.529752639715
0.52997761757
0.530197809635
0.530414162109
0.530627401592
0.530837979343
0.531046396784
0.531252846182
0.531457420681
0.531660151667
0.531861183935
0.532060649173
0.53225895096
0.532456467203
0.532653830129
0.532851825347
0.533051183018
0.533251641459
0.533453040453
0.533656672015
0.53386294866
0.534071572036
0.534281654607
0.534492757179
0.534705275879
0.534920204264
0.535138773475
0.535362006084
0.535591024272
0.535827047399
0.536071301386
0.536324484659
0.53658646316
0.536856404774
0.53713230969
0.537411551933
0.537690520408
0.537965904025
0.538232665006
0.538485208939
0.538718088708
0.538927223553
0.539108888707
0.539260081896
0.539384365162
0.539473914157
0.539529517046
0.539552819728
0.539542153694
0.539490537399
0.539388295033
0.539233176785
0.538955560135
0.538647239068
0.538283622559
0.537873789488
0.537460453059
0.537027373857
0.500417765171
0.500342376411
0.500377138129
0.500492434828
0.500614284678
0.500714483649
0.500802236615
0.500884028679
0.50096359901
0.50104108298
0.501115928748
0.501186532311
0.501251246456
0.501308164988
0.501355878279
0.501393154088
0.501419482779
0.501434522409
0.501438664461
0.501432347869
0.501416470167
0.501391036958
0.501357578209
0.501315711128
0.501265795617
0.501207067733
0.501139688031
0.501062373521
0.500974659372
0.500875171851
0.500763313916
0.500637616472
0.500497695364
0.500342506338
0.500171705967
0.499984764884
0.499782137606
0.499563247599
0.499328659929
0.499078647719
0.498814134784
0.498536136966
0.498246235454
0.497946326925
0.497638783356
0.49732634239
0.497012312137
0.496700301185
0.496394367827
0.496098866517
0.495819982446
0.495564139822
0.495338261756
0.495146875019
0.494993496266
0.494880949889
0.494811581714
0.494785324285
0.494801295941
0.494861014609
0.494967160421
0.495121900938
0.49533063537
0.495597120094
0.495919601489
0.496298835321
0.496735961965
0.497231078866
0.497782597726
0.49838802618
0.499043569253
0.499744731319
0.500486375549
0.501263091236
0.502069391206
0.502899808601
0.503749100781
0.504612061816
0.505483806489
0.506359641461
0.507237460956
0.50811435174
0.508985910257
0.509849370347
0.510708579629
0.511565196916
0.512405021517
0.513225242626
0.514049901692
0.514888937298
0.515708638968
0.516481361338
0.51728276577
0.518088900712
0.518863939874
0.519609139692
0.520297591672
0.520830681337
0.521437741293
0.522233498241
0.523098439932
0.52371732075
0.524048404751
0.524392854126
0.524584349604
0.524824533956
0.525220424141
0.525788845278
0.526331646998
0.526804344455
0.527242242613
0.527648240609
0.528023520032
0.528370973118
0.528694966565
0.529003444047
0.529299691274
0.529587124062
0.529866969755
0.530137420992
0.530396453321
0.530643589545
0.530880210038
0.531108533779
0.531329680382
0.531544387069
0.531753155679
0.53195638987
0.532154439293
0.53234780589
0.532537192324
0.532723312335
0.532906638353
0.533087471302
0.533266066417
0.53344274382
0.533618063612
0.533792404803
0.53396592273
0.53413750246
0.534307094045
0.53447572157
0.53464458945
0.534813354227
0.534980493986
0.535144832125
0.535305854606
0.535463562154
0.535617832553
0.535768503324
0.53591538439
0.536058493173
0.536197706562
0.536333051187
0.536464781917
0.536593420696
0.536719700406
0.536844786191
0.536969881299
0.537096702405
0.537226972218
0.537362417069
0.537504791744
0.537656006999
0.537817467595
0.537990819836
0.53817870933
0.538381533406
0.538596025491
0.538819108131
0.539045624596
0.539265527004
0.539466483186
0.539624159536
0.539712018294
0.539712890329
0.539607826275
0.539389986883
0.5391047466
0.538906289206
0.500887289821
0.500768112319
0.500506018941
0.500365012718
0.500288090613
0.500228310593
0.500191532904
0.500177410985
0.50018372507
0.500207389751
0.500245234377
0.500293333307
0.500348399498
0.500406930048
0.500466177192
0.500523622842
0.500577529267
0.500626511482
0.500670044253
0.500707099547
0.500738015954
0.500762471212
0.500780611
0.500791781011
0.500796341822
0.500792882643
0.500781061616
0.500759552544
0.500727545349
0.500683378834
0.500626149397
0.500554510698
0.50046759481
0.500364041865
0.500243912736
0.500106278506
0.499951208719
0.4997785795
0.499588993174
0.499382747667
0.499161062864
0.498925228878
0.498677202161
0.498419312774
0.498154376433
0.497885660777
0.497617000252
0.497352295744
0.497096067205
0.496853167626
0.496628266019
0.496424928613
0.496248863432
0.496104925445
0.49599758756
0.495930596115
0.495907373191
0.495929562815
0.495995747111
0.496103194996
0.496251235849
0.496440954215
0.496675051471
0.496958896484
0.497299015828
0.497699432823
0.4981622426
0.498688555748
0.499278121654
0.499929077799
0.50063802798
0.501399909323
0.502208214249
0.503056011817
0.503935923786
0.504839644301
0.505759784185
0.506690713968
0.507625271638
0.508556680107
0.509482678068
0.510403945554
0.511312411602
0.512198776207
0.513071348983
0.51393805284
0.514784771329
0.515578149551
0.516364508743
0.517154297804
0.517913317809
0.518624765222
0.519300884504
0.519962731006
0.520578972234
0.521199643394
0.521884518561
0.522625654118
0.523470171587
0.52427349008
0.524839471474
0.525094167718
0.525278169812
0.52550090029
0.525691033301
0.526013187684
0.526543077333
0.527215017954
0.527867535199
0.52845512119
0.528984319908
0.52945332564
0.529869576632
0.530243184308
0.530584203774
0.530901803342
0.531201035099
0.531486076778
0.531758192062
0.532016517725
0.532260100031
0.53248997214
0.53270912264
0.532919813988
0.533123206373
0.533319994765
0.533510835757
0.533696386933
0.533877348287
0.534054386184
0.534228400461
0.53439997289
0.534569317513
0.534736755091
0.534902682518
0.535067799495
0.535232680906
0.535397478179
0.535561428319
0.535723251044
0.535882684311
0.536041417544
0.536201352799
0.536362441432
0.53652350716
0.536683587376
0.536842387482
0.537000037887
0.537156754603
0.537312783759
0.537468294682
0.537623465584
0.537778148583
0.537932205269
0.53808550687
0.538237905932
0.538389114044
0.538538607733
0.538685728963
0.538829773962
0.538970349968
0.53910703296
0.53923949532
0.539368038939
0.539493420566
0.539617135028
0.539742645497
0.539872165883
0.540007489143
0.540151481202
0.540305647006
0.540468333436
0.540635973674
0.540800938795
0.5409447027
0.541061601756
0.541141671473
0.541183298807
0.541238340582
0.541436296907
0.501430293858
0.500764561847
0.500108002936
0.499867066112
0.499781450337
0.499725400573
0.499691852631
0.499677670646
0.499683199675
0.499707028009
0.499748047662
0.499803787315
0.499871595334
0.499948130592
0.500030670164
0.50011629695
0.500203084726
0.500288833086
0.500372439292
0.500452816381
0.500529462096
0.500601180125
0.50066830424
0.500729651249
0.500784750911
0.500832542399
0.500872408175
0.5009026549
0.500922342991
0.500929817697
0.500924053127
0.500903293513
0.500866892831
0.500813689273
0.500743137697
0.500654527418
0.500548213346
0.500423689701
0.500281610951
0.500122438787
0.499947369784
0.499757684664
0.499555368446
0.499342666898
0.499122395792
0.498897596364
0.498671946922
0.498449296124
0.498233745327
0.49802996159
0.497844128319
0.497680596875
0.49754469199
0.497441544835
0.497375184181
0.497349084901
0.497367050428
0.497431587913
0.497543128239
0.49770309772
0.497912622263
0.498172245394
0.498482130002
0.498841355175
0.499250835152
0.499713129361
0.500230616567
0.500805006562
0.501436259912
0.502123229115
0.50286314422
0.503651699295
0.504482067143
0.505348491233
0.506244326638
0.507161035243
0.508089941351
0.50902764046
0.509970405764
0.510905440692
0.511826473165
0.512743660358
0.513650713879
0.51452939252
0.515391445268
0.51625124673
0.517088564234
0.517883798935
0.518628611798
0.519357952991
0.520088963368
0.520769463959
0.52143836484
0.522079004327
0.522745361174
0.523523144854
0.524361002249
0.525179714942
0.525893380965
0.526365223243
0.526579927641
0.52666522019
0.526813698851
0.527033848933
0.527302741473
0.527706220507
0.528243543596
0.528842702638
0.529427592886
0.529973811792
0.530467741335
0.530903718756
0.531288351901
0.531631240055
0.5319419423
0.532228565098
0.532496596036
0.532750098838
0.532990540163
0.533217757586
0.533431844177
0.533635008766
0.533830481895
0.534020139977
0.53420460111
0.53438402991
0.534558588285
0.534728534727
0.534894251648
0.535056139537
0.535214482616
0.535369581072
0.53552188689
0.53567181224
0.535819923547
0.535966875689
0.536113002899
0.536257916459
0.536400036165
0.536538038337
0.536671776553
0.536803810189
0.536936468323
0.537070145981
0.537204075856
0.537337374302
0.537469726473
0.53760114852
0.537731826918
0.53786199651
0.53799179401
0.538121333839
0.538250758327
0.538380164778
0.538509627065
0.538639087923
0.538768530422
0.538897967543
0.539027289089
0.539156361555
0.539285351562
0.539414425895
0.539543861412
0.53967434148
0.539806547932
0.5399416283
0.540081947199
0.540228563797
0.540381693443
0.5405424915
0.540710123343
0.54088160521
0.541053843492
0.541221248502
0.54137314377
0.541508470215
0.541632475612
0.541760830668
0.541956089827
0.542331601782
0.50192073068
0.500079091876
0.499217887047
0.499222450582
0.499327196801
0.499375567553
0.499397442404
0.49941257512
0.499434785906
0.499470398032
0.499522416253
0.499589606635
0.499670582289
0.499762239263
0.499862344524
0.499967937131
0.500077146145
0.50018776645
0.50029871132
0.500408065818
0.500515527756
0.500620007387
0.500720842746
0.500816953952
0.500908135407
0.500992654205
0.50106971658
0.501137738001
0.50119558584
0.501241446631
0.501274158649
0.501292224839
0.501294658317
0.501280087087
0.501248438334
0.501198833928
0.501131364364
0.501046000181
0.500943520416
0.500824428038
0.500690230529
0.500542364261
0.500383064747
0.500214696673
0.500040192335
0.499862579672
0.499685502443
0.49951239627
0.499347249045
0.499194595079
0.499060341332
0.498948730762
0.498865515693
0.49881590069
0.498804536664
0.498835534765
0.498912651771
0.499035181789
0.499201541709
0.499410744536
0.499662706568
0.499957535633
0.5002971691
0.500683463897
0.501121409905
0.501614549261
0.502166463723
0.502779353978
0.503452866304
0.504184061254
0.504970456855
0.505806122601
0.50668203975
0.507589583635
0.508524660464
0.509477406772
0.510434057333
0.51138911074
0.512346378526
0.513296493651
0.514214886953
0.515137093322
0.516046585805
0.51693013412
0.517776556361
0.518581903921
0.519368864243
0.520131392788
0.520869874685
0.521602678157
0.522287948515
0.522969965574
0.523724569785
0.524491972976
0.525278377427
0.526050880867
0.526742285104
0.527308258808
0.527724234064
0.527956277199
0.528071355218
0.52819434446
0.528397281375
0.528658387202
0.528987872702
0.529417226439
0.529916044864
0.530438169623
0.530950579096
0.531436757717
0.531881574371
0.532280385703
0.532637413984
0.532959426204
0.53325350292
0.533525810399
0.533781020552
0.534022096839
0.53424996889
0.534464191816
0.53466509324
0.534855111251
0.535036881614
0.535211829702
0.535380317382
0.535542396254
0.535698181927
0.535847992191
0.535992329934
0.536131831224
0.536267229616
0.536399463644
0.536529293172
0.53665736551
0.536784410273
0.536911171891
0.537037867678
0.53716345798
0.537286043651
0.537403864002
0.53751720564
0.537628734265
0.537740755359
0.537853922471
0.537967637533
0.53808122606
0.538194351989
0.538306977992
0.538419205411
0.538530996533
0.538642401334
0.538753463611
0.538864248647
0.538974908957
0.539085534938
0.539196239346
0.539307085444
0.539418174663
0.539529526065
0.539641211584
0.539753536687
0.539866814146
0.539981545156
0.54009861081
0.540219051326
0.54034423469
0.54047646531
0.540616946754
0.540766244008
0.540925629497
0.541094135385
0.541268972939
0.541447755127
0.541626564511
0.541796574511
0.541958039435
0.542119341692
0.542302561714
0.542568026664
0.543003946531
0.502172138836
0.498665352433
0.49809702111
0.498681809508
0.499027551865
0.499178356508
0.499254000262
0.499307873012
0.499365628958
0.499435074936
0.499520139196
0.499619605234
0.499732464577
0.499855689409
0.499987567836
0.500125211775
0.500267227136
0.500411183812
0.500556150211
0.500700721033
0.500844158031
0.500984938567
0.501123072381
0.501257082545
0.501386255599
0.501509401059
0.501625678701
0.50173330941
0.501831269342
0.501917840278
0.501991939033
0.50205184448
0.502096877375
0.502125945623
0.502138533006
0.502134081295
0.502112993015
0.502075023874
0.502021081919
0.501951900339
0.501869021432
0.501773928611
0.501668851304
0.501555997327
0.501438083818
0.501317591154
0.501197640024
0.501081036972
0.500970701308
0.500870090904
0.500785808092
0.500721404746
0.500683245797
0.500678561572
0.500713750341
0.500794686988
0.50092460451
0.501100209195
0.501319716595
0.501581178203
0.501883552503
0.50222410545
0.50260254266
0.503021398513
0.503487923118
0.504006137088
0.504581602963
0.505218659893
0.505916970949
0.506672452301
0.507481981637
0.508342706818
0.50924180186
0.51016511987
0.511109664847
0.512069502172
0.513029561152
0.513983947254
0.514942248114
0.515887225887
0.516810180283
0.517697090214
0.518544603032
0.519379143435
0.520191338382
0.520970644792
0.521716376675
0.522429539649
0.523147627037
0.523894961318
0.524628285696
0.525381064671
0.526142377223
0.526866620628
0.527549823736
0.528145928424
0.528627386581
0.528989259963
0.529251392327
0.529427285107
0.529584524302
0.529780704389
0.530027190155
0.530316741153
0.53066838991
0.531085008147
0.531536058566
0.531994580467
0.532442859981
0.532868568268
0.533261411518
0.533618824621
0.533942964978
0.534237805511
0.534507802504
0.534757301326
0.534989719368
0.535207221223
0.535410373539
0.535599113773
0.535774582962
0.535939462429
0.536096485445
0.536247215176
0.536392325129
0.536532110867
0.536666862466
0.536796960797
0.536922921953
0.537045349938
0.537164833334
0.537281843498
0.537396753765
0.537510066486
0.537622487641
0.537734701186
0.537846654862
0.537956917016
0.538063371726
0.538164325111
0.538260561469
0.538354691633
0.538449002303
0.538544133146
0.538639664484
0.538735139862
0.538830363505
0.538925425612
0.539020312592
0.539115073046
0.539209689204
0.539304207833
0.539398681355
0.539493158516
0.539587755889
0.53968262406
0.539777867344
0.53987359949
0.539969876092
0.540066868402
0.540164961455
0.540264586163
0.540366301083
0.540471147123
0.540580293402
0.540695142173
0.540817840346
0.540949621716
0.541091223609
0.541243989552
0.541407248955
0.541578690136
0.541756963937
0.541940074917
0.542121685176
0.542303572076
0.54249575717
0.542723707555
0.543042124721
0.543516684322
0.50205500367
0.496735589531
0.497090287079
0.498376001265
0.498858635119
0.499075373049
0.499206709992
0.499320557671
0.499438565698
0.499565857361
0.499705855759
0.499856274612
0.500017129198
0.50018554217
0.500360762342
0.500540176219
0.500722950481
0.500907009789
0.501091879912
0.501275668319
0.501458222228
0.501638220767
0.501815040182
0.501987625344
0.50215578217
0.502317841473
0.502473193988
0.50262041023
0.50275856672
0.502886063597
0.503002006722
0.503105136839
0.503194701728
0.503269652885
0.503330035974
0.503375227943
0.503405498842
0.503421045842
0.503422774599
0.503411353873
0.503388382523
0.503355230462
0.503313893983
0.50326619788
0.503214187824
0.50315955011
0.503104003826
0.503048953157
0.502995948532
0.502946738091
0.502906541823
0.502881417908
0.502879335262
0.502911831743
0.502990502298
0.503125526419
0.503317293199
0.503558982607
0.503846353013
0.504174183068
0.504535596834
0.504923025896
0.50533158567
0.505771582746
0.506251363113
0.506778702093
0.507361135754
0.508007265938
0.508720034683
0.509490937699
0.510312079153
0.511183995575
0.512096174054
0.513021956646
0.513975835774
0.514943698125
0.51590278269
0.516845225275
0.517759312814
0.518640183168
0.519509142659
0.520354440858
0.521164789927
0.521941665986
0.522682954058
0.52339475574
0.524100541806
0.524821077545
0.525559453302
0.526299926122
0.527010654371
0.527712467058
0.528367349526
0.528961896984
0.529494042706
0.529941569248
0.530299686013
0.530575745678
0.530796714841
0.530984719676
0.531182104134
0.531407311067
0.531663789359
0.531960057205
0.532307126135
0.532693643653
0.533095688822
0.533497011494
0.533886551702
0.53425604743
0.534599651658
0.534915935599
0.535205779062
0.535471306695
0.535715370463
0.535941137005
0.536151232352
0.536347310292
0.536529805267
0.536698912785
0.536856017761
0.537003566274
0.537143795286
0.537277991244
0.537406684115
0.53753004863
0.537648224039
0.53776144496
0.537870100406
0.53797470078
0.538075802009
0.538173937684
0.53826973353
0.538363941689
0.53845753902
0.538551253072
0.53864479188
0.538736504438
0.538824114058
0.538906297346
0.538984041222
0.539059806639
0.53913562523
0.539212057021
0.539288851637
0.539365683912
0.539442530983
0.539519446363
0.539596494697
0.539673680948
0.539750958555
0.539828349552
0.539905894182
0.539983689062
0.540061872023
0.540140626753
0.54022011544