/*--------------------------------*- C++ -*----------------------------------*\
| =========                 |                                                 |
| \\      /  F ield         | OpenFOAM: The Open Source CFD Toolbox           |
|  \\    /   O peration     | Version:  v1806                                 |
|   \\  /    A nd           | Web:      www.OpenFOAM.com                      |
|    \\/     M anipulation  |                                                 |
\*---------------------------------------------------------------------------*/
FoamFile
{
    version     2.0;
    format      ascii;
    class       volScalarField;
    location    "24";
    object      sensitivity;
}
// * * * * * * * * * * * * * * * * * * * * * * * * * * * * * * * * * * * * * //

dimensions      [0 2 -3 0 0 0 0];


internalField   nonuniform List<scalar> 
12225
(
-5.35824025931
-9.58041772085
-7.90436609393
-8.46218699543
-8.33304072119
-8.4797219417
-8.49615722729
-8.5149333178
-8.4993669577
-8.53068526159
-8.6682330714
-8.93340645982
-9.21078221139
-9.32301838935
-9.59286874313
-11.4734298166
-16.181012069
-19.1319792343
-27.7851109486
-9.68466329664
-13.4573906653
-12.7417298119
-13.3973352718
-13.6530824646
-13.9920989547
-14.286235291
-14.6186848673
-15.0436255292
-15.6070832432
-16.2699166284
-16.8639828636
-17.2510898025
-17.8874598267
-20.0984849935
-24.0586259045
-24.3886452522
9.54397510754
-12.5223133175
-9.73204793257
-10.818382875
-10.5789905446
-10.7223988371
-10.6902557064
-10.6876330573
-10.709961911
-10.8517003136
-11.1518825383
-11.5639252679
-11.9232581729
-12.163893036
-12.7905345002
-14.8544159105
-18.0570208936
-18.4711442091
-27.8051124394
-8.58221897305
-11.9581453861
-11.1555047889
-11.6666252514
-11.7222111751
-11.85287801
-11.9222210746
-12.02365297
-12.2053728224
-12.4974005178
-12.8326247412
-13.0644342116
-13.1746139226
-13.5800839544
-14.8550712062
-16.3339961962
-15.6569432903
6.02084213724
-12.5685159924
-9.26278764915
-10.6292433781
-10.3966447668
-10.6533868403
-10.7145124926
-10.8293020952
-10.9665345208
-11.2012831064
-11.5400693773
-11.9244074062
-12.2560627594
-12.5790700571
-13.2051089326
-14.3027064322
-15.0557485669
-14.1165593602
-23.8155050838
-8.39923545599
-11.1240757421
-10.4512715191
-10.8283943368
-10.8632255269
-10.9555866843
-11.0250692597
-11.1292372236
-11.2968091925
-11.5267345432
-11.7665346952
-11.9701160142
-12.2289510337
-12.766848313
-13.542346664
-13.8562375543
-12.9987911053
-1.88320080794
-10.4463877856
-9.95855454617
-10.3921666844
-10.4319336504
-10.5784104491
-10.6706996643
-10.7885756266
-10.9341877997
-11.1314120136
-11.3590364272
-11.5693060686
-11.7431000124
-11.9707769262
-12.3791927747
-12.8396352695
-12.865781818
-12.1361325481
-13.8026945161
-9.95831407403
-10.2122282085
-10.279290872
-10.3878124931
-10.4759712816
-10.5537399521
-10.6540947746
-10.7870012432
-10.9633032755
-11.1580267499
-11.3342454253
-11.4890355072
-11.688059397
-11.9754941822
-12.2030615308
-12.0698176351
-11.4573383823
-9.22636139064
-9.79912186247
-10.1245714923
-10.1888904095
-10.2878254774
-10.3696324074
-10.4450274302
-10.5400912348
-10.661063686
-10.8112979445
-10.9678892121
-11.1072208624
-11.2352989764
-11.3905600318
-11.5670862161
-11.6365340317
-11.428908156
-10.9157648888
-10.3348960054
-9.89628583652
-10.0322746949
-10.114829728
-10.1920452272
-10.2679500539
-10.3383517055
-10.4272837817
-10.5347651139
-10.659357429
-10.7816763372
-10.8881464792
-10.9858174058
-11.0902038915
-11.1732970447
-11.1410574565
-10.9055723495
-10.4736959363
-10.103525916
-9.8431547859
-9.98704945596
-10.0413434704
-10.1105678601
-10.1754637528
-10.2398964115
-10.318844272
-10.4099213701
-10.5086158852
-10.6001005109
-10.6766373716
-10.7421233762
-10.7964456564
-10.8072528999
-10.7130305141
-10.4735702511
-10.106539985
-10.0295209664
-9.8228978933
-9.92577440827
-9.97092111729
-10.0291340771
-10.084987166
-10.141989914
-10.2096710048
-10.2842420436
-10.3601125176
-10.4259869783
-10.4767753075
-10.512944309
-10.526841602
-10.4905022215
-10.3658622606
-10.1355882697
-9.81891562352
-9.97553093221
-9.79332632494
-9.87901973205
-9.90933240588
-9.9582475479
-10.0034569503
-10.0515029117
-10.10614779
-10.1631848786
-10.2167907708
-10.2585621142
-10.2849664226
-10.2930982946
-10.2730452327
-10.2035352272
-10.0626346162
-9.84597201805
-9.57080816641
-9.89291283788
-9.75755603524
-9.82567979656
-9.84154605407
-9.87971427919
-9.91165673359
-9.94757559849
-9.98585123627
-10.023040374
-10.0530520338
-10.0702346979
-10.0711581221
-10.0518294313
-10.0025459938
-9.90950100942
-9.76223921882
-9.5628994578
-9.32665195264
-9.80640104766
-9.71462096666
-9.76629968147
-9.76597109462
-9.79202279621
-9.80764997133
-9.82802933803
-9.84699308775
-9.86219239635
-9.86800936062
-9.8606180263
-9.83681889468
-9.79259640326
-9.72094938965
-9.61408765011
-9.46863223511
-9.28906241538
-9.08812468615
-9.74292757676
-9.65385371517
-9.71276635271
-9.68916699222
-9.70295865073
-9.69965639218
-9.70220267284
-9.70015443449
-9.69299144106
-9.6757620065
-9.64550184008
-9.59992209018
-9.53603309028
-9.44962787995
-9.33761755598
-9.19971748957
-9.04127086879
-8.87207944097
-9.81987083076
-9.63375920147
-9.64059153284
-9.5999459751
-9.59751971245
-9.57332901904
-9.55550607924
-9.53121273659
-9.50184865416
-9.46266638803
-9.41213201142
-9.34827400196
-9.26975938992
-9.17486871056
-9.06291482168
-8.93519728462
-8.79605600203
-8.65450031639
-8.99934399549
-9.41221428187
-9.57863495156
-9.52522095049
-9.50603846959
-9.45813298473
-9.42057834535
-9.37633897011
-9.32825018713
-9.27164284454
-9.20581989147
-9.12972410029
-9.04315128351
-8.94559942574
-8.83737760009
-8.71997937919
-8.59644379432
-8.46991302299
-11.9487541868
-9.95392619743
-9.70065346119
-9.46726322166
-9.41283786296
-9.34941310192
-9.30140279815
-9.24892270728
-9.19409431111
-9.13343784775
-9.06655278251
-8.99342068124
-8.91473415598
-8.83088987873
-8.74232039736
-8.65014372069
-8.55742797145
-8.47604718867
-3.34000621128
-8.66487542887
-8.9340677033
-9.1712688352
-9.13021276126
-9.06685355965
-9.00081118827
-8.92534705253
-8.84549876888
-8.75866735018
-8.66544681674
-8.56588033948
-8.4607336171
-8.35079532
-8.23680440743
-8.12071864626
-8.00409313335
-7.88226513633
-20.0156954539
-9.88731609055
-10.0337317775
-9.4401375273
-9.51387413042
-9.46020276402
-9.43089198069
-9.38698432872
-9.33884450289
-9.28516095435
-9.22657483012
-9.16417962874
-9.09886530756
-9.03037967404
-8.95857035701
-8.88185231588
-8.80117928236
-8.73337613819
9.27655744798
-9.36692739938
-8.13319574386
-9.10814905628
-8.81451422252
-8.78022041947
-8.67883434329
-8.58695911754
-8.49106031366
-8.39318375751
-8.2941160983
-8.19425875791
-8.09506068611
-7.99740456876
-7.90205638222
-7.81149330173
-7.72891358165
-7.64287578792
-38.3039984996
-8.31112778804
-11.246739658
-9.45567811426
-9.96592118598
-9.81526266459
-9.82796757682
-9.78027712222
-9.73669422906
-9.68198509549
-9.62003661815
-9.55075720001
-9.47550372802
-9.39500409688
-9.30970722348
-9.21885422449
-9.12209549528
-9.0484537394
33.1365280522
-12.4043423701
-6.72884647081
-9.47401413955
-8.55671358061
-8.70741681213
-8.54394098858
-8.46864139145
-8.36608517723
-8.27045410825
-8.17410239296
-8.08062498785
-7.99078887752
-7.90438976791
-7.82048613083
-7.74014179678
-7.66623173549
-7.57289639671
-62.9725610984
-3.41941163371
-13.249221974
-9.17499579415
-10.4841527249
-10.0637953822
-10.1451648976
-10.055844046
-10.0084263958
-9.94228818725
-9.87845814729
-9.81297962264
-9.74855822606
-9.68443196542
-9.62004712023
-9.55254006223
-9.47802878327
-9.43563361007
46.481424939
-18.0725073971
-5.30156096143
-10.0606301565
-8.3963954688
-8.81425024007
-8.56905830476
-8.52977983445
-8.42113412789
-8.33169161379
-8.23505814641
-8.13847435119
-8.03811512664
-7.93248142218
-7.82035625422
-7.70679153774
-7.60378109925
-7.47791117338
-57.6939858853
-2.10732883688
-13.6099776739
-9.45518574507
-10.8277922968
-10.3132641543
-10.4037124752
-10.2873424632
-10.2324220116
-10.1548288613
-10.0851853107
-10.015166726
-9.95010965416
-9.8910907788
-9.84122030643
-9.8046685744
-9.77979956091
-9.80403855944
33.3337580661
-15.8433358269
-6.55197246387
-9.72024263863
-8.61072221307
-8.85696417615
-8.67841398166
-8.63320518197
-8.54247973057
-8.466059606
-8.38548496267
-8.30533439654
-8.224402577
-8.14359651223
-8.06148173323
-7.97656544473
-7.88516971763
-7.7310553405
-36.4753231265
-6.50958612875
-13.1079705719
-10.8198580489
-11.5070957689
-11.2274246173
-11.2495724695
-11.1667875205
-11.1078864202
-11.0344151274
-10.9590166809
-10.8769060165
-10.7914594694
-10.7030734767
-10.6085151386
-10.4996982089
-10.358241815
-10.2393510877
-0.379007303571
-8.55270795511
-5.54598247879
-6.29208102958
-5.90719462795
-5.89755401257
-5.76423089412
-5.6763028107
-5.57554637996
-5.48096707538
-5.38519665514
-5.28997884106
-5.19660247421
-5.10686727016
-5.02046246722
-4.93926606866
-4.88451774847
-4.86045117765
-0.00733637576088
-0.00998314641118
-0.0020784222014
-0.0121359262375
-0.0196082594091
-0.0298658548827
-0.0506050994879
-0.0820943326407
-0.123687410285
-0.174728328252
-0.233942377241
-0.299619052569
-0.369628333846
-0.441848817543
-0.514765108127
-0.587275187125
-0.659337859545
-0.730998805987
-0.803012004689
-0.875908502697
-0.950420327429
-1.02681029857
-1.10523805751
-1.18561376098
-1.26746204014
-1.35042552863
-1.43381283816
-1.51706751246
-1.59930423317
-1.68006456041
-1.7585667562
-1.83437147287
-1.90683989597
-1.97570635409
-2.04062717808
-2.10134022266
-2.15775766431
-2.20985482103
-2.25771899991
-2.30135861947
-2.34100728992
-2.37664807681
-2.40862334914
-2.43686061572
-2.46179189904
-2.48328085534
-2.50162603021
-2.51679737242
-2.52903839953
-2.53828481214
-2.54459046515
-2.54799361465
-2.54830327634
-2.54569160854
-2.54003683156
-2.53113380598
-2.51851626925
-2.50187334368
-2.48111028198
-2.45502176705
-2.4235194942
-2.38717950343
-2.34671389997
-2.30262421613
-2.25574763486
-2.20635683441
-2.15498060148
-2.10185213814
-2.0477239314
-1.99283870168
-1.93765753335
-1.882180254
-1.82664674828
-1.77097682637
-1.71516026105
-1.65923421168
-1.60333080384
-1.54806319554
-1.4939894841
-1.44096358592
-1.38904456925
-1.33870361044
-1.29050808249
-1.24424445098
-1.19996387474
-1.15883125807
-1.12197693139
-1.09211122081
-1.07176679636
-1.06476927795
-1.06527962838
-1.06688000317
-1.0685572564
-1.07233233722
-1.07903323686
-1.08843788877
-1.09951579237
-1.11119993839
-1.12228427546
-1.13012339332
-1.13121204931
-1.11993815289
-1.09339690901
-1.04460078968
-0.979707326934
-0.905310697999
-0.810214194346
-0.701807029414
-0.619167968811
-0.550216908124
-0.467923714182
-0.390210085313
-0.38457704908
-0.443209180921
-0.516895823231
-0.499318196266
-0.391271771964
-0.298698041855
-0.221931931166
-0.246879341669
-0.306665818427
-0.270527168708
0.155424182303
0.839660602862
1.35399238831
1.96000790064
2.50476797634
3.0150833367
3.50445968285
3.98018009386
4.44919902257
4.91680483334
5.39036070734
5.87791160347
6.3914684677
6.94778002066
7.5646371563
8.25535096203
9.00799916691
9.7951777097
10.5818279275
11.3546584168
12.1112524082
12.8695465978
13.6460315275
14.4525592224
15.2949154952
16.1819350645
17.1198040128
18.1213402074
19.1928876804
20.3507201418
21.6019113789
22.9690009693
24.4610982593
26.1069803844
27.9128600161
29.9096602176
32.0960079146
34.4995580985
37.104916165
39.9287201756
42.9513716319
46.2029591014
49.6258019496
53.2304087802
56.9805228296
60.9304379199
65.0849982188
69.5371879083
75.012842973
81.0629047837
87.5356710901
94.2927718622
100.666305178
106.330349537
109.073879395
105.092771133
91.9011915419
33.8996792432
-0.0113394550117
-0.0170353736132
-0.0397158558378
-0.0482170486725
-0.0400533539299
-0.0215826524437
0.000166579653904
0.0216449954297
0.0415249936243
0.0592379905128
0.0747966662217
0.0884917812395
0.100820343238
0.112136995824
0.122399479897
0.13130550394
0.13810500213
0.14208769814
0.142390003575
0.138436600871
0.129704350111
0.115918862589
0.0971651230565
0.0736238426457
0.0457600030422
0.0140382152163
-0.0207235413032
-0.0578795736098
-0.0964822839131
-0.135808414421
-0.174828707156
-0.212753695251
-0.248641708461
-0.281678609383
-0.311004608287
-0.335865092346
-0.355571986205
-0.369468864317
-0.377048373023
-0.377774982664
-0.371311920273
-0.357261088915
-0.335510164055
-0.305844507523
-0.268392670439
-0.223158562843
-0.170398491449
-0.110312207798
-0.0433359771418
0.0300372300062
0.109476822654
0.194474022429
0.284530947278
0.379012040491
0.47759167665
0.579784880441
0.684893136376
0.792137255233
0.90242757324
1.01463663393
1.12826160001
1.24321451975
1.35968852989
1.47800985031
1.5979173725
1.71880413275
1.83986046787
1.96053337078
2.08004584549
2.19771431186
2.31273591017
2.42444958133
2.53208791449
2.63494010361
2.73241875117
2.82394381396
2.90866015589
2.98560485562
3.05414744703
3.11411925145
3.16516422816
3.20693532544
3.23932370433
3.26267725026
3.27698623111
3.28163155466
3.27557805309
3.25623157255
3.21914926045
3.16009269162
3.08320143326
2.99379572959
2.89126991903
2.77236655656
2.63474247207
2.4772291248
2.30008815544
2.10539707266
1.89730397872
1.67988011608
1.45865113903
1.24374767993
1.04599380089
0.866524218582
0.707632353066
0.57495633859
0.447925073103
0.311972052769
0.193668753402
0.0923424908625
-0.025894263142
-0.173468368519
-0.338647101111
-0.455183010269
-0.491016261262
-0.461376565087
-0.434447370828
-0.397676203574
-0.333897606361
-0.225448652843
0.17250145906
0.638875854139
0.855359808929
1.12290146556
1.59745736924
2.11055143088
2.56757337705
2.98494249622
3.37827187755
3.75933512444
4.13608968704
4.51605549128
4.90655465517
5.31706224113
5.76054865667
6.25487859314
6.82079341752
7.47010503127
8.19170445149
8.95487519951
9.72621058509
10.4930487683
11.2528874042
12.0186000786
12.799058745
13.6128018478
14.4728798884
15.3859715056
16.3620594795
17.4136881131
18.552061632
19.7927470175
21.1494802098
22.6442963637
24.2950444074
26.1294285831
28.1655302519
30.4341715065
32.9489874897
35.7376229403
38.8017270093
42.1669894524
45.8461631196
49.8540822797
54.1645935314
58.7548846457
63.6201900208
68.7915081259
74.1138209049
79.4647613844
85.1774844512
90.7343345949
99.1586322396
108.795635408
119.423548987
132.556789038
146.132670974
156.910859616
159.170644147
114.04049692
-0.102824863968
-0.116099364406
-0.0680589912664
0.00707277747958
0.0894457120027
0.165059555393
0.229645966553
0.284241596516
0.330932914517
0.371440728264
0.407472548045
0.440738451836
0.472868438318
0.505044371794
0.53788292807
0.571609999237
0.606038032469
0.640957800503
0.675998957076
0.710869298113
0.745255976574
0.778951817301
0.811767963766
0.843581384766
0.874405118941
0.904185601366
0.933041780863
0.961019993166
0.988336327706
1.0150613082
1.04143180871
1.06753765894
1.09358433014
1.11961367045
1.14571018475
1.1718896807
1.19810261874
1.22427627213
1.25028684904
1.27604183043
1.30134710533
1.32610793311
1.35008675101
1.37318271339
1.39513413283
1.41583454076
1.43509345154
1.45279265193
1.46879323625
1.48296987729
1.49525443399
1.50554848931
1.51385038746
1.52002215988
1.5242089974
1.52663668708
1.52768622649
1.52775431926
1.52612033948
1.5227980604
1.51810114659
1.51201623657
1.50434613465
1.49509377886
1.48446302596
1.47271439826
1.45991065654
1.44626408086
1.43204434203
1.41762173184
1.40335644141
1.38961759969
1.37671128305
1.36487255051
1.35436253659
1.34533029933
1.33772096607
1.33133154338
1.32611278581
1.32217371075
1.31948074532
1.31794981931
1.31765258277
1.31888497676
1.32178202452
1.32595860075
1.3307983789
1.3344706765
1.33239669232
1.32210984512
1.30823235692
1.29633326542
1.28586749819
1.27297593643
1.25394155486
1.22595332127
1.18714182963
1.13658774111
1.07328273798
0.99605455944
0.910077837387
0.821667838638
0.732056541139
0.641340070407
0.559540862277
0.47642750017
0.370884056501
0.273208565349
0.208510172705
0.124475115638
0.011884077418
-0.104267572137
-0.183273224008
-0.181375830926
-0.1399093551
-0.0883119508137
-0.0097882104963
0.107738375639
0.311958373072
0.609626187665
0.842402603181
1.16546092205
1.3929163438
1.63286632817
1.98934514723
2.39084298841
2.78945633807
3.17820180064
3.55893043784
3.93640693757
4.3148575753
4.69984258689
5.09724513881
5.51588034925
5.96893610066
6.4747132643
7.05404603069
7.71634121545
8.45013759298
9.2229309451
10.0039993831
10.781876527
11.5647219672
12.3666635476
13.1906601563
14.0309785694
14.9200272309
15.8624883396
16.8675744426
17.9471596429
19.1108446279
20.3728684828
21.7450685267
23.2478159797
24.896882948
26.7184980591
28.7285012401
30.9549942648
33.406766157
36.1068530412
39.0548205847
42.2719623546
45.7646154857
49.5579645295
53.6441242408
58.0678871016
62.8303083136
67.9631453411
73.3715273572
78.854580573
84.3598147853
89.1224297974
94.3257816089
100.822420348
108.268293023
116.766634761
126.933468548
140.0499839
157.4229404
156.151363237
-0.174408462666
-0.00687944540982
0.163793152243
0.287388771692
0.37240847419
0.424794944574
0.454913798086
0.473590817922
0.487664444697
0.500415095148
0.513879213199
0.529728303395
0.549326358408
0.573438451959
0.602234280755
0.635472129964
0.672615175011
0.71307304619
0.756152655459
0.801280581825
0.847809958122
0.895160580516
0.9427868956
0.990200695307
1.03692809082
1.08258024222
1.12685901461
1.16949104989
1.21034368034
1.24928602468
1.28636640329
1.32159388169
1.35512830013
1.3871107933
1.41777744271
1.44731189968
1.47597416306
1.50399886055
1.53160502118
1.55902483311
1.58641932213
1.61396566236
1.64170927418
1.66972261966
1.69792265729
1.72625482033
1.75454257102
1.78264132967
1.81030888108
1.83725771557
1.86323568512
1.88793254036
1.91103691556
1.93228629297
1.95152811879
1.9684125267
1.98387387346
1.99803063398
2.01123289053
2.02352746883
2.03539284468
2.04731806273
2.05977957667
2.07291998387
2.08666539641
2.10096641396
2.11562896158
2.13034160777
2.1446889737
2.15826739888
2.17066217872
2.18145220822
2.19019497226
2.19640052999
2.19963876188
2.19945587494
2.19541628562
2.18714834598
2.17450816313
2.15752617777
2.13629320778
2.11096698945
2.0818467113
2.04928846271
2.01346885902
1.97412645803
1.93043985541
1.88043419641
1.81969381898
1.7452346026
1.66192693604
1.57580986202
1.48714264541
1.39377153901
1.2947885788
1.19070543948
1.08278258178
0.972416400118
0.860699061332
0.751968402381
0.652120053993
0.560521479446
0.475743240635
0.405134567477
0.341788304857
0.256894302649
0.1585547743
0.0953169976419
0.0479280365355
-0.0239486957672
-0.0845931775986
-0.105314848343
-0.0537700430109
0.0482675508663
0.180076355383
0.317649826539
0.546194398251
0.643159411244
0.775644863901
1.04345520384
1.25260538486
1.4541584016
1.60294664849
1.78933319284
2.06182827725
2.38419368586
2.72901310534
3.08278777406
3.44250709003
3.80788088347
4.18171524052
4.56699811207
4.96925689487
5.39599821889
5.86090373329
6.3819284233
6.97846276288
7.6563271133
8.40118396664
9.17939008891
9.96247821625
10.7410058651
11.5235566923
12.3220043767
13.1560264582
13.994436277
14.8765613919
15.8097333106
16.8041413744
17.8707015295
19.0207538932
20.2665715329
21.6225597878
23.1065516502
24.7379489027
26.5403658884
28.5343592956
30.7439871288
33.1802535817
35.859085764
38.7846489117
41.9674785269
45.4117883621
49.1382235106
53.1642216088
57.609616911
62.4927910311
67.8294890333
73.6368285419
79.7456709429
85.8620741105
90.795769528
93.5816210385
96.1305664746
98.5370990909
99.1374351168
100.363712078
108.307598037
135.654822377
193.515783095
-0.17431935561
0.364936764895
0.571311965555
0.599822650061
0.583300408544
0.552522432358
0.521589049642
0.498796128351
0.486329214337
0.48305665606
0.48777193259
0.499867276155
0.519117190842
0.545159698046
0.577454758708
0.615307796739
0.657944949526
0.704646055895
0.75468995824
0.807433848483
0.862246755121
0.91861350695
0.975958907715
1.03382213822
1.09174446904
1.14932548803
1.20617867551
1.26198988609
1.31650417877
1.36949530524
1.42083502934
1.47040381203
1.51820954232
1.56420090409
1.60846465273
1.65104418267
1.69205508317
1.73157941569
1.76975378602
1.80667895514
1.84243848156
1.87709804795
1.91064999058
1.94307806646
1.97426797498
2.00411196861
2.03242647901
2.05901747712
2.08365247336
2.106092821
2.12604900463
2.14323211545
2.15736173825
2.16823669066
2.17575809713
2.1800152777
2.18086822396
2.17858089097
2.17299889199
2.16419915715
2.15230994387
2.13742919702
2.11989329877
2.10014415138
2.078579992
2.05548618777
2.03112433999
2.00578464557
1.97976071873
1.95335252099
1.92683452346
1.90042795042
1.87428862299
1.848444813
1.82283643267
1.79732956592
1.77176186489
1.74597843527
1.71991778622
1.69360309537
1.66709378541
1.64049256206
1.61395032081
1.58761273876
1.56153118613
1.53521273873
1.50779909694
1.47729623474
1.43880503111
1.38951776702
1.33337899428
1.27512626212
1.21417628329
1.1472006937
1.07231737589
0.988942058652
0.897595877291
0.799976382377
0.699392847369
0.601761325573
0.508675533201
0.422586949921
0.351313803259
0.294331386419
0.221483544016
0.123679939334
0.0390690212564
-0.0097389652356
-0.0627269655231
-0.115224791577
-0.114654984611
-0.0354869992608
0.127850525905
0.301905084885
0.549174177396
0.688893002491
0.806139720645
0.883090498386
1.07119414495
1.27772437087
1.41487338373
1.54677346867
1.67662139398
1.85441759653
2.10160571509
2.40043521283
2.73243920151
3.08387624333
3.44862187706
3.82340013469
4.20891439805
4.60671368314
5.0215295009
5.46141418928
5.94024783514
6.47718800625
7.08831061542
7.77804083626
8.52761983554
9.30596712876
10.085634571
10.8613474226
11.6411621866
12.4379995253
13.272902984
14.1096108368
14.9911236966
15.9238318441
16.9170239524
17.9822613276
19.1296160063
20.3718851059
21.722230101
23.1989792509
24.8207144914
26.6115583122
28.5920101261
30.7864351053
33.2059209391
35.8657036336
38.7710189561
41.9310415943
45.3492111
49.045505093
53.042823917
57.4812912512
62.3890536382
67.761557129
73.6447801404
79.9097191077
86.2248771032
91.2976989436
93.3039387857
93.5935827454
92.7106196116
88.7301931767
84.1898405613
86.7135983791
114.288324349
197.641891833
-0.00647918352189
1.03078223229
1.01819424301
0.788032100981
0.625987092301
0.523209519239
0.462228729116
0.430992576554
0.420966769873
0.425291358871
0.439953193421
0.462845476888
0.492885104707
0.529248746605
0.571213873691
0.618052395535
0.669056282921
0.723556814542
0.780881076578
0.840465143235
0.901688899557
0.964026282182
1.02691778213
1.08989749797
1.15242517856
1.21408424259
1.27442730595
1.33309508498
1.38975771728
1.44416016695
1.49614935836
1.5455952879
1.59251378865
1.63693038247
1.67900692461
1.71886376361
1.75675959087
1.79289391625
1.82752362322
1.86084329441
1.89303943096
1.92421655008
1.95440982853
1.98357816122
2.01158881752
2.03825586087
2.06331712927
2.08649765324
2.10747360024
2.12591963598
2.14150547107
2.15389188752
2.16291139648
2.16839840057
2.17028669411
2.16905478691
2.16496620313
2.15822938093
2.14902826336
2.13775687114
2.12484738324
2.11057642761
2.09503504306
2.07813628212
2.05983567589
2.03996259378
2.01829394024
1.99456444095
1.96854530778
1.94005715767
1.909022673
1.87544208144
1.83938191941
1.80094181564
1.76030513656
1.71769709036
1.67346524747
1.62808513308
1.58213340659
1.53626032808
1.49108691554
1.44716897737
1.40491111091
1.36451002654
1.32581076302
1.28816844919
1.25029903692
1.20986070042
1.16243892435
1.10485588811
1.04090024702
0.975974284393
0.909420150009
0.838545919533
0.762365799466
0.681645860928
0.598434041835
0.51538742493
0.435550150357
0.361704130508
0.297192194926
0.249329994248
0.217978207101
0.181790193448
0.120018547187
0.057447690531
0.0177752093946
-0.0137563894218
-0.0602447167217
-0.0680511818511
0.0130315117073
0.189508751792
0.398252186276
0.556765306478
0.712292868064
0.80268018834
0.908698702835
1.0087743941
1.16725006092
1.30590393189
1.40860022075
1.52172260832
1.65564324977
1.83761382195
2.07603244862
2.36306820267
2.68436240982
3.02979871773
3.3912525425
3.7660956938
4.15275083824
4.55374525691
4.97291572035
5.42026385791
5.91026052895
6.4618276398
7.08788274227
7.78836930091
8.54246274268
9.3198470557
10.0976296261
10.8722612388
11.6523861542
12.4522630055
13.2860911986
14.1186673121
15.0001013079
15.9314431117
16.9228528449
17.9850499946
19.1284210179
20.3648133109
21.7080403194
23.1752397457
24.7862529385
26.5635557276
28.5298454385
30.7076934302
33.1131276043
35.7597621202
38.6584243178
41.8162435805
45.2441163354
48.955371985
52.9682661665
57.3800208358
62.2132646324
67.4427382624
73.0837300949
79.0293944959
85.0717896982
90.1459807765
92.8583727393
93.6129176742
92.9036555212
89.5253825955
85.1165857429
85.54177951
105.786664227
172.954521548
0.350111112269
1.87826371491
1.35106111346
0.820846849785
0.573146137025
0.454852255279
0.401063713383
0.37996859592
0.37945460513
0.39185545074
0.413445870909
0.442202862281
0.477038450081
0.517096941936
0.561669764345
0.610084791797
0.661708753335
0.71597811025
0.772322152289
0.830244021123
0.889210225268
0.948794326841
1.00846645823
1.06781715513
1.12635824292
1.18369955679
1.23940086034
1.29313185285
1.34458381774
1.39353659385
1.43986802125
1.48352718154
1.52461652659
1.56323852762
1.59966155568
1.63411397985
1.6669251059
1.69834482952
1.72867470626
1.75810228994
1.78678980329
1.8147817267
1.84205573008
1.86849181323
1.89390044168
1.91804282365
1.94063896747
1.96140583074
1.98004588451
1.99630289568
2.0099122693
2.02063838986
2.02835026656
2.0329093207
2.03420113974
2.03214456618
2.02684396632
2.01805280236
2.00569557105
1.98971912943
1.97017035157
1.94715075119
1.92094723014
1.89179230447
1.85998726282
1.82579090557
1.78946797894
1.75117783241
1.71105396433
1.66916314937
1.62559229078
1.58040830132
1.5337384374
1.48568518186
1.43640233987
1.38610561213
1.33517344453
1.28409535117
1.23352537294
1.18415704651
1.13670402672
1.09176062684
1.04975535605
1.01078197467
0.974652022733
0.940533277542
0.907008065842
0.871871463212
0.830680013414
0.780262566145
0.724249802457
0.667161460814
0.607981111158
0.543738174774
0.473964606552
0.400467593477
0.326064259425
0.253959556599
0.189526186148
0.139304853394
0.110961971902
0.103370802712
0.103347882422
0.0936245208217
0.0837069017283
0.0917482875682
0.109924287564
0.109530570038
0.109604268656
0.179966606687
0.297728823679
0.415875257922
0.510581598376
0.643828100685
0.747263871114
0.813164505795
0.899648865301
0.994610548095
1.11819579269
1.22843939919
1.33176825646
1.4540900798
1.6050221022
1.79883698585
2.03987502322
2.32369671942
2.64061100404
2.98260096367
3.34266111558
3.71791629794
4.10685041745
4.51163273233
4.93726701818
5.39422636394
5.89849319637
6.46610994327
7.10754540449
7.81677007394
8.57326130167
9.34728832438
10.1209807327
10.8916953822
11.6693823437
12.4717901231
13.288345202
14.1179261317
14.9956493051
15.9233255395
16.9112834189
17.9693775719
19.1079250813
20.3381240832
21.6737792314
23.1315898783
24.7313550255
26.4953709645
28.446317765
30.6074098406
32.996978376
35.6311692276
38.5230560834
41.6824234895
45.1247650103
48.8600915422
52.8954785928
57.269948133
61.9870146354
67.0095989371
72.3126541288
77.7945692056
83.4106001125
88.4250650861
92.3995583581
95.1681755019
96.8347301613
97.0145615839
96.2252597136
97.2212772317
108.168680104
140.04146969
0.873176368079
2.73860437512
1.50234029211
0.772370182067
0.530102070976
0.430430181926
0.389941853905
0.371957682353
0.371608983341
0.3829435385
0.403425553056
0.430987708372
0.464341829433
0.502387670879
0.544240812906
0.589147727046
0.63645206597
0.685609032111
0.736086063159
0.787474016423
0.839295900862
0.891190665706
0.942713227843
0.993527687825
1.04320290249
1.09142693274
1.13784588651
1.18220626213
1.22430027928
1.26400623753
1.30133932444
1.33636189995
1.36932499423
1.40046383263
1.43016015387
1.45868818525
1.48641618481
1.51356821644
1.54038252623
1.56693561089
1.5932760506
1.61930529572
1.6448810088
1.6697663715
1.69369720956
1.71637791154
1.73751171712
1.75682580471
1.77406608572
1.78902938841
1.80150557331
1.81139791774
1.81853320935
1.82283138149
1.82422201565
1.82253204689
1.81768408759
1.81001149052
1.79942694124
1.78576069381
1.76876941509
1.748020251
1.72324024497
1.69425987899
1.66108176521
1.62378354182
1.58260238007
1.53777760216
1.48962146982
1.43846483492
1.38476461446
1.32903017337
1.27184386974
1.2137421719
1.15526414686
1.09684978596
1.03898445341
0.982163979361
0.926960091248
0.873885890578
0.823452538076
0.776039332507
0.731887976826
0.690875717164
0.652809352991
0.616837287221
0.581530015861
0.545183044435
0.503874939902
0.454725042417
0.40227053629
0.351309806938
0.300800383596
0.247382404342
0.191329945092
0.135257315142
0.0821876826874
0.0362740134722
0.0042466356795
-0.00657530348473
0.00607873139346
0.0348172696101
0.0714628786681
0.113033356271
0.176061744161
0.254046427926
0.322279106392
0.342338536055
0.363367659473
0.398549113758
0.446359064362
0.502193418336
0.556807596888
0.635740700638
0.682633291411
0.727977380286
0.801288775338
0.890794241237
1.00042764368
1.10972638722
1.2279923307
1.36698277743
1.53579151875
1.74110088946
1.98736887812
2.2704852113
2.5856390813
2.92511070267
3.28471564425
3.66014072197
4.05150149755
4.45985497035
4.89234680181
5.35979202985
5.87855462545
6.46169156049
7.11510616095
7.82940348437
8.58301743695
9.35038272878
10.1169334246
10.882285814
11.6574478494
12.4600974615
13.2518378029
14.0787934735
14.9509173839
15.8736776082
16.8565726594
17.9090423444
19.0407905938
20.2629402542
21.5888058089
23.0352240387
24.6215740974
26.3705698647
28.3044956768
30.4477183959
32.8195857357
35.4395620357
38.3212776982
41.478735003
44.9286191936
48.6817060349
52.7343234826
57.0849505268
61.7137854528
66.5815536177
71.6334351113
76.7673206277
82.043766885
86.9692487711
91.9091976601
96.5859324136
100.742377829
104.476232525
107.481993349
109.869027064
113.897418351
115.261709812
1.4991318687
3.45159791471
1.51290217645
0.746186097347
0.554525345858
0.467780806908
0.425774151006
0.396539207692
0.38596062965
0.387499646448
0.399158190292
0.418114530789
0.442772042787
0.471702624787
0.503879640578
0.538481799771
0.574853010351
0.612490137102
0.650930993203
0.689830098965
0.728810499576
0.767609762305
0.80587704482
0.843390866288
0.879834412351
0.915031794232