/*--------------------------------*- C++ -*----------------------------------*\
| =========                 |                                                 |
| \\      /  F ield         | OpenFOAM: The Open Source CFD Toolbox           |
|  \\    /   O peration     | Version:  v1806                                 |
|   \\  /    A nd           | Web:      www.OpenFOAM.com                      |
|    \\/     M anipulation  |                                                 |
\*---------------------------------------------------------------------------*/
FoamFile
{
    version     2.0;
    format      ascii;
    class       volVectorField;
    location    "24";
    object      U;
}
// * * * * * * * * * * * * * * * * * * * * * * * * * * * * * * * * * * * * * //

dimensions      [0 1 -1 0 0 0 0];


internalField   nonuniform List<vector> 
12225
(
(9.73874624475 0.0400030125232 0)
(9.50200981161 0.0407943837317 0)
(9.24508856806 0.0403038256033 0)
(8.99270623817 0.0406540282331 0)
(8.75271239682 0.0406511686103 0)
(8.52385033174 0.0403315538673 0)
(8.30448360114 0.0399063458678 0)
(8.09379459268 0.0394705428269 0)
(7.89108986979 0.0390730185779 0)
(7.69551380986 0.0387604890774 0)
(7.50607203779 0.0385815054262 0)
(7.32164582278 0.0385902838953 0)
(7.14092949841 0.038856412727 0)
(6.96231632188 0.0394851083335 0)
(6.78368768369 0.0406577020409 0)
(6.60187633372 0.0427621678032 0)
(6.4116376783 0.0469187281527 0)
(6.19408482793 0.05313877938 0)
(10.0163360055 0.0714775920457 0)
(10.0356183209 0.0698947780403 0)
(10.0217744516 0.0674776589212 0)
(9.99215277491 0.0684031226976 0)
(9.95584221389 0.0693258702616 0)
(9.91387280212 0.0699634385206 0)
(9.86634537312 0.0706313510061 0)
(9.81382098378 0.0714431493957 0)
(9.75681852522 0.0724437248743 0)
(9.69557492971 0.0737039244707 0)
(9.63007128795 0.0753226606486 0)
(9.56005330193 0.077430870303 0)
(9.4849815486 0.0802146006374 0)
(9.40392273477 0.0839669674874 0)
(9.31535166263 0.089197313234 0)
(9.2166834602 0.0969262231186 0)
(9.10486950093 0.109675104666 0)
(8.96366244863 0.136360574926 0)
(10.0210274588 0.0583325732408 0)
(10.0524831865 0.0585185858806 0)
(10.0653606577 0.0572247565204 0)
(10.0679482687 0.0601236510634 0)
(10.0673553411 0.063234075864 0)
(10.0640877034 0.0659555580569 0)
(10.0575361505 0.0686619452434 0)
(10.0476119162 0.071524986463 0)
(10.0343575944 0.0746255532864 0)
(10.0176783264 0.0780852318274 0)
(9.99734100175 0.0820742609263 0)
(9.97299477618 0.0868176351057 0)
(9.94413882229 0.0926315812846 0)
(9.91005640454 0.100002925477 0)
(9.86973787586 0.109745959278 0)
(9.82180094901 0.123346129987 0)
(9.76555854462 0.14379673117 0)
(9.69555061272 0.174999603436 0)
(10.0157944405 0.0480074817875 0)
(10.0423849022 0.0558147273411 0)
(10.0571314745 0.0578895860681 0)
(10.0629437053 0.062259829967 0)
(10.0660697886 0.0664422281448 0)
(10.0675409096 0.0699503493497 0)
(10.0668535663 0.0732930069066 0)
(10.0638534981 0.0767835793814 0)
(10.0585476995 0.0805875449057 0)
(10.0508379788 0.0848844247074 0)
(10.0405096104 0.0899002909061 0)
(10.0272684973 0.0959226625763 0)
(10.0107405058 0.103344705513 0)
(9.99045643457 0.112751034024 0)
(9.96587465128 0.125064343309 0)
(9.93650675174 0.141789158929 0)
(9.90284281127 0.165371377111 0)
(9.86346905243 0.197847543386 0)
(10.0114402706 0.0400432614573 0)
(10.0328742456 0.051990930472 0)
(10.0468800494 0.0554363215239 0)
(10.0530497361 0.0597407382561 0)
(10.0563697672 0.06408611618 0)
(10.0581791875 0.0679616004044 0)
(10.0581215916 0.0717832894371 0)
(10.0560232833 0.0758897185836 0)
(10.0518956003 0.0804678106627 0)
(10.0456815139 0.0857060906184 0)
(10.0372250992 0.0918476042936 0)
(10.0263149218 0.0992092643387 0)
(10.0127051325 0.108222296139 0)
(9.99613293028 0.119505967326 0)
(9.97638813002 0.133975552478 0)
(9.95349139471 0.152970199682 0)
(9.92832763298 0.178322760814 0)
(9.90092605737 0.211321576954 0)
(10.0082782279 0.0337220987885 0)
(10.0253496793 0.0479372915449 0)
(10.0381656057 0.0531914677298 0)
(10.0444552122 0.0582434024085 0)
(10.0477868545 0.063409920406 0)
(10.0495825615 0.0681883513184 0)
(10.0496419775 0.0728801894965 0)
(10.0477852944 0.0778500723098 0)
(10.0440155032 0.0833314094006 0)
(10.038303906 0.089543612855 0)
(10.0305433745 0.0967592973816 0)
(10.0205913592 0.105327218695 0)
(10.0083054287 0.115704251259 0)
(9.99357958474 0.128509557484 0)
(9.97642790581 0.144589758275 0)
(9.95714913052 0.165059464775 0)
(9.93673104147 0.191234639439 0)
(9.91569702239 0.223949922372 0)
(10.0059535245 0.0287283558217 0)
(10.0194424577 0.0439914414603 0)
(10.0308589551 0.0508929354492 0)
(10.0370847891 0.0566361121197 0)
(10.0404014806 0.0623352944813 0)
(10.0421581993 0.0676982656373 0)
(10.0423050654 0.0729831021901 0)
(10.0406745276 0.0785801012877 0)
(10.0372559898 0.0847693553295 0)
(10.0320407773 0.091798707193 0)
(10.0249661912 0.0999592754782 0)
(10.0159529758 0.109612462689 0)
(10.004948779 0.121213056275 0)
(9.99197336696 0.135342618663 0)
(9.97719799676 0.1527379656 0)
(9.96107273123 0.174276649421 0)
(9.94457067245 0.200861468287 0)
(9.92832169806 0.232968856044 0)
(10.0042810384 0.0247869710119 0)
(10.0148804726 0.0402919540108 0)
(10.0248350248 0.0485399946154 0)
(10.0308490878 0.0550128598001 0)
(10.0341629002 0.0612736280839 0)
(10.0359334039 0.0672932428609 0)
(10.0362228096 0.0732965676774 0)
(10.0348888107 0.0796585865112 0)
(10.0319100015 0.0866799064469 0)
(10.0272951464 0.0946240261578 0)
(10.0210254452 0.103787457778 0)
(10.013082948 0.114527433807 0)
(10.0034956711 0.127275639185 0)
(9.99238400201 0.142552563034 0)
(9.98002638374 0.160968225547 0)
(9.96694593889 0.183179120132 0)
(9.95404708485 0.209769759884 0)
(9.94197599315 0.240949524383 0)
(10.0030790101 0.0216671910243 0)
(10.0113870999 0.036919859666 0)
(10.0199276026 0.0461786208235 0)
(10.0256155921 0.0533690063207 0)
(10.0289226087 0.0601749816525 0)
(10.0307487113 0.0668010052461 0)
(10.0312229287 0.0734650265016 0)
(10.0302394837 0.0805197814844 0)
(10.0277754499 0.0882802153936 0)
(10.0238566626 0.097025123097 0)
(10.0185058519 0.107052481183 0)
(10.0117613916 0.118705381716 0)
(10.0037190313 0.132378627519 0)
(9.99457388318 0.148518554494 0)
(9.98466880932 0.167606383064 0)
(9.97454519516 0.190105596802 0)
(9.96500719356 0.216361458201 0)
(9.95667535994 0.246395452569 0)
(10.0022207524 0.0191835696859 0)
(10.0087416336 0.033903171455 0)
(10.0159902297 0.0438461012726 0)
(10.0212822191 0.05168900758 0)
(10.0245756937 0.0590173125627 0)
(10.0265030489 0.0662115693243 0)
(10.0272174715 0.0735089050088 0)
(10.0266523032 0.0812397176656 0)
(10.0247905963 0.0897202521738 0)
(10.0216731577 0.0992331696456 0)
(10.0173581034 0.110066108496 0)
(10.0119312288 0.122534140549 0)
(10.005540553 0.136981460272 0)
(9.99843022375 0.153771602787 0)
(9.99097187045 0.173262265865 0)
(9.98368829073 0.195754800875 0)
(9.97727051233 0.221418434949 0)
(9.97232920378 0.250152704232 0)
(10.0016090207 0.0171913276868 0)
(10.0067582386 0.0312462676145 0)
(10.0128818208 0.0415907751957 0)
(10.017756542 0.0499793514275 0)
(10.021036335 0.057785020761 0)
(10.0231116566 0.0654931521674 0)
(10.0241254697 0.073367662213 0)
(10.024045245 0.0817160921139 0)
(10.0228654236 0.0908430483233 0)
(10.0206401363 0.101024014855 0)
(10.0174560114 0.112527954403 0)
(10.0134359573 0.12563423853 0)
(10.0087643682 0.140630539872 0)
(10.0037112569 0.157798434316 0)
(9.99864899921 0.177385996391 0)
(9.99405755422 0.1995659473 0)
(9.99051161253 0.224383727416 0)
(9.98861307739 0.251669341028 0)
(10.0012083263 0.015671414169 0)
(10.0054100681 0.0290683254232 0)
(10.0106698332 0.0395878795504 0)
(10.015179464 0.0483754816267 0)
(10.0184571277 0.056570806741 0)
(10.0207125971 0.0646985903757 0)
(10.0220585933 0.0730447523397 0)
(10.0224854162 0.0818977254074 0)
(10.0219999752 0.0915444329867 0)
(10.0206664918 0.102246127909 0)
(10.018590022 0.114248842025 0)
(10.0159158876 0.127794039982 0)
(10.0128463545 0.143115489265 0)
(10.0096558481 0.160422621475 0)
(10.0066977291 0.179876663136 0)
(10.0044001619 0.201557389902 0)
(10.0032383116 0.225430150509 0)
(10.0038171087 0.251285343873 0)
(10.0009158079 0.0144192053592 0)
(10.0043915611 0.0271415341791 0)
(10.0089408509 0.0376575134625 0)
(10.0131253562 0.0467184319262 0)
(10.0164152141 0.0552334664551 0)
(10.0188826146 0.063714893092 0)
(10.0206028652 0.072459769212 0)
(10.0215816754 0.0817388793173 0)
(10.021839022 0.0918163947802 0)
(10.0214482114 0.102932302332 0)
(10.0205271751 0.11530449745 0)
(10.0192358504 0.129134883099 0)
(10.0177844483 0.144604375739 0)
(10.0164410981 0.161858156914 0)
(10.0155309405 0.180985454792 0)
(10.0154259657 0.201995920027 0)
(10.0165047091 0.224799217903 0)
(10.0193789916 0.249162925087 0)
(10.000681959 0.0131986866659 0)
(10.0035617224 0.0251603934482 0)
(10.0074997145 0.0355224763693 0)
(10.0114029618 0.0447549934921 0)
(10.0147540827 0.0535384566167 0)
(10.0175209125 0.0623346737606 0)
(10.0197358144 0.0714365186854 0)
(10.0214117835 0.0810930058152 0)
(10.0225798231 0.0915379626187 0)
(10.0233189251 0.10298053724 0)
(10.0237529036 0.115602492576 0)
(10.0240453334 0.129559985451 0)
(10.0244009911 0.144977597545 0)
(10.0250663784 0.161937742431 0)
(10.0263235523 0.180465204777 0)
(10.0284779679 0.200513943021 0)
(10.0318109643 0.221957686711 0)
(10.0369501933 0.244565895285 0)
(10.0005108566 0.0119992725462 0)
(10.002951183 0.0231168155663 0)
(10.0064281283 0.0331477789584 0)
(10.0101444287 0.0423865082161 0)
(10.0136392254 0.0513167683022 0)
(10.0168165419 0.060323359945 0)
(10.0196684674 0.0696747097101 0)
(10.0222069225 0.0795900549926 0)
(10.024468882 0.0902654932774 0)
(10.02653403 0.101870219989 0)
(10.0285226626 0.114542959299 0)
(10.030589278 0.128389647115 0)
(10.0329188039 0.143479951019 0)
(10.0357218552 0.159838895492 0)
(10.0392258239 0.177439567823 0)
(10.0436639566 0.196196202514 0)
(10.049223364 0.215964198624 0)
(10.0565516886 0.236525318103 0)
(10.0004049771 0.0107746390731 0)
(10.0025804886 0.0209355043723 0)
(10.0057966865 0.0304240792922 0)
(10.0094840414 0.039442042951 0)
(10.0132560148 0.0483205118077 0)
(10.0169889497 0.0573544861777 0)
(10.0206433122 0.0667674109835 0)
(10.0242227154 0.07673821687 0)
(10.0277621641 0.0874179944633 0)
(10.0313339815 0.0989293996966 0)
(10.0350438298 0.11136322184 0)
(10.0390238385 0.124776015994 0)
(10.043425246 0.139187576745 0)
(10.0484115042 0.154577341853 0)
(10.0541488164 0.170881958533 0)
(10.0607982845 0.187994600912 0)
(10.068461018 0.205768708057 0)
(10.0778062328 0.22401025675 0)
(10.000364866 0.00942891618119 0)
(10.0024616401 0.0184483406449 0)
(10.0056596953 0.027121334844 0)
(10.0095392099 0.0356091651005 0)
(10.0137782898 0.0441321535538 0)
(10.0182479262 0.0528956032802 0)
(10.0228870636 0.0620632983285 0)
(10.027685685 0.0717642597376 0)
(10.0326674291 0.0820994748451 0)
(10.0378872599 0.093142386983 0)
(10.0434254592 0.1049364495 0)
(10.049379847 0.117494264121 0)
(10.0558580986 0.130796272893 0)
(10.0629703467 0.144791288721 0)
(10.070821259 0.159396786816 0)
(10.079505718 0.174502186906 0)
(10.0890520995 0.189973397074 0)
(10.1001511124 0.205649445401 0)
(10.0003889477 0.00779735098139 0)
(10.00260019 0.0153606252654 0)
(10.0060537972 0.0228479142979 0)
(10.0103969327 0.030402553858 0)
(10.0153388157 0.0381618242063 0)
(10.0207494155 0.0462463926072 0)
(10.026552344 0.0547533356414 0)
(10.0327202748 0.063755660652 0)
(10.0392567903 0.0733028704807 0)
(10.0461906843 0.0834208795574 0)
(10.0535686241 0.0941114693666 0)
(10.0614476629 0.105352323963 0)
(10.0698883421 0.117097783846 0)
(10.0789486106 0.129280445515 0)
(10.0886780617 0.141813732525 0)
(10.0991171239 0.1545953752 0)
(10.1102387395 0.167512197754 0)
(10.1227523858 0.180437774662 0)
(10.0004933177 0.00557695732567 0)
(10.003050809 0.0111092952132 0)
(10.0070923703 0.0168405466759 0)
(10.0122341278 0.0228940851477 0)
(10.0181641846 0.0293236282094 0)
(10.0247424549 0.0361625590146 0)
(10.0318802393 0.0434382566702 0)
(10.0395313254 0.0511673446733 0)
(10.0476739398 0.0593511151034 0)
(10.0563060183 0.0679749541897 0)
(10.0654381533 0.0770091234299 0)
(10.0750867632 0.0864092702643 0)
(10.0852683862 0.0961176651249 0)
(10.0959955065 0.106064803915 0)
(10.1072728201 0.116172170147 0)
(10.1190989347 0.12635490554 0)
(10.1314065115 0.13652545648 0)
(10.1449140745 0.146592004116 0)
(10.0006716592 0.00307622612305 0)
(10.0037611307 0.00632447187626 0)
(10.0086295215 0.0100865150543 0)
(10.014735241 0.0144462098298 0)
(10.0216901688 0.0193522140652 0)
(10.0293460877 0.0247490937427 0)
(10.0376179275 0.0306053768826 0)
(10.0464504074 0.0368941454295 0)
(10.055803932 0.0435816450058 0)
(10.065656001 0.0506270074319 0)
(10.0759950174 0.0579834845637 0)
(10.0868132943 0.0655982701213 0)
(10.0981021132 0.0734126385445 0)
(10.1098492954 0.081363172906 0)
(10.1220367978 0.0893835401415 0)
(10.1346438198 0.0974067984243 0)
(10.1475867745 0.10536747186 0)
(10.1615784855 0.113200927411 0)
(10.0008815687 0.000614873397281 0)
(10.0045939269 0.00170100517312 0)
(10.0103662927 0.00372118080813 0)
(10.0174100003 0.00664936391827 0)
(10.0252490405 0.010275619415 0)
(10.0337590237 0.0144556592538 0)
(10.0428821417 0.0191168842748 0)
(10.0525646054 0.0242024046255 0)
(10.0627586248 0.0296534472919 0)
(10.0734334322 0.0354125478539 0)
(10.0845682268 0.0414244987397 0)
(10.0961436061 0.0476339711429 0)
(10.1081378989 0.0539840779489 0)
(10.120526242 0.0604168877355 0)
(10.1332796795 0.0668743351876 0)
(10.1463688801 0.0732997189164 0)
(10.1597042435 0.0796386790365 0)
(10.1740071495 0.0858385294058 0)
(10.0011848847 -0.00205371974801 0)
(10.0057605842 -0.00314420633758 0)
(10.01265195 -0.00267485928976 0)
(10.0206917251 -0.00094360252631 0)
(10.0293470551 0.00160000153032 0)
(10.0385840186 0.00473746162606 0)
(10.0483970727 0.00837540279153 0)
(10.0587352788 0.0124355835425 0)
(10.0695471138 0.016840129661 0)
(10.0808021904 0.0215222875236 0)
(10.092478387 0.0264245354747 0)
(10.1045511705 0.0314926115141 0)
(10.1169917954 0.036673176571 0)
(10.1297681319 0.0419135744144 0)
(10.1428442669 0.0471627324309 0)
(10.1561843867 0.0523713787204 0)
(10.1696928379 0.0574938952751 0)
(10.184079151 0.0624879561876 0)
(10.0016601627 -0.00506689178182 0)
(10.0074579902 -0.00831542273144 0)
(10.0157226138 -0.00909509527001 0)
(10.0247785537 -0.00828352731555 0)
(10.0341600468 -0.00663777375512 0)
(10.0440235547 -0.00440180132858 0)
(10.0544207504 -0.00166282507156 0)
(10.0652961521 0.00147762453697 0)
(10.0765996636 0.00492602810255 0)
(10.0883108021 0.00861157618878 0)
(10.1004106009 0.0124807457375 0)
(10.1128718695 0.0164854190386 0)
(10.1256614032 0.0205797370998 0)
(10.1387427573 0.0247200758613 0)
(10.1520761349 0.0288644750958 0)
(10.1656237874 0.0329718491774 0)
(10.1792919094 0.0370019472362 0)
(10.1938057999 0.0409155525414 0)
(10.00238978 -0.00861193623874 0)
(10.0099338365 -0.0138729161617 0)
(10.0198363373 -0.0154386388855 0)
(10.0298456378 -0.0152301647053 0)
(10.0398119792 -0.0142653071833 0)
(10.0501735078 -0.0126988944985 0)
(10.0610189228 -0.0106037513064 0)
(10.0722787938 -0.0081142275238 0)
(10.0839166975 -0.00534130740232 0)
(10.095925512 -0.00235189933034 0)
(10.1082916716 0.000802951008806 0)
(10.120987897 0.00407684363432 0)
(10.1339803619 0.00742651961038 0)
(10.1472330238 0.0108096373694 0)
(10.160701927 0.0141894692098 0)
(10.1743419795 0.0175297411689 0)
(10.1880497698 0.0207931627477 0)
(10.2025227052 0.0239432711559 0)
(10.0036278596 -0.0129750260563 0)
(10.0136397502 -0.019841788916 0)
(10.0253827867 -0.0216039298431 0)
(10.0361926866 -0.0217882760852 0)
(10.0466345957 -0.0214738196057 0)
(10.0574630759 -0.0206147018755 0)
(10.0687321602 -0.0192615456051 0)
(10.0803432308 -0.0175614374144 0)
(10.0922810713 -0.0156129422793 0)
(10.1045596602 -0.0134685413395 0)
(10.1171705279 -0.0111683042177 0)
(10.1300862139 -0.00875007226515 0)
(10.1432721494 -0.00624811768306 0)
(10.1566870373 -0.00369024137224 0)
(10.1702852024 -0.00110709462145 0)
(10.1840188056 0.00146840239285 0)
(10.1977844312 0.00399636269628 0)
(10.2123059391 0.00642436471805 0)
(10.0054925483 -0.0185121774191 0)
(10.0188897281 -0.0260873932361 0)
(10.0324799472 -0.0273223120791 0)
(10.0437522416 -0.0274929338474 0)
(10.0544447385 -0.0273072772654 0)
(10.0655750995 -0.0265526866794 0)
(10.0771053029 -0.0253617336711 0)
(10.0889211402 -0.0239181162297 0)
(10.1010378625 -0.02230761555 0)
(10.1134841172 -0.0205675302887 0)
(10.1262519197 -0.0187271006195 0)
(10.1393126188 -0.0168121199936 0)
(10.1526314031 -0.0148430536302 0)
(10.1661676495 -0.0128366147306 0)
(10.1798703449 -0.0108086832869 0)
(10.1936790116 -0.00877837142066 0)
(10.207463848 -0.00677792420891 0)
(10.2218764178 -0.00487275587007 0)
(10.0086703128 -0.0257179531236 0)
(10.0265574289 -0.0324673700628 0)
(10.0418569734 -0.0332803131835 0)
(10.0534281596 -0.0343166919176 0)
(10.0644158387 -0.0350495156979 0)
(10.0758619014 -0.0350505373749 0)
(10.0875991234 -0.0345549517521 0)
(10.0995384306 -0.0337730597326 0)
(10.1117396088 -0.032785316238 0)
(10.1242459784 -0.0316345588371 0)
(10.137053092 -0.0303603444132 0)
(10.1501367996 -0.0289945884682 0)
(10.1634670893 -0.0275587731244 0)
(10.1770066938 -0.0260663422155 0)
(10.1907056609 -0.0245247907795 0)
(10.2044987552 -0.0229370058367 0)
(10.2182355063 -0.0213140071315 0)
(10.2325230294 -0.0197217203271 0)
(10.0129692234 -0.0350733503277 0)
(10.0360897971 -0.0370004385664 0)
(10.0518456427 -0.0349604371512 0)
(10.0628097234 -0.0351718275531 0)
(10.0734638641 -0.0356100206778 0)
(10.0845125661 -0.0356097047633 0)
(10.0956219184 -0.0353607732898 0)
(10.1067486198 -0.034983382015 0)
(10.1179979134 -0.0344894224755 0)
(10.1294306308 -0.0338851057318 0)
(10.1410571881 -0.0331883015867 0)
(10.1528725156 -0.0324154113736 0)
(10.1648666091 -0.0315757703543 0)
(10.1770216417 -0.0306723437851 0)
(10.1893076927 -0.0296989149312 0)
(10.2016756931 -0.0286293403555 0)
(10.2139623838 -0.0274060282321 0)
(10.2265181805 -0.0259366302175 0)
(10.0164681528 -0.0491845785166 0)
(10.0404762082 -0.050494416107 0)
(10.0475204575 -0.0482393697453 0)
(10.047177355 -0.0480665169888 0)
(10.0455450119 -0.0479362246921 0)
(10.0432263554 -0.0474468621208 0)
(10.0400442197 -0.0468154738554 0)
(10.0362375226 -0.0461384538012 0)
(10.032138211 -0.045421878263 0)
(10.0279779052 -0.0446687564041 0)
(10.0239090126 -0.0438894629459 0)
(10.0200484177 -0.0430918603877 0)
(10.0164886467 -0.0422781987341 0)
(10.0132990296 -0.0414457876362 0)
(10.0105323943 -0.0405830022028 0)
(10.0082390874 -0.03964948508 0)
(10.0064141057 -0.0385331468564 0)
(10.0051848406 -0.0365503275596 0)
(9.85293590904 -0.0291670693132 0)
(9.7242806791 -0.0314256955941 0)
(9.58092287093 -0.0314664537504 0)
(9.43930750776 -0.0319747664759 0)
(9.30576413194 -0.0321937935915 0)
(9.17987010368 -0.0320773026123 0)
(9.06071801147 -0.0317828057802 0)
(8.94800648183 -0.0313901274375 0)
(8.84157327944 -0.0309298654063 0)
(8.74118191345 -0.0304231032447 0)
(8.6465530359 -0.0298878258808 0)
(8.55740957275 -0.0293368126475 0)
(8.47348375824 -0.028777675115 0)
(8.3945143845 -0.0282141302345 0)
(8.32025472882 -0.0276448487419 0)
(8.25049300155 -0.027052198007 0)
(8.18528197577 -0.0263705376012 0)
(8.12316603214 -0.0249420874254 0)
(-0.0117519848805 -0.0997622856108 7.61323942502e-20)
(0.077144750663 -0.156181768247 0)
(0.00162319089412 0.0125760309683 0)
(-0.257500374076 0.238117993084 0)
(-0.432915088993 0.265684436646 0)
(-0.621882328465 0.269129291197 -1.72367839031e-20)
(-0.826997708613 0.270783939859 0)
(-1.04295773264 0.271917332062 0)
(-1.26674741432 0.272347038264 1.21662234685e-20)
(-1.49669926892 0.271969051805 0)
(-1.73146173916 0.270752796256 -1.19195321737e-20)
(-1.96984009922 0.268703183327 0)
(-2.21073333926 0.265844653435 -1.24938523517e-20)
(-2.45310533458 0.262212473979 -1.29473629873e-20)
(-2.6959697708 0.257848686218 0)
(-2.93838361372 0.2527997542 1.40447542589e-20)
(-3.17944459067 0.247115758155 1.46534270721e-20)
(-3.41829137132 0.240849830613 1.52853159711e-20)
(-3.65410595761 0.23405805346 0)
(-3.88611694308 0.226799317282 0)
(-4.11360409105 0.219135154877 0)
(-4.33590293752 0.211129486283 0)
(-4.552410262 0.202848132039 0)
(-4.7625887685 0.194358335784 0)
(-4.96597185995 0.185727809788 -1.97578419128e-20)
(-5.16216705042 0.177023941256 -2.03501104263e-20)
(-5.35085868456 0.168312484648 0)
(-5.53180869311 0.159656533369 2.14732738746e-20)
(-5.70485618953 0.151114949091 2.2001382778e-20)
(-5.86991469462 0.142741346854 2.25058494879e-20)
(-6.02696783378 0.134582624769 0)
(-6.17606277694 0.126678261505 0)
(-6.31730260015 0.119059194876 -2.3872017704e-20)
(-6.45083693482 0.111747794047 0)
(-6.57685202395 0.104757471398 0)
(-6.69556017687 0.0980934391019 -2.50144633105e-20)
(-6.80718993438 0.0917530255797 0)
(-6.91197663225 0.0857272698 0)
(-7.01015452691 0.080001865377 0)
(-7.10195054483 0.0745592835997 0)
(-7.18758021578 0.0693799104324 0)
(-7.26724562993 0.0644441421761 5.33326817477e-20)
(-7.34113559721 0.0597333192915 0)
(-7.40942770485 0.0552315865705 0)
(-7.47229186627 0.0509260884401 5.44340752778e-20)
(-7.52989458815 0.0468077425095 5.47322703006e-20)
(-7.5824035584 0.0428705289332 0)
(-7.62999201653 0.0391120456705 0)
(-7.67284237197 0.0355322364275 5.54431535249e-20)
(-7.7111479708 0.0321320803963 0)
(-7.74511246421 0.0289110689411 -5.57737994724e-20)
(-7.77494642315 0.0258665635977 0)
(-7.80086168129 0.0229926196076 5.59911435373e-20)
(-7.823062212 0.0202779635354 0)
(-7.84173249829 0.0177021968756 5.60878785669e-20)
(-7.85702305564 0.0152383379155 5.60865448486e-20)
(-7.86904131288 0.0128575577596 0)
(-7.87785038972 0.0105369373449 0)
(-7.88347004688 0.00825468269698 0)
(-7.88587275836 0.00599803249622 5.56476983638e-20)
(-7.8850148399 0.00375398628832 0)
(-7.88081950691 0.0015043753613 0)
(-7.87318557724 -0.00076244733586 0)
(-7.86200726668 -0.00305296133143 0)
(-7.84719241841 -0.00536609332274 0)
(-7.82867883514 -0.00768354843111 0)
(-7.80645422889 -0.00997272205477 0)
(-7.78057579355 -0.012190804987 -5.26607157787e-20)
(-7.75118383626 -0.0142870010131 0)
(-7.71850902862 -0.0162048979634 -5.15792133116e-20)
(-7.68287321723 -0.0178882878725 -5.10106003007e-20)
(-7.64468264608 -0.0192848409156 0)
(-7.60441399213 -0.0203526653313 4.98379543184e-20)
(-7.56259387095 -0.0210633575536 0)
(-7.51977352976 -0.0214069369508 -4.86378325001e-20)
(-7.4765003591 -0.0213921263616 0)
(-7.43328863 -0.0210482472829 4.74229881314e-20)
(-7.39059157654 -0.0204216876518 -4.68107879216e-20)
(-7.34877639685 -0.0195739076451 0)
(-7.3081052923 -0.0185748436193 0)
(-7.26872487285 -0.0174991215242 0)
(-7.2306656905 -0.0164184572152 0)
(-7.19385164793 -0.0153981957156 -4.36664825486e-20)
(-7.15811834459 -0.0144921072503 4.3012234935e-20)
(-7.12323808951 -0.0137432451198 -8.46943774131e-20)
(-7.08894849854 -0.0131833072638 -8.33416636673e-20)
(-7.05497926171 -0.0128376218015 -8.19658600156e-20)
(-7.02106968374 -0.0127280714656 0)
(-6.98696962273 -0.0128801014632 0)
(-6.95242162931 -0.0133229186493 0)
(-6.91712613778 -0.0140935369156 -7.61910810295e-20)
(-6.88069355241 -0.0152314588185 0)
(-6.84257635924 -0.0167812646111 0)
(-6.8019927665 -0.0187891875453 -7.12945834736e-20)
(-6.75785377806 -0.0213089267507 0)
(-6.70870856832 -0.024408276982 6.73450981837e-20)
(-6.65272020268 -0.0281804220053 0)
(-6.58768489418 -0.0327465109052 -6.23258482081e-20)
(-6.51110099078 -0.0382501777866 0)
(-6.42029005398 -0.0448335018829 0)
(-6.31256027818 -0.0525991857432 0)
(-6.18539071059 -0.0615652259506 -4.64420188353e-20)
(-6.03660241709 -0.0716332193267 0)
(-5.8645079593 -0.0825742107981 -3.41008955664e-20)
(-5.66803929757 -0.0940496971295 -2.65139031335e-20)
(-5.44685210477 -0.105647292441 0)
(-5.2014334148 -0.11692948726 0)
(-4.93312481172 -0.1274794244 0)
(-4.64406106061 -0.136912815243 1.53859612882e-20)
(-4.33702248284 -0.144842925342 0)
(-4.01522860876 -0.15073504383 0)
(-3.68195549344 -0.1542754072 6.26980831574e-20)
(-3.34074210859 -0.155508195992 8.28161523068e-20)
(-2.9954666215 -0.154506254679 0)
(-2.64961443071 -0.151756124946 -1.32790914295e-19)
(-2.30639182055 -0.147129710187 -1.64600156828e-19)
(-1.96786425033 -0.141651402486 2.03198624216e-19)
(-1.63600636616 -0.137264427873 0)
(-1.31482082949 -0.134619016816 0)
(-1.00390993633 -0.13543278851 0)
(-0.705214407079 -0.144073455658 -5.19931440251e-19)
(-0.420201045925 -0.156997907066 0)
(-0.142909045876 -0.171320609451 -1.02775414084e-18)
(0.126388551312 -0.189152982303 0)
(0.4576353814 -0.180770891155 0)
(0.636763322946 -0.155731787836 0)
(0.809198066696 -0.13023958836 6.88490165347e-19)
(0.978508862941 -0.108947706975 5.62132412945e-19)
(1.13879373891 -0.0915391878583 0)
(1.28713225777 -0.0771184080248 0)
(1.42231595341 -0.0649606509615 0)
(1.54399067933 -0.0545267005842 0)
(1.65224702778 -0.0454529815032 0)
(1.74741466365 -0.0374703988723 0)
(1.82996672358 -0.0303985183891 6.03441851655e-19)
(1.9004567589 -0.0240990806469 0)
(1.95948941401 -0.0184819228863 0)
(2.00769600432 -0.01346582169 0)
(2.04573633962 -0.00899402044687 -5.35769497164e-19)
(2.07428690697 -0.00502599988189 -5.27512656287e-19)
(2.09406261621 -0.00155208232933 5.21776469512e-19)
(2.10581644317 0.00137608444448 5.18181006718e-19)
(2.11096222022 0.00370363490371 0)
(2.11092704871 0.00552743055155 0)
(2.10602289914 0.00701649145113 0)
(2.09661804116 0.00825831817145 5.15830822781e-19)
(2.08314523994 0.00928708476118 0)
(2.06608080313 0.0101255418654 0)
(2.04590226103 0.010793512684 -5.27589748612e-19)
(2.02306063458 0.0113095204147 0)
(1.9979708542 0.0116896526888 -5.40558463871e-19)
(1.97101197019 0.0119490363666 0)
(1.94252942691 0.0121007928894 -5.56865175085e-19)
(1.91283812688 0.012157532092 0)
(1.88222426042 0.01213028902 0)
(1.85094741754 0.0120301635829 0)
(1.81924155018 0.0118669475316 0)
(1.7873165528 0.0116503298533 0)
(1.75535817707 0.0113882570919 0)
(1.7235291091 0.0110893390742 0)
(1.69196968755 0.0107612034265 0)
(1.6607992404 0.0104116845571 -6.58950989725e-19)
(1.6301149629 0.010046821645 0)
(1.59999246129 0.00967363743954 0)
(1.57048578417 0.00929829452672 -6.99482855326e-19)
(1.54162722514 0.00892775710466 0)
(1.5134248524 0.00856785266015 0)
(1.48586038764 0.00822619709393 -7.4178928051e-19)
(1.45888618319 0.00791068818402 0)
(1.43242104828 0.00763080748501 0)
(1.40634179423 0.00739628948105 -7.85892271203e-19)
(1.38047251495 0.00722154692813 8.01211074943e-19)
(1.35456923304 0.00712512695653 -8.17029345052e-19)
(1.32829633246 0.00713359557345 0)
(1.30118657095 0.00728364935743 0)
(1.2725726782 0.00763440047295 -1.74012163128e-18)
(1.24149874237 0.00828279707916 0)
(1.20613805736 0.00945581200998 1.83103805601e-18)
(1.16813710458 0.0112869862489 1.89011267187e-18)
(1.05690413248 0.0187621088729 0)
(-0.170220951958 0.101535431672 -1.235092308e-19)
(-0.332187843051 0.311894038408 0)
(-0.466113878608 0.402732566855 2.9528461071e-20)
(-0.638867282149 0.494485649644 -2.32426325663e-20)
(-0.818782998458 0.551822356007 -2.04912459435e-20)
(-1.00863116195 0.591698244525 8.91563939653e-21)
(-1.21170519017 0.621630328826 1.79668308001e-20)
(-1.42627335728 0.644536568643 0)
(-1.64974466427 0.66193502086 -8.2718100966e-21)
(-1.88009981785 0.674741890761 1.81929011407e-20)
(-2.11568339262 0.683548074416 2.77006450096e-20)
(-2.35507879435 0.688759985325 -1.9746306077e-20)
(-2.59702319601 0.6906776308 3.0543723321e-20)
(-2.84035983335 0.689538412071 1.03507835839e-20)
(-3.08400961327 0.685543449776 0)
(-3.32695504283 0.678873641803 -1.16126630003e-20)
(-3.56823170474 0.669700455938 -1.22828984761e-20)
(-3.80692462415 0.658193033025 -1.29686807968e-20)
(-4.04216824572 0.64452328542 2.84307173879e-20)
(-4.27314851388 0.628869340722 0)
(-4.49910688635 0.61141777434 3.11755286465e-20)
(-4.71934500985 0.592364799228 0)
(-4.93323032071 0.571916325561 -3.38734457005e-20)
(-5.1402014565 0.550287248122 0)
(-5.33977353927 0.527699464324 5.42381415e-20)
(-5.53154224655 0.504379308046 -1.93141898074e-20)
(-5.71518689251 0.480553747985 -3.8933460496e-20)
(-5.89047160718 0.456446334598 -5.97383843419e-20)
(-6.05724472419 0.432272164581 -2.02165916105e-20)
(-6.2154356703 0.408233236071 -2.07766631728e-20)
(-6.36504979769 0.38451331999 0)
(-6.50616094221 0.361273960222 -4.43367188721e-20)
(-6.63890226432 0.338650577325 2.23165452309e-20)
(-6.76345547804 0.316750538146 0)
(-6.88003946819 0.295651706874 0)
(-6.9888985377 0.275403320622 2.3638983182e-20)
(-7.09029138141 0.256027390323 0)
(-7.18448092266 0.237522578746 0)
(-7.27172675962 0.219868123235 0)
(-7.35227914669 0.203029594726 0)
(-7.4263756742 0.186963852795 0)
(-7.49424062428 0.171625309669 5.20016481333e-20)
(-7.55608608847 0.156970618168 1.04317492133e-19)
(-7.6121184768 0.142963320181 0)
(-7.66254070654 0.129575683327 5.33371937193e-20)
(-7.70755799184 0.116790751456 -5.32057086555e-20)
(-7.74738233656 0.104602416046 0)
(-7.78223717154 0.0930145090799 0)
(-7.81236463188 0.0820352212152 -1.63297287406e-19)
(-7.8380139959 0.071673024298 -1.09591057919e-19)
(-7.8594410443 0.0619316371787 5.4866650012e-20)
(-7.8768995832 0.0528076373717 1.10592212241e-19)
(-7.89065548404 0.0442800952932 5.56822916988e-20)
(-7.90092633529 0.0363027103834 0)
(-7.90787885818 0.0288076852642 -1.67291902951e-19)
(-7.91161079075 0.0217144868393 -5.5758631887e-20)
(-7.91213791954 0.0149366553041 0)
(-7.90982315364 0.00838055711148 1.11878663148e-19)
(-7.90464794565 0.0019645933133 -1.11699477044e-19)
(-7.89641623669 -0.00438971175663 -5.55577004784e-20)
(-7.88492779005 -0.0107616997536 0)
(-7.86998164928 -0.017197350982 0)
(-7.85138842107 -0.0237146027844 0)
(-7.82900684325 -0.0303050187255 1.09422148027e-19)
(-7.8027482628 -0.0369218719206 0)
(-7.77259586018 -0.0434781915929 -1.07904893822e-19)
(-7.73863365666 -0.049859600155 0)
(-7.70105219944 -0.0559272037347 -5.31476000682e-20)
(-7.66014385649 -0.0615293597065 0)
(-7.61629625078 -0.0665124476399 -5.21249472478e-20)
(-7.56997600649 -0.0707361202867 -5.15863205339e-20)
(-7.52170545083 -0.0740848179965 0)
(-7.47203392511 -0.0764814439005 -5.04032205127e-20)
(-7.42150615835 -0.0778942384939 0)
(-7.37063084173 -0.078343490077 4.93033728854e-20)
(-7.3198522602 -0.0778991463309 0)