/*--------------------------------*- C++ -*----------------------------------*\
| =========                 |                                                 |
| \\      /  F ield         | OpenFOAM: The Open Source CFD Toolbox           |
|  \\    /   O peration     | Version:  v1806                                 |
|   \\  /    A nd           | Web:      www.OpenFOAM.com                      |
|    \\/     M anipulation  |                                                 |
\*---------------------------------------------------------------------------*/
FoamFile
{
    version     2.0;
    format      ascii;
    class       volVectorField;
    location    "24";
    object      Ua;
}
// * * * * * * * * * * * * * * * * * * * * * * * * * * * * * * * * * * * * * //

dimensions      [0 1 -1 0 0 0 0];


internalField   nonuniform List<vector> 
12225
(
(0.307903605614 61.4892219414 0)
(0.980715581052 13.7168871656 0)
(0.818737972551 13.6218095349 0)
(0.90648289958 13.2796950156 0)
(0.915341115506 12.9814600934 0)
(0.95874289497 12.6523295165 0)
(0.987260006633 12.2913975068 0)
(1.01689991198 11.9272120015 0)
(1.04280398986 11.5825230687 0)
(1.07558374135 11.2781384197 0)
(1.12424380229 11.0027824658 0)
(1.19300173676 10.7104059849 0)
(1.26612024194 10.3355278666 0)
(1.31962701583 9.86353813257 0)
(1.40253348373 9.36575657491 0)
(1.7451781949 8.81749889262 0)
(2.5798270995 7.56129865577 0)
(3.2076725899 4.04298981199 0)
(3.30630472202 -54.1047608183 0)
(1.06641771168 -8.9287860522 0)
(1.44795831683 -8.77967838573 0)
(1.37812297258 -8.49268992065 0)
(1.44790111604 -8.24000352231 0)
(1.47885397818 -8.00600300144 0)
(1.51927288658 -7.78106731744 0)
(1.5566500942 -7.56684772461 0)
(1.59953201433 -7.34776191416 0)
(1.65392679466 -7.10794866739 0)
(1.72541122481 -6.82804786313 0)
(1.81021947167 -6.4953187584 0)
(1.88980452309 -6.10949906512 0)
(1.9502722206 -5.67845019823 0)
(2.04402862166 -5.1876358986 0)
(2.32206071782 -4.57889829153 0)
(2.81368560938 -3.83839135459 0)
(2.89691876932 -3.17120988818 0)
(-1.21713004589 41.8153080616 0)
(1.2649288653 4.63833543499 0)
(0.974304860457 4.37748051603 0)
(1.08551578165 4.24163980695 0)
(1.05867289738 4.08247245216 0)
(1.07303548957 3.91215167736 0)
(1.06974081828 3.72158112749 0)
(1.07034386548 3.50848350838 0)
(1.07427320181 3.27165931092 0)
(1.09135388679 3.01212325391 0)
(1.125873626 2.7290956254 0)
(1.17333980829 2.41726367432 0)
(1.21696832225 2.06895706852 0)
(1.25046292456 1.68699006867 0)
(1.32733438407 1.29099067639 0)
(1.55992987173 0.871288126201 0)
(1.92203296409 0.274096463376 0)
(1.99383363911 -0.698229761998 0)
(3.01759278139 -29.6280214661 0)
(0.901497564304 -2.38309290172 0)
(1.24278462299 -2.27340045202 0)
(1.16090254045 -2.13130932668 0)
(1.21107046673 -1.99396789228 0)
(1.21579854462 -1.8412054755 0)
(1.22795422412 -1.68035993702 0)
(1.23421528826 -1.50868805276 0)
(1.24403750343 -1.32749181976 0)
(1.26250072496 -1.13900416597 0)
(1.29287668954 -0.949809269356 0)
(1.32850184579 -0.77071033307 0)
(1.35448501467 -0.610076241998 0)
(1.36913374188 -0.459793169294 0)
(1.4157901029 -0.301515720807 0)
(1.5549335229 -0.174667375337 0)
(1.7192946708 -0.261580462463 0)
(1.66077566016 -0.708477890611 0)
(-0.697780163467 19.7785322618 0)
(1.29548446776 1.27041789129 0)
(0.948310089758 0.985538478891 0)
(1.08973845844 0.920921045219 0)
(1.06428570858 0.781346238158 0)
(1.09078998835 0.665809404803 0)
(1.09718972494 0.544120766843 0)
(1.1096008618 0.431634150857 0)
(1.12469249268 0.326688998682 0)
(1.15027006804 0.230139104057 0)
(1.18715325847 0.136216465163 0)
(1.22952399414 0.0375600358264 0)
(1.26744861349 -0.0668637319949 0)
(1.30553289987 -0.159753117334 0)
(1.3760199489 -0.218017396979 0)
(1.49668830206 -0.270248163665 0)
(1.58300629355 -0.426930277934 0)
(1.49293051922 -0.720031696921 0)
(2.49915186197 -13.1298029541 0)
(0.8749558061 -0.745913362114 0)
(1.14855044962 -0.276160049492 0)
(1.08079017619 -0.359894543258 0)
(1.11745771531 -0.281774360504 0)
(1.12078138312 -0.258491030293 0)
(1.12974084911 -0.22196977443 0)
(1.13682468408 -0.189707405667 0)
(1.14777891815 -0.155144201158 0)
(1.16567071468 -0.122817658167 0)
(1.19051603035 -0.10026963132 0)
(1.21708163837 -0.097441713196 0)
(1.24077420945 -0.117757801631 0)
(1.27111150155 -0.151989501205 0)
(1.33132232711 -0.193153006529 0)
(1.41731284149 -0.270891575162 0)
(1.45626093593 -0.437032647038 0)
(1.37282197247 -0.653847899319 0)
(0.172168779238 7.62755668488 0)
(1.08302072097 0.385359220309 0)
(1.02792804707 0.0428985360755 0)
(1.07355149725 0.0965641021556 0)
(1.07624924234 0.0349731258817 0)
(1.09145544175 0.00491897620269 0)
(1.10093657271 -0.0312304287084 0)
(1.11347169998 -0.0596283393767 0)
(1.12915340788 -0.0815211758756 0)
(1.15050726461 -0.0973713363755 0)
(1.1754212467 -0.112446819302 0)
(1.19905916238 -0.132467644249 0)
(1.2195080495 -0.158464836965 0)
(1.24612094707 -0.18649539198 0)
(1.2920811164 -0.22254438904 0)
(1.34415814159 -0.297114612779 0)
(1.35159297951 -0.433952528811 0)
(1.27994801746 -0.587735778178 0)
(1.43170419118 -3.53802671538 0)
(1.03537013823 -0.144637143119 0)
(1.05550143887 -0.0194924325452 0)
(1.06395706123 -0.0507165052694 0)
(1.07355159073 -0.0428663137535 0)
(1.08275924509 -0.0513293187741 0)
(1.09065000772 -0.0588427981022 0)
(1.10130418443 -0.0688119932131 0)
(1.11560340763 -0.0794279468938 0)
(1.13474453414 -0.0925184463497 0)
(1.15620211439 -0.111002779102 0)
(1.17620603275 -0.136668125226 0)
(1.19444943201 -0.167151295544 0)
(1.21768808737 -0.199308617367 0)
(1.25048235963 -0.240802312097 0)
(1.27745479722 -0.312362534735 0)
(1.26709021137 -0.419881214536 0)
(1.20647801979 -0.528412010825 0)
(0.949137613982 1.07467601704 0)
(1.01878860327 -0.0106656105013 0)
(1.04735612132 -0.0304783825487 0)
(1.05553755262 -0.0379246818436 0)
(1.06437858164 -0.0486077852045 0)
(1.07305023287 -0.0599155808759 0)
(1.08078363072 -0.0701055402194 0)
(1.0909216198 -0.0799313274378 0)
(1.10396978296 -0.0899213276425 0)
(1.12035374865 -0.102697405636 0)
(1.13774749712 -0.121094094968 0)
(1.15372632714 -0.146075521047 0)
(1.16888217613 -0.175620634141 0)
(1.18714507927 -0.208819169949 0)
(1.20785606853 -0.252574766054 0)
(1.21763142 -0.317847541901 0)
(1.19859163849 -0.401488425224 0)
(1.14743522415 -0.479954638984 0)
(1.06668157387 -0.33261454045 0)
(1.02925803021 -0.0209919918742 0)
(1.03846265256 -0.0328089995051 0)
(1.04864390107 -0.0401815404799 0)
(1.0553438806 -0.0501007382393 0)
(1.06347880517 -0.0613701233203 0)
(1.07073720001 -0.0720846502696 0)
(1.08024572737 -0.0829311768865 0)
(1.09186583719 -0.0944815456991 0)
(1.10552228022 -0.10898589645 0)
(1.11922841825 -0.12832925866 0)
(1.13157150111 -0.152834634086 0)
(1.14323892539 -0.181278457358 0)
(1.15578984156 -0.214303621728 0)
(1.16626400233 -0.256992144209 0)
(1.16481390124 -0.313766798856 0)
(1.1421417665 -0.378759591828 0)
(1.09877353879 -0.437168678875 0)
(1.04233426011 -0.0570120076798 0)
(1.02399565906 -0.0377257895873 0)
(1.03419985457 -0.039778488994 0)
(1.04157235364 -0.0488920368602 0)
(1.04750914096 -0.057048183636 0)
(1.05453715118 -0.0676022298552 0)
(1.06117329316 -0.0777177423738 0)
(1.06961748092 -0.0886791258985 0)
(1.07947742532 -0.100943321169 0)
(1.09034696232 -0.116289947342 0)
(1.10069005602 -0.135783441017 0)
(1.10968607152 -0.159382338248 0)
(1.11769463261 -0.186537623951 0)
(1.12465990081 -0.218300819852 0)
(1.12716788304 -0.25771070612 0)
(1.11874736104 -0.305445982121 0)
(1.09511079468 -0.35592879089 0)
(1.05798481889 -0.400153646916 0)
(1.03404805934 -0.117494244807 0)
(1.02200164906 -0.0402048002332 0)
(1.02781149865 -0.045385247794 0)
(1.03437439736 -0.0533443687861 0)
(1.03917382458 -0.0613298930545 0)
(1.04526713273 -0.0713383716357 0)
(1.05111136743 -0.0813440248047 0)
(1.05834543703 -0.0925240016489 0)
(1.06641679 -0.10534421832 0)
(1.07480689531 -0.121101604976 0)
(1.08234905276 -0.140364790047 0)
(1.08848744373 -0.163030668461 0)
(1.09322287881 -0.188874160491 0)
(1.09571703799 -0.21891670553 0)
(1.09301037924 -0.254405873762 0)
(1.08107500002 -0.294488888321 0)
(1.0580265866 -0.33458322015 0)
(1.02579439506 -0.369227807429 0)
(1.02786697254 -0.121644081753 0)
(1.01890031585 -0.0438830944158 0)
(1.02286079081 -0.0475984562621 0)
(1.02799199742 -0.055815318274 0)
(1.03187169003 -0.0633725352824 0)
(1.03687572785 -0.0731519408435 0)
(1.04178103105 -0.083169785857 0)
(1.04763194185 -0.0946414536987 0)
(1.05383844396 -0.107848515021 0)
(1.05984815736 -0.123720851542 0)
(1.0647761576 -0.142531948325 0)
(1.06822292391 -0.164158077436 0)
(1.069832013 -0.188567385006 0)
(1.06853954251 -0.216321752358 0)
(1.06207939626 -0.247634234286 0)
(1.0481154934 -0.28107317074 0)
(1.02614529892 -0.313321335882 0)
(0.997906612529 -0.340862434988 0)
(1.01862502525 -0.144817043624 0)
(1.01510454445 -0.0489623716432 0)
(1.01716934166 -0.0531395922143 0)
(1.0209259882 -0.0609285058922 0)
(1.02374110884 -0.068236347256 0)
(1.02741121161 -0.0775885914532 0)
(1.03107905702 -0.087553958082 0)
(1.03521538728 -0.0990262967558 0)
(1.03930421722 -0.112255000479 0)
(1.04275966148 -0.127716338132 0)
(1.04497688975 -0.145578371986 0)
(1.04556033106 -0.165609988871 0)
(1.04404854818 -0.187922384066 0)
(1.03940401258 -0.212446627156 0)
(1.0301585826 -0.238929208425 0)
(1.01518011027 -0.265821983133 0)
(0.994680199122 -0.291003375126 0)
(0.970171494672 -0.312356131613 0)
(1.00871128325 -0.134686953501 0)
(1.01050796368 -0.0469128603234 0)
(1.01070360238 -0.0505952343337 0)
(1.01292287201 -0.0585654852321 0)
(1.01451897601 -0.0658714482213 0)
(1.01653478348 -0.0751533251751 0)
(1.01859908994 -0.0851982150376 0)
(1.02070069528 -0.0967571196466 0)
(1.02242705061 -0.109846693289 0)
(1.02323094487 -0.124770808735 0)
(1.02269902385 -0.141400652243 0)
(1.02045906563 -0.159688002281 0)
(1.01605596546 -0.179407801447 0)
(1.00875664138 -0.200430705349 0)
(0.997727249682 -0.22202683861 0)
(0.982595703999 -0.24314931542 0)
(0.963828123995 -0.262331029118 0)
(0.942694848606 -0.278512261453 0)
(1.00121133607 -0.206186950933 0)
(1.00407107845 -0.0688359297571 0)
(1.00481378489 -0.0718136055579 0)
(1.00475837055 -0.0784368892583 0)
(1.00509992702 -0.084756382394 0)
(1.00517551235 -0.0929219793945 0)
(1.00537457466 -0.101982007856 0)
(1.00524275244 -0.11247983828 0)
(1.00454417298 -0.124263596651 0)
(1.00280471875 -0.137441436513 0)
(0.99969147382 -0.151803550676 0)
(0.994943406776 -0.16724292791 0)
(0.988216300722 -0.183481520943 0)
(0.979089772151 -0.200232358823 0)
(0.967226832532 -0.216857060568 0)
(0.952594818239 -0.232605785252 0)
(0.935756361754 -0.246660450651 0)
(0.917671890705 -0.258449841063 0)
(1.0079184673 0.0326614199753 0)
(1.00166451867 0.00874553517011 0)
(0.996679971641 0.000685321759739 0)
(0.994877615292 -0.00863808338195 0)
(0.993450823011 -0.0178521645365 0)
(0.991282935511 -0.0285649207031 0)
(0.98925622337 -0.0401139003795 0)
(0.986669611138 -0.052617195626 0)
(0.983482192694 -0.0660070380696 0)
(0.979237913878 -0.0801180949361 0)
(0.9737652873 -0.0948651524344 0)
(0.96683452535 -0.109949139019 0)
(0.958291243667 -0.125202499576 0)
(0.947977180262 -0.140182789054 0)
(0.935822412106 -0.154547094171 0)
(0.92195801929 -0.167724910521 0)
(0.906857423959 -0.179357576005 0)
(0.891381038277 -0.189115999071 0)
(0.923514843705 -0.808140671889 0)
(0.978849908788 -0.233353224833 0)
(0.990270156632 -0.215902415948 0)
(0.987287696843 -0.211447196507 0)
(0.984139726356 -0.209161465235 0)
(0.979530812104 -0.208659203352 0)
(0.975430531027 -0.209291145358 0)
(0.970717850181 -0.210895153763 0)
(0.965495377875 -0.213395153968 0)
(0.959320603825 -0.216617296324 0)
(0.95211364686 -0.220434342201 0)
(0.943746188674 -0.224648863177 0)
(0.934189386231 -0.2291205875 0)
(0.923419695532 -0.233555729384 0)
(0.911475062859 -0.237708876363 0)
(0.898512162378 -0.241332487959 0)
(0.884874311997 -0.244258844764 0)
(0.87081716877 -0.246378597983 0)
(1.22380734291 1.73888931859 0)
(1.03436284622 0.368177193234 0)
(1.00155794727 0.310696306218 0)
(0.979672367808 0.281346098231 0)
(0.972503504751 0.252440761576 0)
(0.965927513974 0.22514783027 0)
(0.960372154909 0.198732115768 0)
(0.954435363952 0.173058387911 0)
(0.948143397665 0.148181800794 0)
(0.941182789208 0.124157635311 0)
(0.933509252429 0.101134931633 0)
(0.925108304358 0.0792904965907 0)
(0.916046758603 0.0588609260572 0)
(0.906399131704 0.0398643915356 0)
(0.896215696697 0.0224940911616 0)
(0.88561356902 0.00685494487728 0)
(0.874935609644 -0.00690260043565 0)
(0.865323271919 -0.0187895594089 0)
(0.343706658137 -3.45759449468 0)
(0.901085554681 -0.491047616414 0)
(0.923404791224 -0.418082301318 0)
(0.950091208335 -0.408879713654 0)
(0.944415083221 -0.388681205304 0)
(0.937856268747 -0.370913286328 0)
(0.930446062789 -0.353789288913 0)
(0.922115286717 -0.33802851578 0)
(0.913213446902 -0.323810514965 0)
(0.90351894742 -0.311139116482 0)
(0.893098583255 -0.29995816851 0)
(0.881952240245 -0.290257613604 0)
(0.870159072488 -0.281883126274 0)
(0.857833079251 -0.274574104557 0)
(0.845060426438 -0.268194866353 0)
(0.832047587597 -0.262647689664 0)
(0.81898489054 -0.257909365602 0)
(0.805337895024 -0.25390779057 0)
(2.05513707232 6.0712673726 0)
(1.02794567142 0.559382855873 0)
(1.0366820272 0.406128391249 0)
(0.977114565831 0.397110283323 0)
(0.982855256932 0.354789703737 0)
(0.976858669525 0.322320042552 0)
(0.972796314924 0.290174302206 0)
(0.967296745301 0.260584971754 0)
(0.961251495622 0.23330618073 0)
(0.954583746821 0.208469836769 0)
(0.947361837606 0.186121232469 0)
(0.939694005058 0.166271241145 0)
(0.931662897092 0.148742877509 0)
(0.923279800295 0.133407249759 0)
(0.914531049137 0.120077626976 0)
(0.905262704553 0.108593789894 0)
(0.895598100201 0.0987218525792 0)
(0.88718604724 0.0902833637728 0)
(-0.955192815529 -10.6808256953 0)
(0.973686382968 -0.774437603452 0)
(0.840369178639 -0.523467587788 0)
(0.942823650855 -0.559683100319 0)
(0.910767736472 -0.516502676436 0)
(0.906895413112 -0.496692806394 0)
(0.895576201406 -0.473651011871 0)
(0.885316300066 -0.454794659448 0)
(0.874559698925 -0.438298557066 0)
(0.863568758443 -0.424364225647 0)
(0.852426261116 -0.412551468882 0)
(0.841173848483 -0.402507524646 0)
(0.829949997239 -0.393747434558 0)
(0.81887452544 -0.386037373096 0)
(0.808027230906 -0.378947170282 0)
(0.79766087683 -0.372148344976 0)
(0.788118658826 -0.365263111185 0)
(0.778172338421 -0.358153106264 0)
(3.94946617868 17.2158675535 0)
(0.865214564049 1.04517063979 0)
(1.16292835489 0.62490374196 0)
(0.979350513252 0.712105238638 0)
(1.02986151965 0.64902027545 0)
(1.01348106561 0.632035947064 0)
(1.01335522897 0.603940148666 0)
(1.00706408298 0.581272678495 0)
(1.00109594105 0.559040981877 0)
(0.993943829764 0.538101217393 0)
(0.986023227561 0.517976954981 0)
(0.977322213253 0.498667457864 0)
(0.967977681225 0.479966685847 0)
(0.958100188414 0.461786242619 0)
(0.947749033931 0.443918384653 0)
(0.936846489086 0.426157016914 0)
(0.925392036509 0.408419268903 0)
(0.916260831122 0.390739774325 0)
(-3.42735163247 -26.6861851376 0)
(1.28754926782 -1.59015760936 0)
(0.693923196035 -0.955641314933 0)
(0.978697030746 -1.11553672862 0)
(0.882045425574 -1.03125015489 0)
(0.897046256082 -1.02307900779 0)
(0.879209992115 -0.99415747426 0)
(0.870573676594 -0.973358865475 0)
(0.859096104633 -0.951239230594 0)
(0.848331770358 -0.929831239007 0)
(0.837493350875 -0.908019622165 0)
(0.826940577445 -0.885809609457 0)
(0.816736239476 -0.862784005183 0)
(0.806880384064 -0.838648988474 0)
(0.797272681605 -0.813667455622 0)
(0.788019264142 -0.788142520267 0)
(0.779429005055 -0.762430764548 0)
(0.768823326764 -0.737023360776 0)
(6.55034555261 37.1007109786 0)
(0.359684187302 2.06160233176 0)
(1.37182489576 1.31152948825 0)
(0.952363333788 1.50991539867 0)
(1.08503757918 1.4023652528 0)
(1.04056362525 1.39295156829 0)
(1.04716221868 1.35310685168 0)
(1.03626408468 1.3232380847 0)
(1.02958756259 1.29023302916 0)
(1.02096639869 1.25794599764 0)
(1.01257009081 1.22507081492 0)
(1.00399910938 1.19184074337 0)
(0.995516766045 1.15789174986 0)
(0.987081232508 1.12294083597 0)
(0.978643293019 1.0870259939 0)
(0.969910776372 1.05022608307 0)
(0.960520779663 1.012759133 0)
(0.954375942391 0.97542792333 0)
(-4.84619741565 -46.9091347219 0)
(1.87181510035 -2.49942056011 0)
(0.542065720043 -2.05720604119 0)
(1.03450803367 -2.12916653589 0)
(0.860665843407 -2.02891315611 0)
(0.903069885171 -1.99586788323 0)
(0.876794606872 -1.94402352848 0)
(0.871845828312 -1.90140183459 0)
(0.859753914795 -1.85766179924 0)
(0.849646070866 -1.81586683135 0)
(0.838819115893 -1.77454984785 0)
(0.828008813577 -1.73384833205 0)
(0.816807902528 -1.69346956169 0)
(0.805083800489 -1.65317065092 0)
(0.792717201577 -1.61254503521 0)
(0.780220756999 -1.57087219108 0)
(0.768826312988 -1.52714253255 0)
(0.755111464141 -1.4808768035 0)
(6.15724041635 56.1243210788 0)
(0.228808022458 3.02750551052 0)
(1.41548690835 3.02522571275 0)
(0.986836908463 2.89497261824 0)
(1.12598341789 2.82352834865 0)
(1.07140436193 2.73777305641 0)
(1.07857827933 2.65991362514 0)
(1.06454337815 2.58401879324 0)
(1.05675400354 2.5113344147 0)
(1.04662358228 2.44165685647 0)
(1.03730848417 2.37491354021 0)
(1.02799286084 2.31102943664 0)
(1.01919365876 2.24988306833 0)
(1.01103263154 2.19164724211 0)
(1.00383826091 2.13653966369 0)
(0.998016500409 2.08455493555 0)
(0.993409887166 2.03493778247 0)
(0.993711527661 1.98583604962 0)
(-3.60496404951 -64.891482903 0)
(1.62717591131 -4.41522544921 0)
(0.661136761669 -4.52062000581 0)
(0.989640264878 -4.23940828246 0)
(0.873123152017 -4.12801971344 0)
(0.898007074424 -3.97196587865 0)
(0.878802088335 -3.84021281934 0)
(0.873500197308 -3.70817670757 0)
(0.863521372804 -3.58346001032 0)
(0.855035568517 -3.46326972444 0)
(0.846158401977 -3.34853619638 0)
(0.837347433577 -3.23924368552 0)
(0.828444361007 -3.13568028538 0)
(0.81955473733 -3.03805594421 0)
(0.810536916399 -2.94676426902 0)
(0.801225235944 -2.86288025249 0)
(0.791275828448 -2.78848824646 0)
(0.775062383913 -2.7269196923 0)
(4.23315135497 70.5604434653 0)
(0.712118933859 6.90092239625 0)
(1.39137401638 7.20851590828 0)
(1.15351877694 6.73060907381 0)
(1.22241362915 6.51066198797 0)
(1.1919087549 6.23410980148 0)
(1.19241825021 5.9882917009 0)
(1.18223460919 5.74675787112 0)
(1.17454415347 5.51685030698 0)
(1.16535576287 5.29583471205 0)
(1.15599123497 5.0838316236 0)
(1.14601904019 4.88001662043 0)
(1.13572221071 4.68428505348 0)
(1.12511178154 4.49633969251 0)
(1.11386115979 4.31623736565 0)
(1.10111141459 4.14403171239 0)
(1.08491897806 3.98054331193 0)
(1.07078210839 3.83023052237 0)
(-0.168297196252 -70.241707685 0)
(0.881571444826 -9.57622066365 0)
(0.56850496345 -9.59465906982 0)
(0.660571244182 -9.03515812213 0)
(0.627112494391 -8.71238168186 0)
(0.635905385659 -8.3445705509 0)
(0.630172937852 -8.00771979694 0)
(0.629212281287 -7.67860523456 0)
(0.626267310323 -7.3627483158 0)
(0.623559045765 -7.05778556486 0)
(0.620233325786 -6.76380706736 0)
(0.616464798352 -6.48034691235 0)
(0.612398443683 -6.20722655119 0)
(0.608323208541 -5.9428864102 0)
(0.604232308275 -5.68501331399 0)
(0.60037824168 -5.43105025047 0)
(0.599527551662 -5.17594861788 0)
(0.602757326887 -4.9015742726 0)
(0.0765436599232 -0.0638354049013 -9.65384771752e-17)
(0.0884593126632 -0.0193288004893 0)
(0.0735368386275 0.0491244507025 0)
(0.0918221465372 0.137512347137 0)
(0.0572349197783 0.153692451448 0)
(0.0193927359486 0.157953340184 2.35948001524e-17)
(-0.0158370593442 0.16139522363 0)
(-0.0475190040463 0.165410041273 0)
(-0.0761694307972 0.17036106715 -1.11572234525e-17)
(-0.102188476095 0.176905772337 0)
(-0.125515604756 0.185491766647 8.09574990433e-18)
(-0.145985646409 0.196488310898 0)
(-0.163427487127 0.209870062781 6.30214317793e-18)
(-0.177829620537 0.225430214792 5.66376030212e-18)
(-0.189507298828 0.242726936839 0)
(-0.198847940174 0.261347587216 -4.7029822117e-18)
(-0.206499859239 0.280880060228 -4.33475515733e-18)
(-0.212936135304 0.30111658363 -4.02099748626e-18)
(-0.218710396657 0.321896405893 0)
(-0.224156237084 0.343282692944 0)
(-0.229581381742 0.365330851922 0)
(-0.235100574534 0.388242702566 0)
(-0.240787822989 0.412117878408 0)
(-0.246643580102 0.437166900888 0)
(-0.25259544873 0.463431421189 2.7149627062e-18)
(-0.258606294583 0.491020023884 2.60478120778e-18)
(-0.264585225922 0.519890768668 0)
(-0.27047753284 0.550060674673 -2.4182772163e-18)
(-0.276178560112 0.581392799208 -2.339281208e-18)
(-0.281667634442 0.613806092533 -2.26834035518e-18)
(-0.286869239832 0.647099307637 0)
(-0.291766332734 0.681127532658 0)
(-0.296306572921 0.715652546146 2.09549405476e-18)
(-0.30049385098 0.750483512584 0)
(-0.304313400293 0.785365372607 0)
(-0.307756003086 0.820084656633 1.96921292294e-18)
(-0.31083310032 0.854386449551 0)
(-0.313557344861 0.88806082895 0)
(-0.315951822988 0.920865652048 0)
(-0.318021639371 0.952599069393 0)
(-0.319800118788 0.983035781561 0)
(-0.321280735002 1.01199327642 -3.6181514185e-18)
(-0.322505440243 1.03926182523 0)
(-0.323456404468 1.0646879281 0)
(-0.32418503635 1.08807559521 -3.51885634393e-18)
(-0.32466472048 1.10931521363 -3.49204638828e-18)
(-0.324929282907 1.12821833264 0)
(-0.324968901095 1.14471853236 0)
(-0.324812327352 1.15864826844 -3.42674198139e-18)
(-0.324448613259 1.169980519 0)
(-0.32388506279 1.17854957527 3.39401855848e-18)
(-0.32312762185 1.18436868823 0)
(-0.322155292204 1.18727279973 -3.368917455e-18)
(-0.320994509541 1.18725864719 0)
(-0.319635663447 1.18416733127 -3.35110886691e-18)
(-0.3180585892 1.17800587828 -3.34495267429e-18)
(-0.316210716735 1.16857994491 0)
(-0.314057826414 1.15579482724 0)
(-0.311589500102 1.13932465558 0)
(-0.30864596618 1.11810000644 -3.33796357579e-18)
(-0.305198699832 1.09183090034 0)
(-0.301298087288 1.06049443296 0)
(-0.297007881987 1.02396773569 0)
(-0.29236305072 0.982381012459 0)
(-0.287439755016 0.935824275683 0)
(-0.28224212817 0.884578107857 0)
(-0.27680812104 0.828745619259 0)
(-0.271141371463 0.768643372587 3.40769542997e-18)
(-0.265315890566 0.704436314162 0)
(-0.259345968366 0.636573564117 3.44153202943e-18)
(-0.253278787444 0.56529469693 3.45991962411e-18)
(-0.247107293815 0.491141259091 0)
(-0.24085899233 0.414372511018 -3.49859332452e-18)
(-0.234523384902 0.33557747951 0)
(-0.228100082113 0.254994537726 3.53866269641e-18)
(-0.221596720144 0.173219263074 0)
(-0.215032967407 0.0904768332577 -3.57933722629e-18)
(-0.208493827358 0.0073436096861 3.59987008671e-18)
(-0.202056947435 -0.0759267503547 0)
(-0.195705757343 -0.158665305809 0)
(-0.189449739152 -0.240591709919 0)
(-0.183355643617 -0.321007789876 0)
(-0.177504062636 -0.39956058031 3.70802828874e-18)
(-0.171870055581 -0.475412781977 -3.73167040144e-18)
(-0.166464238842 -0.548190545807 7.51250219247e-18)
(-0.161455121324 -0.61704420892 7.56372559317e-18)
(-0.157008776048 -0.681554916372 7.61712471594e-18)
(-0.153521119273 -0.740810221866 0)
(-0.151370370168 -0.794244642097 0)
(-0.151132720253 -0.840835721087 0)
(-0.151996319318 -0.879742060216 7.85646760549e-18)
(-0.153045706093 -0.910529931476 0)
(-0.154140371927 -0.933397154757 0)
(-0.15559329392 -0.948846981577 8.07606216806e-18)
(-0.15755918801 -0.957597328379 0)
(-0.160053137465 -0.960563992041 -8.25808209951e-18)
(-0.162979761116 -0.958849258674 0)
(-0.166245275661 -0.953731337545 8.49003111411e-18)
(-0.169742084562 -0.94658798856 0)
(-0.173136236401 -0.938870905086 0)
(-0.175933271359 -0.932429250902 0)
(-0.177220390508 -0.929439884076 9.23074595407e-18)
(-0.176372869158 -0.933065474166 0)
(-0.171931082468 -0.946226008601 9.83528813514e-18)
(-0.164498451301 -0.974205364443 1.02256865709e-17)
(-0.1547692758 -1.02001818313 0)
(-0.139803858106 -1.08495730501 0)
(-0.120104097485 -1.16596492587 0)
(-0.103859486924 -1.26105902854 1.26978607907e-17)
(-0.0890905581355 -1.35912262111 0)
(-0.0691355011354 -1.44824379265 0)
(-0.0484613990637 -1.51941681982 1.61759316929e-17)
(-0.05008797476 -1.57930517549 1.78669270147e-17)
(-0.0779682909422 -1.65870255202 0)
(-0.120694710789 -1.76458005017 -2.25544607707e-17)
(-0.129061576899 -1.88822814578 -2.5868071943e-17)
(-0.0869574489414 -1.94147440747 3.01795352543e-17)
(-0.0415109048554 -1.90174955246 0)
(0.0106233042637 -1.76729604959 0)
(-0.0839326086857 -1.43081683639 0)
(-0.407334042718 -1.06615911394 -7.42702838854e-17)
(-1.21180635542 -0.772141082076 0)
(-2.691152482 -1.18796390359 -1.66564434326e-16)
(-3.34321018257 -2.87025525977 0)
(-2.97225894848 -3.06251177328 0)
(-2.94481054163 -3.16345985677 0)
(-2.91606665694 -3.3132733145 5.36161721871e-17)
(-2.91247675053 -3.51114010176 4.64346897215e-17)
(-2.93353061439 -3.75945128593 0)
(-2.9747878093 -4.05458855172 0)
(-3.03460759134 -4.40019852837 0)
(-3.1115003396 -4.79257107121 0)
(-3.20660345112 -5.23475754198 0)
(-3.32172577089 -5.72164153526 0)
(-3.46132392258 -6.25449436328 6.00979384754e-17)
(-3.6322613675 -6.82670476055 0)
(-3.84206493248 -7.43806304572 0)
(-4.09617379417 -8.0831621763 0)
(-4.38835278314 -8.75913651953 -5.67340776828e-17)
(-4.70604867281 -9.45676697935 -5.65688279376e-17)
(-5.03404962017 -10.1638542751 5.66106135991e-17)
(-5.36809434576 -10.8705112864 5.68297809458e-17)
(-5.70661828245 -11.56848706 0)
(-6.05774806801 -12.2738926567 0)
(-6.42991198736 -12.9990029494 0)
(-6.82968431507 -13.7517964324 5.87168749829e-17)
(-7.26096902882 -14.5318245448 0)
(-7.72909859649 -15.3426997052 0)
(-8.2382938803 -16.1772592023 -6.14202049453e-17)
(-8.79615675464 -17.0371808417 0)
(-9.4074953836 -17.9089969334 -6.37663591068e-17)
(-10.0822620277 -18.7915878236 0)
(-10.826341221 -19.6628868289 -6.64912278209e-17)
(-11.6537275203 -20.519633755 0)
(-12.5722954572 -21.3308449036 0)
(-13.6004702407 -22.0940778498 0)
(-14.745798591 -22.7698589468 0)
(-16.0292620548 -23.3606645445 0)
(-17.4555075604 -23.8186205392 0)
(-19.0451042803 -24.1525206325 0)
(-20.7957463893 -24.301400568 0)
(-22.7226934275 -24.2794498816 -8.08477254427e-17)
(-24.8213563753 -24.0120141595 0)
(-27.1153861302 -23.5321306355 0)
(-29.5778987927 -22.7391427147 -8.39843669502e-17)
(-32.2208942111 -21.6944773708 0)
(-35.029182689 -20.3034250958 0)
(-38.0426924008 -18.6752540452 -8.3634786501e-17)
(-41.2742818615 -16.6769277369 0)
(-44.7946112444 -14.3605217939 0)
(-49.0975791955 -11.2973278454 -7.70429420187e-17)
(-53.9266188224 -7.71577136476 7.2821054743e-17)
(-59.2196294038 -2.90643984268 -6.73221632458e-17)
(-64.9236975814 2.81220483982 0)
(-70.6376017067 11.5637385223 0)
(-76.1767865121 21.8770093651 -8.13364448233e-17)
(-80.0049006093 33.9360767625 0)
(-79.2425805478 39.3620592347 2.17932663665e-17)
(-71.5351525701 40.9067105933 -1.80734841345e-17)
(-29.1381186216 29.6669165584 0)
(-0.117732832593 -0.170257651818 2.02887053161e-16)
(-0.0217527148958 0.0476474116728 0)
(0.00598337937874 0.124027271737 -4.55298755328e-17)
(0.0118068923483 0.127397436013 3.26164988001e-17)
(0.0136519914177 0.100677236594 2.66120938772e-17)
(0.015603343117 0.065622314183 -1.12294837893e-17)
(0.0169265379741 0.0308976910116 -1.92334174575e-17)
(0.0172182039611 -0.000686942370161 0)
(0.016825796373 -0.0285086153683 7.34409556857e-18)
(0.0159777240071 -0.0527421820009 -1.30619958807e-17)
(0.014879829816 -0.073991192318 -1.7602272957e-17)
(0.0137123484962 -0.0928956678379 1.06347042703e-17)
(0.0126231282157 -0.110137604676 -1.45715744557e-17)
(0.011648526002 -0.126307600474 -4.46814812381e-18)
(0.0106536178002 -0.141999694779 0)
(0.00948236336951 -0.157662802776 3.84873232048e-18)
(0.0078859057476 -0.173728847059 3.60027353675e-18)
(0.00573168019692 -0.190422994528 3.3835220843e-18)
(0.0028768685769 -0.207979389522 -6.38478453602e-18)
(-0.000681301789694 -0.226417302854 0)
(-0.00494554605558 -0.24581919054 -5.75317762695e-18)
(-0.00983995674319 -0.266080892632 0)
(-0.0152470371498 -0.287214086575 5.25527160055e-18)
(-0.0210389967385 -0.309078438289 0)
(-0.0270752939296 -0.331661982102 -7.28849744595e-18)
(-0.0332320346412 -0.354835797096 2.34401597584e-18)
(-0.0393561793725 -0.378583402806 4.53930620551e-18)
(-0.0453428514529 -0.402791346805 6.60670859372e-18)
(-0.0510616464101 -0.427446155026 2.14205952432e-18)
(-0.0564320229291 -0.45245412715 2.08725974734e-18)
(-0.0613399071244 -0.477792672339 0)
(-0.0657175789715 -0.503375826126 3.98486292915e-18)
(-0.0694834102855 -0.529172363721 -1.95382980985e-18)
(-0.0725777319354 -0.555096435654 0)
(-0.0749387478962 -0.58110114038 0)
(-0.0765188585159 -0.607089428498 -1.85718161374e-18)
(-0.0772811415477 -0.633005485275 0)
(-0.0771881636975 -0.658734879414 0)
(-0.0762218268905 -0.684204581827 0)
(-0.074353126087 -0.709279091019 0)
(-0.0715772731169 -0.73387228063 0)
(-0.0678731935264 -0.757826538537 -3.4712322286e-18)
(-0.0632546639694 -0.781050897664 -6.89597662904e-18)
(-0.0577132818534 -0.803365737341 0)
(-0.0512825815208 -0.824686887141 -3.40177515464e-18)
(-0.0439710989617 -0.844812713674 3.38940087732e-18)
(-0.0358175676885 -0.863678148446 0)
(-0.0268454936759 -0.881069805003 0)
(-0.0171067389012 -0.896938726658 1.00393531565e-17)
(-0.00665346436325 -0.911063294403 6.67132545596e-18)
(0.00448429541071 -0.923416733573 -3.3305071398e-18)
(0.0162591213579 -0.933779080046 -6.64280971672e-18)
(0.0286257588305 -0.942133389356 -3.31408021594e-18)
(0.0415255796326 -0.948274296129 0)
(0.0549390495898 -0.952178502057 9.94394448099e-18)
(0.0688281507515 -0.953625399262 3.31785612622e-18)
(0.0831271587459 -0.952577654866 0)
(0.0977595358289 -0.948373705236 -6.64468871072e-18)
(0.112848915432 -0.939961227421 6.65177528308e-18)
(0.128242574251 -0.926414991994 3.3325958697e-18)
(0.143873292986 -0.907916905483 0)
(0.159724703558 -0.884586511728 0)
(0.175816821544 -0.856714637861 0)
(0.192188081629 -0.824423926371 -6.7263455266e-18)
(0.208805698517 -0.788053888441 0)
(0.225594387047 -0.74773177369 6.78208019522e-18)
(0.242457614993 -0.703865350867 0)
(0.259333250696 -0.65662840408 3.42256898052e-18)
(0.276135652132 -0.6064909597 0)
(0.292791000699 -0.55359989416 3.46219631177e-18)
(0.309214103385 -0.498438208225 3.4835742292e-18)
(0.32533507986 -0.441110586053 0)
(0.341072292913 -0.38211092753 3.53403546304e-18)
(0.356344994587 -0.321506214943 0)
(0.37108938188 -0.259810041457 -3.58149722212e-18)
(0.385233936499 -0.197073729574 0)