/*--------------------------------*- C++ -*----------------------------------*\
| =========                 |                                                 |
| \\      /  F ield         | OpenFOAM: The Open Source CFD Toolbox           |
|  \\    /   O peration     | Version:  v1806                                 |
|   \\  /    A nd           | Web:      www.OpenFOAM.com                      |
|    \\/     M anipulation  |                                                 |
\*---------------------------------------------------------------------------*/
FoamFile
{
    version     2.0;
    format      ascii;
    class       volScalarField;
    location    "11";
    object      alpha;
}
// * * * * * * * * * * * * * * * * * * * * * * * * * * * * * * * * * * * * * //

dimensions      [0 0 -1 0 0 0 0];


internalField   nonuniform List<scalar> 
12225
(
0.393817036105
0.33584178906
0.354063087837
0.354521547165
0.365969613583
0.370304108351
0.376182003897
0.380270164122
0.382527848592
0.381791217468
0.376573342636
0.368170259126
0.361277414004
0.349578341408
0.326879461273
0.298426317825
0.262946297296
0.232413569499
0.237146636722
0.287704430139
0.320533973125
0.315756469576
0.324992197817
0.327570525481
0.331582537783
0.334239437215
0.3359001722
0.335865345787
0.332780951887
0.326829146299
0.320484878087
0.311024459758
0.29448384601
0.273974103536
0.252135181748
0.249756671751
0.363686515275
0.308670891998
0.323206728105
0.322556830648
0.331773396843
0.335230990725
0.339743602273
0.342871423541
0.345067776616
0.34582792598
0.344438607294
0.340736856005
0.335223786573
0.326500894696
0.312686789379
0.296178089728
0.28155743069
0.286411392288
0.323066173426
0.293892174119
0.320488222538
0.314676115984
0.323391048377
0.325234938264
0.328536548636
0.330624587868
0.332100002282
0.33252965825
0.331553163119
0.32896617492
0.324645332036
0.317821978123
0.307924193001
0.297195446836
0.290609511976
0.299394852235
0.337735444553
0.295069097066
0.318384116931
0.311990754614
0.319698690023
0.320611934456
0.322993407339
0.324151179155
0.324689513356
0.324275583479
0.322747618255
0.319991031567
0.315810459421
0.309899279903
0.302507854558
0.295868154871
0.294275699209
0.303774140627
0.33509373563
0.29149250697
0.315608021276
0.30779313988
0.314959516059
0.315127171035
0.316924873261
0.317526134028
0.317557859889
0.316751552234
0.31503781772
0.312369807726
0.308632047034
0.3038282999
0.298630995642
0.295109257362
0.296430138042
0.305431519001
0.334924258148
0.289792822031
0.31317466239
0.304430439031
0.310981768515
0.310500267108
0.311791233243
0.311943412099
0.311611030296
0.310573863229
0.308819923189
0.306356207404
0.303193142118
0.299531878887
0.296204362386
0.294949880857
0.297875795213
0.306128432468
0.334051834683
0.288466330198
0.311124026573
0.301631601016
0.307633077264
0.306612998426
0.307498729263
0.307316281449
0.30676769272
0.305652684093
0.303988593558
0.301830336005
0.299300777319
0.296715107634
0.294915918327
0.295246471817
0.299018068041
0.306503990542
0.333251165928
0.287681543152
0.309498729339
0.299447450641
0.304941240771
0.303460289456
0.304010353021
0.303589893766
0.302940237119
0.301856509908
0.300372147963
0.298592462049
0.296718329556
0.29511422903
0.294526406856
0.295954309958
0.300130276947
0.306962897078
0.332684104838
0.287367420669
0.308408168845
0.29794790985
0.303010879817
0.301150299215
0.301450693694
0.300884776074
0.300206360547
0.299205400149
0.297952553382
0.296599556456
0.295386169063
0.294659712909
0.295026607716
0.297189662338
0.301515142852
0.307730544773
0.332998009622
0.287300642473
0.30813766802
0.297302905579
0.302118694638
0.300035616927
0.300242312334
0.299633060824
0.298986604636
0.298122076608
0.297147524889
0.296217198962
0.295564995606
0.295487494094
0.296457735055
0.298947961493
0.303097539354
0.308614404717
0.337082164802
0.287428863518
0.309638652329
0.298211473881
0.303085153731
0.300896058595
0.30107444929
0.300452005151
0.299884063908
0.299162457847
0.298339601136
0.297587952181
0.29714682645
0.297295425485
0.298395224306
0.300771811355
0.304481652211
0.309240074585
0.340429255232
0.288109411042
0.311134346399
0.299286851111
0.303984822313
0.301619438902
0.301689817003
0.300980530773
0.300312849404
0.299501001761
0.298655267856
0.297950891269
0.297656913736
0.297973230902
0.299197550176
0.301523851419
0.304919538655
0.309134345592
0.344458199245
0.28895338144
0.312825074181
0.300436040969
0.304920382589
0.302200273431
0.301961325635
0.301025289755
0.300237461376
0.299410256129
0.298660042284
0.298175026451
0.298187389011
0.298834255591
0.300270846551
0.302614501359
0.305727812394
0.30947348142
0.349672937271
0.289876023698
0.314940037916
0.301827543605
0.306090120573
0.302951877718
0.302361959787
0.30115957328
0.300233581367
0.299430919808
0.298833998338
0.298638972947
0.299016761323
0.299984435657
0.301616643151
0.303935692976
0.306792033472
0.31005475966
0.355133243757
0.290866767071
0.317348142732
0.303525683995
0.307668747286
0.304170016067
0.303316718054
0.301916175136
0.300924857975
0.300157405684
0.299737940782
0.299778325256
0.300433061305
0.301597042988
0.30330893653
0.305518039907
0.308095362844
0.310951241902
0.3600427577
0.291768284827
0.319780170203
0.305383595827
0.309553596711
0.305837179938
0.304868892614
0.303401027922
0.302424910353
0.301760382246
0.301474646351
0.301690283053
0.302486634875
0.303732392989
0.305398220179
0.307454713541
0.309740059688
0.312263143414
0.364654697319
0.292461012505
0.322087411966
0.307227494602
0.311564641316
0.307775416869
0.306836865149
0.305399737739
0.304502009961
0.303943178086
0.303772031056
0.304093173549
0.304952552291
0.306188276615
0.307760064073
0.309643262756
0.311680852175
0.313911929332
0.367173569247
0.292563866434
0.323300192751
0.308262887851
0.31287700435
0.309223631072
0.308498632672
0.307254682086
0.306560036698
0.306194180831
0.306190875746
0.306633363323
0.307554214528
0.308777441585
0.31026958884
0.312017724835
0.313875439817
0.315889934407
0.361815005831
0.291910843912
0.321730062792
0.307531872962
0.312610149653
0.309608238904
0.309504142515
0.308894639796
0.308771490431
0.308914145723
0.309326841352
0.310076250912
0.31119903223
0.312532921362
0.31404919759
0.315744611963
0.317487641098
0.319315663824
0.35768959349
0.290894171355
0.319884913959
0.306297284413
0.311732804186
0.309250787584
0.309637923183
0.30948791077
0.309802286828
0.310305224577
0.311008761809
0.311956615709
0.313218621401
0.31460889508
0.316137059177
0.317780704835
0.319450248854
0.321157524685
0.354412751616
0.289812920056
0.318117879958
0.305048266786
0.310765624092
0.308737362201
0.309524282978
0.309773933324
0.310430360998
0.311222893015
0.312163395791
0.313272310374
0.314632403622
0.316080391446
0.317613805241
0.319233996329
0.32084591157
0.322493655085
0.350706541496
0.288591226259
0.316321725253
0.303745389273
0.30974355293
0.3081561262
0.30932694301
0.309941690873
0.310915667383
0.311987981706
0.313127402532
0.314398881114
0.315866716024
0.317388676125
0.318939405065
0.320568018655
0.322155814876
0.323761410897
0.347408276862
0.287486259099
0.314394259801
0.302410422448
0.308682456139
0.307520019902
0.309052920098
0.310019757729
0.31128468769
0.312590284299
0.313927919362
0.315336855333
0.31690228567
0.318477159574
0.32007900611
0.321719750162
0.323317416945
0.324866476708
0.34172547989
0.285737723366
0.312741026798
0.301297488875
0.307832529351
0.307106408529
0.308982488795
0.310252568783
0.311785229559
0.313324336414
0.314856885087
0.31640292944
0.318078286305
0.319741317146
0.321400665968
0.323111661711
0.324794402114
0.326466009121
0.345666972467
0.286578038589
0.309501227952
0.299378835735
0.305906284987
0.305570355422
0.307667869863
0.309182385237
0.310918194546
0.312644487207
0.314318034588
0.315964784841
0.317692971481
0.319397736729
0.321083980371
0.322792782189
0.324458558008
0.325913833836
0.309511949656
0.279405104429
0.30869527746
0.298305201429
0.305407331723
0.305521603385
0.308009469934
0.309877097267
0.311952118047
0.314022875625
0.316066579363
0.317951118953
0.319852926821
0.321737337116
0.323559527298
0.325414313148
0.327293736128
0.329376071394
0.38705009257
0.292125763873
0.29821926693
0.293336917943
0.299208214799
0.299722994316
0.301987486698
0.303657708932
0.305444707965
0.307221921992
0.308855103587
0.310371369825
0.311957794395
0.313533557728
0.315090865013
0.31677511713
0.318556473806
0.319925075901
0.179259385979
0.265359220778
0.294704488843
0.286893852078
0.293554836265
0.294414141882
0.297368566571
0.299961755943
0.302938350767
0.306152493597
0.309501372803
0.312633240427
0.315802846032
0.319099333975
0.32243673636
0.3258251241
0.329301311637
0.332687178558
0.331736218365
0.303399645197
0.306690041093
0.305293882023
0.312640409684
0.313535377884
0.315999321325
0.317887718683
0.319807910967
0.32148518509
0.322823072212
0.324069519917
0.325380272057
0.326372050432
0.327045214421
0.327595808874
0.327857307787
0.328569305858
0.476040244827
0.476398852459
0.47657971348
0.47655870645
0.476351685786
0.475999102605
0.475584583263
0.475149299935
0.474719178459
0.474311097659
0.473935652977
0.473598926555
0.473303895937
0.473051364665
0.47284066546
0.47266989308
0.472536648003
0.472437627765
0.472369823109
0.472330239472
0.472315619986
0.472323718612
0.47235124479
0.472397470286
0.472460417394
0.472540506079
0.472636025969
0.472747233123
0.472873338748
0.473015107909
0.47317211354
0.473344797868
0.473532584642
0.473736171599
0.473955180048
0.474189349089
0.47443742819
0.474700009363
0.474975803873
0.475264607507
0.475564972807
0.475876006444
0.476195983388
0.476523142257
0.4768553762
0.477190102666
0.477524781735
0.477856362709
0.478181705114
0.478497997705
0.47880255532
0.479094226164
0.479370026296
0.479626013437
0.479857026895
0.480058168131
0.480224235789
0.48035007764
0.480430401088
0.480460189997
0.48043562611
0.480355883024
0.480220554825
0.480028141146
0.47977908756
0.479475610581
0.479119333828
0.478712138073
0.478257164709
0.477757222967
0.477216615079
0.476639347984
0.476030328343
0.475393979727
0.474735209324
0.474058231189
0.47336732261
0.472667239578
0.471962015809
0.471254447006
0.470546781217
0.469842348546
0.469143256393
0.468452073119
0.467767881098
0.467093152498
0.466427619336
0.465765064006
0.465108947953
0.464455674548
0.463804934247
0.463156728075
0.462509402117
0.461890301118
0.461315365325
0.460748305456
0.460158799348
0.459562742129
0.458963371573
0.458367140512
0.457669147209
0.456890306407
0.45685135977
0.456923390588
0.456834400994
0.456522718986
0.456025268115
0.455808947465
0.45549251287
0.455203401703
0.454951918211
0.454733379857
0.454538701059
0.454362294534
0.454199945082
0.454048876999
0.453906241125
0.453768915974
0.453636089446
0.453508835077
0.453390570519
0.453282601272
0.453183658285
0.453092666546
0.453006782519
0.452924745807
0.452845784006
0.452769390123
0.452695210316
0.452622949693
0.452552273754
0.452482993
0.452414986466
0.452348359774
0.452283163789
0.452219611858
0.45215782108
0.45209750179
0.452039206617
0.451983227197
0.451931510233
0.451882766445
0.451837830405
0.451798139115
0.451765313388
0.451741108727
0.451726588952
0.451722525813
0.45172960765
0.451748387441
0.451779972493
0.451825916982
0.451887964314
0.451967761242
0.452067093704
0.452187794407
0.452331910737
0.452501667288
0.452699986406
0.452930439223
0.453198382045
0.45350951265
0.453871821907
0.454296528798
0.454798989486
0.455396056888
0.456108464572
0.456952520661
0.457941214676
0.459097121432
0.460433147622
0.461945922354
0.463618015729
0.465409744289
0.467263168052
0.469234330759
0.471271312742
0.473295770133
0.475197723328
0.476672016694
0.476139716295
0.476373985103
0.476286195217
0.476006308888
0.475660104899
0.47530311138
0.474957879965
0.474635383091
0.474339666841
0.47407243884
0.47383397247
0.473625129202
0.47344546638
0.473294977012
0.473172627234
0.473077465709
0.473007768224
0.472961690159
0.472936694384
0.472931129971
0.472942310276
0.472968648186
0.473007617327
0.473058850583
0.473120766948
0.473194068376
0.473277696814
0.473372349585
0.473478009089
0.473595839887
0.473725786598
0.47386870059
0.474024968804
0.474195637497
0.474380239213
0.474579395611
0.474792723438
0.475020451638
0.475262065945
0.475517682712
0.475786380585
0.476067429515
0.476359461969
0.476660830638
0.476969454983
0.477282740675
0.4775975484
0.477910508128
0.478217274013
0.478513019328
0.478790456892
0.479044892415
0.479273739892
0.479474381438
0.479643256712
0.479776887283
0.479871817825
0.479922724758
0.479924035811
0.479874032566
0.47977157242
0.479614542921
0.47940299315
0.47913931783
0.478823147174
0.47845466266
0.478035219306
0.47756615396
0.477049144985
0.476485787065
0.475878381817
0.475229264264
0.474541812133
0.473819495018
0.473066266913
0.472286571697
0.47148533339
0.470667707265
0.469839175854
0.469003879509
0.468165252752
0.467327599086
0.466495721559
0.465672115935
0.464855741289
0.464052252231
0.463268514196
0.462494628787
0.461708981745
0.46092850528
0.460181648113
0.459432988898
0.458640570405
0.457832623892
0.457092389264
0.456423642534
0.455717208258
0.455155082968
0.454596758519
0.454006756122
0.453444167251
0.452747626182
0.452263052861
0.451733951726
0.451259506566
0.450822127057
0.450587574145
0.450426502025
0.450285749685
0.450120368665
0.449929334195
0.449731511786
0.449530344053
0.449328149429
0.449125223956
0.448921588609
0.44871601967
0.448506892815
0.448293766138
0.448079581083
0.447868373589
0.447662179203
0.447461270896
0.44726413604
0.447069004744
0.446875084645
0.446681822534
0.446488936617
0.446296074969
0.446103076037
0.445909891061
0.445716522083
0.445522864995
0.445328867401
0.445134298498
0.444938841443
0.444741789926
0.444542235013
0.44433945152
0.444133848564
0.443925801558
0.443714178554
0.443498621922
0.443279418571
0.443057456377
0.442833205489
0.442606334275
0.442375946922
0.44214092103
0.441900341275
0.441653193825
0.441398368719
0.441134760842
0.440861809898
0.440579771998
0.440289566836
0.439993237488
0.439693428956
0.439393769491
0.439097596887
0.43880992929
0.438536324446
0.438282223783
0.438051729652
0.437848598493
0.437675820628
0.437529706792
0.437417786168
0.437338840283
0.437290965689
0.437275584766
0.437299968341
0.437374445996
0.43750354173
0.437755904857
0.438039990994
0.438374760381
0.438749202818
0.439118587947
0.439503728521
0.475779024282
0.47586544134
0.475829051929
0.47569795553
0.475552697996
0.475428699915
0.47531952854
0.475217855116
0.475118241643
0.475019575198
0.474922282354
0.474828251387
0.47473952212
0.474658278807
0.474586144871
0.474524446613
0.474473779794
0.474434511146
0.47440627979
0.474388665636
0.474380779315
0.474382613623
0.474392629842
0.474411200111
0.474437902973
0.474473467691
0.474517643985
0.474571639296
0.474635775769
0.474711317641
0.474798697553
0.474899247288
0.475013182426
0.475141431095
0.475284190602
0.475441881662
0.47561397516
0.475800969624
0.476002262566
0.476217553732
0.476445953039
0.476686475108
0.476937646217
0.477197674103
0.477464368433
0.477735177947
0.478007033344
0.478276598915
0.478540101337
0.478793482243
0.479030872664
0.479246167579
0.479432702331
0.479586229056
0.479703478221
0.479781875981
0.479819292094
0.479815982882
0.479772985539
0.479688904203
0.479561225278
0.479387897839
0.479164398205
0.478887048444
0.478554636293
0.478164634413
0.477715271567
0.477206093262
0.47663835915
0.476014348887
0.475337829849
0.474613480066
0.473846837619
0.473043902716
0.47221093142
0.471354287778
0.470480214257
0.469594948506
0.468704452865
0.467814497235
0.466928285052
0.466049782311
0.46518440637
0.464335875502
0.463501261738
0.462679776857
0.461886167747
0.461123807587
0.46036898058
0.459611438475
0.458884325922
0.458214433065
0.45752494481
0.456836849656
0.456183073463
0.455561215025
0.454997456801
0.454587502396
0.454101332579
0.453424124894
0.45266946843
0.452155131085
0.451928184165
0.451708502019
0.451616067375
0.451450131609
0.451129913619
0.450660719252
0.450206721467
0.449810679777
0.449454159167
0.449128958147
0.448825702681
0.448539124312
0.448265330031
0.448001600025
0.447745184113
0.44749385993
0.447246958186
0.447006763134
0.446775688625
0.446554314926
0.44634131886
0.446134475515
0.445932671963
0.445735234777
0.445541756118
0.445351942532
0.445165550031
0.444982191089
0.44480132183
0.444622465528
0.444445282387
0.444269511862
0.444094874202
0.443920948058
0.443747165314
0.443573209511
0.443399116107
0.443226297152
0.443055065588
0.442884585329
0.44271367633
0.442542602056
0.442372768789
0.44220526892
0.442040554251
0.441878554309
0.441719292531
0.441562813782
0.441409206529
0.44125837812
0.441110397291
0.440965195991
0.440822509579
0.440681816679
0.440542394305
0.440403104126
0.440262807837
0.440119867991
0.439972635806
0.439819508213
0.439658895881
0.439489052873
0.439308667675
0.439116190267
0.43890874834
0.438685619177
0.438449851142
0.438204377989
0.437954371758
0.437710471465
0.437486104518
0.437307470177
0.437201486595
0.437185500509
0.437275580603
0.437472249345
0.437725156348
0.43788424372
0.475333210302
0.475441314174
0.475666445363
0.47576700954
0.475804821792
0.475832963731
0.475846170001
0.475840867491
0.475815475948
0.475771179539
0.475710740113
0.475638273132
0.475557399105
0.475471860892
0.475384586851
0.475298198145
0.475214518873
0.475135003156
0.475060242059
0.474991316001
0.474927933778
0.474870478506
0.474818827299
0.47477366571
0.474734647502
0.474703187488
0.474679601313
0.474665192779
0.474660719554
0.474667790994
0.474687232914
0.474720346225
0.474767930432
0.474831292679
0.474910341202
0.475005996354
0.475118172353
0.475247014137
0.475391958532
0.475552750757
0.475728249479
0.475917249356
0.476117917567
0.476328052091
0.476544996607
0.476765651214
0.476986368506
0.477203424045
0.477412481539
0.47760887869
0.477788081796
0.477946653912
0.478079006477
0.478180361799
0.478246285329
0.478273065045
0.478257279212
0.478197268619
0.478094410295
0.477951400754
0.477768836945
0.477545640944
0.477278742276
0.476964356626
0.476598249032
0.476177389038
0.475699879504
0.475164713647
0.474572091809
0.473923626672
0.473222294443
0.472472614191
0.47168049256
0.47085225496
0.469994752789
0.469115855693
0.468222677041
0.467320754278
0.46641736469
0.465519611269
0.464630317131
0.4637495481
0.462886201124
0.462050436159
0.461234891346
0.460432468916
0.459657869766
0.458944723743
0.458247092882
0.457554362726
0.456899770756
0.456299173545
0.455739795951
0.455200503915
0.454711804528
0.454222856927
0.453671902837
0.453063098878
0.452345334051
0.451660727693
0.451202952141
0.451058566425
0.450981151957
0.450843082973
0.450690825253
0.450392827916
0.449918343751
0.449327471762
0.448756662165
0.448262487883
0.447836916406
0.447465353528
0.44713305802
0.446830091131
0.446549363497
0.446285698067
0.446034911999
0.44579376203
0.44556133155
0.445338770985
0.445127257816
0.444925892422
0.444731840124
0.444543020189
0.444358499314
0.444177869285
0.444000785398
0.4438268845
0.443655714236
0.443486826178
0.443319505714
0.443153188064
0.442987605156
0.442822428106
0.442657211289
0.442491341923
0.442324330397
0.442156168487
0.441987763609
0.441820646573
0.441655322514
0.44149025881
0.441323563944
0.441155213253
0.440986314554
0.440817822602
0.440650064096
0.440482946275
0.440316283386
0.440149859819
0.43998352947
0.439817138415
0.439650847843
0.439484794575
0.439319089372
0.439153877894
0.438989459752
0.438826352766
0.438665210668
0.43850673459
0.438351338785
0.4381994925
0.438051645115
0.437907639988
0.437766884593
0.437627841112
0.437487003375
0.437341967884
0.437190676357
0.437029823195
0.436857890496
0.436677123131
0.436492031225
0.436311705941
0.436155212835
0.43602967378
0.435946174795
0.435899749945
0.435833411826
0.435620344278
0.474811151433
0.475369149989
0.475956014803
0.476167756236
0.476231979661
0.476272957842
0.476296326529
0.476300892475
0.476283238475
0.47624388451
0.476184264646
0.476107441058
0.476016577491
0.475915355646
0.475806727062
0.475693755303
0.475578470951
0.47546315477
0.475348962482
0.475237048801
0.475127950997
0.47502290186
0.474921597074
0.474825246057
0.474734318667
0.474649881207
0.474572544585
0.474503980452
0.474445100368
0.474397528623
0.474362265551
0.474341035215
0.474334471952
0.474343761769
0.474369464212
0.474412349436
0.474472149019
0.474549478093
0.474643810134
0.474754853874
0.474881607463
0.475023017602
0.475177358664
0.475342670823
0.47551644972
0.475695980263
0.475877916525
0.4760587551
0.47623471564
0.476401419407
0.4765529677
0.476685239953
0.476793087384
0.476871520789
0.476916604035
0.476924902497
0.476892620196
0.476817241518
0.476698287717
0.476534277766
0.476323994043
0.476066916727
0.475762153906
0.475408362784
0.475003013765
0.474543112314
0.474026172058
0.473450663178
0.472816985786
0.472126785913
0.471383412277
0.470591770249
0.469759278659
0.468892245448
0.467997818833
0.467084986307
0.466162848003
0.465235244342
0.464306386438
0.463389565832
0.46249167692
0.461603373943
0.460731768077
0.459895920659
0.459085086672
0.458285858955
0.457519005846
0.456804209242
0.456149518786
0.455519321975
0.454895947364
0.454331134
0.453786029815
0.453276616072
0.452747468662
0.452111138363
0.451412940099
0.450729034439
0.450141981067
0.449793182742
0.449695462325
0.449717056592
0.449654616507
0.449480065282
0.449222608387
0.448845132354
0.448367126875
0.447841396368
0.447338708523
0.446890886038
0.446498637038
0.446153823238
0.445845643607
0.445565464154
0.44530659142
0.44506391452
0.444833394967
0.444612337909
0.444400252371
0.444198126409
0.444006502031
0.443823629392
0.443646602343
0.443473762745
0.443304645865
0.443139212171
0.442977388021
0.442818964545
0.442663567616
0.442510741927
0.442360071798
0.442211179935
0.442063661788
0.441917156117
0.4417711043
0.441624847808
0.441478095422
0.441331356135
0.441186422024
0.441044949019
0.440907395891
0.440771383942
0.440634617422
0.440496648799
0.440358179257
0.440220030827
0.440082466911
0.439945428474
0.439808691341
0.439671988755
0.439535151936
0.439398042962
0.439260512982
0.439122465844
0.438983806541
0.438844577049
0.438704809978
0.438564536173
0.438423897456
0.43828303838
0.438141833339
0.438000180964
0.437857901803
0.437714422594
0.437569101575
0.437420875279
0.437267388967
0.437107440829
0.436940534517
0.43676517406
0.436582101142
0.436394716361
0.436206701924
0.436025028011
0.435860604969
0.435716155199
0.435589482117
0.435461176426
0.435265216615
0.434889617319
0.474313989321
0.475859099824
0.476682730956
0.476719345152
0.476633573211
0.476590871956
0.476568337373
0.476547803919
0.476515625221
0.476466182005
0.476397341827
0.476310960663
0.476208824822
0.476094268567
0.475969670502
0.475838091027
0.475701469371
0.475562077691
0.475421050899
0.475280350225
0.475140313965
0.47500207855
0.474866325559
0.474734161032
0.474605818944
0.474483043047
0.474366640363
0.474258200478
0.474158870645
0.474070467743
0.473994170984
0.473931514773
0.47388353103
0.473851655377
0.473836059681
0.473837752478
0.473856773954
0.473893340755
0.47394686957
0.474017088555
0.474102735932
0.474202657036
0.474314910182
0.474437450834
0.474567666765
0.474702861388
0.474839711123
0.474975077289
0.475105244398
0.475225914828
0.475331356027
0.475417437666
0.475478488063
0.475509297417
0.475505167533
0.475461886458
0.475375557173
0.475246700416
0.475076610971
0.474865961863
0.474614430613
0.474321628504
0.473985940573
0.473605961411
0.473177316613
0.472696121135
0.47215841536
0.471561508225
0.470905205835
0.47019190422
0.469423616727
0.46860591151
0.467747568278
0.466857124089
0.465938773466
0.46500260339
0.464062737985
0.463125227628
0.462187016412
0.461258276503
0.460364390421
0.459471047365
0.458595795775
0.457752938887
0.456954731385
0.456206106909
0.45548524753
0.454798714771
0.454146083342
0.453508876071
0.452928480822
0.452360890682
0.451729813762
0.451091952234
0.450436720027
0.449794929429
0.449229263762
0.448789114461
0.448498566548
0.448387688216
0.448381472134
0.448351586187
0.448213667011
0.447980877395
0.447674242967
0.447294592956
0.446866581529
0.446422653223
0.445996419636
0.44560444165
0.445250579803
0.444932394587
0.444644357395
0.444380935847
0.444137250684
0.443909199649
0.443693398003
0.44348792792
0.443292519217
0.44310800801
0.44293424388
0.442768810017
0.442609028491
0.442453409974
0.442301577973
0.442153509846
0.442009172732
0.441868371086
0.441730764345
0.441595914066
0.441463373086
0.441332521683
0.441202829141
0.441073754224
0.440944599304
0.440814648259
0.440683762116
0.440553064728
0.440424630985
0.440300498516
0.440180593214
0.440062367142
0.439943526565
0.439823386635
0.439702502308
0.439581508282
0.439460701964
0.439340087221
0.439219537547
0.439099070434
0.438978626213
0.438858160073
0.438737620162
0.438616885825
0.438495901442
0.438374574683
0.438252851789
0.438130658949
0.438008009439
0.437884868485
0.437760981545
0.437636110726
0.437509870029
0.437381447325
0.437249931333
0.437114057937
0.436971553161
0.436821104041
0.436662012187
0.436492755635
0.436314180218
0.436129337258
0.435940889889
0.435753896542
0.435576996021
0.435410332712
0.435247903341
0.435066102855
0.434802182817
0.434368916136
0.474000236675
0.476963964776
0.477636977517
0.477196877083
0.476899695951
0.476763138296
0.4766884342
0.476630915274
0.476565982729
0.476486417354
0.476388767882
0.476274491677
0.47614476492
0.476002728683
0.475850190518
0.475690127281
0.475524010107
0.475354341324
0.475182110047
0.475008786385
0.47483515003
0.474662757788
0.474491640134
0.474323303443
0.474158488111
0.473998411364
0.473843949181
0.473696903962
0.473558339042
0.473430013379
0.473313071515
0.473209298665
0.473119468459
0.473044802915
0.472985949651
0.472943648244
0.472917697614
0.472908578374
0.472915629011
0.472938409926
0.472975678407
0.47302628768
0.473088350973
0.473160026093
0.473238955516
0.473323015368
0.473409419272
0.473495674586
0.473579127188
0.47365651504
0.473721402799
0.473770319097
0.473796905706
0.473793867447
0.47375469686
0.473673350764
0.473546429411
0.473376962894
0.473166438257
0.472916501863
0.472627939474
0.472302870561
0.471940555078
0.471538369463
0.471089355883
0.470589360141
0.470032820118
0.469415354626
0.468737191766
0.468002239577
0.467213400818
0.466373289279
0.465494454535
0.4645907856
0.463665142417
0.462723444447
0.461780864414
0.46084366344
0.459902999776
0.458976983524
0.458075448362
0.457213642925
0.456396250241
0.455598325882
0.454830420759
0.45410406417
0.453420883195
0.452780246312
0.452145245488
0.451491382456
0.450860761572
0.450218164819
0.449571188582
0.448962894935
0.448394533909
0.44791661265
0.447554381366
0.447314498944
0.447172638284
0.447106141928
0.447042961161
0.446918414168
0.4467153765
0.4464532945
0.446145270382
0.445798240466
0.445428026234
0.445052482679
0.444688778379
0.444346969801
0.444031512866
0.443742737568
0.443478461435
0.443235535213
0.443010639975
0.442800495501
0.442602454663
0.442415042364
0.44223821246
0.442072437851
0.44191691324
0.441769248014
0.441626991612
0.441488855031
0.441354434027
0.441223688473
0.4410965674
0.440972900196
0.440852349389
0.440734448563
0.440618695402
0.440504546504
0.440391529246
0.440279026994
0.440166267072
0.440052533979
0.439937946551
0.439824036743
0.439713157871
0.439607297708
0.439505865781
0.43940636124
0.439306505544
0.439205635975
0.439104139507
0.439002452269
0.438900749744
0.438798923637
0.438696968896
0.438594819651
0.43849247742
0.43838988066
0.438286963209
0.438183668563
0.438079895336
0.43797550807
0.437870403627
0.437764459587
0.43765762118
0.437549751012
0.437440509098
0.43732957193
0.437216442017
0.43710022406
0.436979887806
0.436854163492
0.436720913055
0.436578899721
0.436427363183
0.436264886652
0.436092147211
0.435911748151
0.435725308856
0.435536076394
0.435350030214
0.435165179122
0.434972696203
0.434747311779
0.434433171682
0.433965541013
0.473983700357
0.478524231756
0.478519916755
0.477463199877
0.477030689879
0.476829243797
0.476700806705
0.476589629283
0.476471351659
0.47634076649
0.476194578266
0.4760351716
0.475862760629
0.475680413375
0.475489067864
0.475291506816
0.475088706653
0.474882872545
0.474674588283
0.47446583193
0.474256832507
0.47404897534
0.473842940485
0.473639833634
0.473439912503
0.473244891065
0.473055439742
0.472873044986
0.47269870436
0.47253409156
0.472380191661
0.47223837818
0.472109523601
0.471994823165
0.471894398876
0.471809072041
0.471738770433
0.471683541774
0.471642724535
0.471615925618
0.471601822272
0.471599346308
0.47160679966
0.471622667408
0.471645196347
0.471672976641
0.471704535044
0.471738669685
0.471773996551
0.471808865007
0.471838108635
0.471855663474
0.47185346109
0.471819799087
0.47174291301
0.471612455262
0.47142787909
0.471195763961
0.470920156008
0.47060601385
0.47026025932
0.469890386999
0.469500548307
0.469081537791
0.46862449916
0.468121474005
0.467564629598
0.46694501325
0.466259296351
0.465515548756
0.46472125623
0.463875556116
0.462988609865
0.462086664687
0.461155068255
0.460207721691
0.459267249401
0.458341685563
0.457443246094
0.456577783174
0.455725518059
0.454899785468
0.454113522024
0.453366928988
0.452663729798
0.451999381683
0.451351776008
0.4507005113
0.450041928834
0.449390390454
0.448776217627
0.448175427114
0.447624219105
0.447137594296
0.446716570253
0.446387172734
0.446148550758
0.445987734997
0.445870284546
0.445765672848
0.445631791233
0.4454483361
0.445220318611
0.44496071235
0.444675994671
0.444370702187
0.444053316399
0.443733809554
0.443422070783
0.443125074947
0.442846906793
0.442589011375
0.442350906071
0.442131000916
0.441927048971
0.441736547524
0.441557493053
0.441388863287
0.441230746405
0.441083369451
0.440945651319
0.440815374765
0.440690456289
0.440569715936
0.440452687419
0.440339249259
0.440229306537
0.440122683369
0.440019058674
0.439918007653
0.439819066336
0.439721742026
0.439625505327
0.439529685511
0.439433389028
0.439335973972
0.439237852049
0.439140787421
0.439047295185
0.438958931935
0.438874870535
0.438792728474
0.438710468197
0.438627488441
0.438543993251
0.438460273581
0.438376324713
0.438292070215
0.438207425011
0.438122367821
0.438036934666
0.437951103912
0.437864840827
0.437778054721
0.437690622295
0.437602373728
0.437513160601