/*--------------------------------*- C++ -*----------------------------------*\
| =========                 |                                                 |
| \\      /  F ield         | OpenFOAM: The Open Source CFD Toolbox           |
|  \\    /   O peration     | Version:  v1806                                 |
|   \\  /    A nd           | Web:      www.OpenFOAM.com                      |
|    \\/     M anipulation  |                                                 |
\*---------------------------------------------------------------------------*/
FoamFile
{
    version     2.0;
    format      ascii;
    class       volVectorField;
    location    "11";
    object      Ua;
}
// * * * * * * * * * * * * * * * * * * * * * * * * * * * * * * * * * * * * * //

dimensions      [0 1 -1 0 0 0 0];


internalField   nonuniform List<vector> 
12225
(
(-0.0344628675031 38.9592919176 0)
(1.00748035055 9.35725219841 0)
(0.524019465756 8.81216036053 0)
(0.711887810846 9.05430785106 0)
(0.67962977461 9.1383751822 0)
(0.740490835827 9.27675386478 0)
(0.781115641882 9.33470146724 0)
(0.832247824852 9.31824615442 0)
(0.876374924386 9.21235635713 0)
(0.909729365812 9.0465618693 0)
(0.926267421489 8.87209896887 0)
(0.924394623246 8.74190379802 0)
(0.910646065202 8.66751447678 0)
(0.927447933629 8.69027073168 0)
(1.07807526407 8.74304249408 0)
(1.52893523092 8.510153225 0)
(2.34897123711 7.21428183071 0)
(2.8795321902 3.68641526289 0)
(2.33323580885 -34.5016176138 0)
(0.682334558863 -6.29297822453 0)
(0.949380761035 -5.87473902466 0)
(0.86402323999 -6.08989802995 0)
(0.927776632221 -6.03911208916 0)
(0.964832675861 -6.08943295405 0)
(1.02248066175 -6.09002759251 0)
(1.08533835245 -6.07957716211 0)
(1.1502955758 -6.04396216517 0)
(1.21305387879 -5.9876849648 0)
(1.27296739878 -5.90774103673 0)
(1.33376895656 -5.79143686933 0)
(1.40441465175 -5.61271791439 0)
(1.51399674807 -5.33189916917 0)
(1.72188618343 -4.90810968065 0)
(2.09524497436 -4.3118664739 0)
(2.56744189005 -3.59441686553 0)
(2.61464891938 -2.97089028391 0)
(-1.61586308747 27.835056993 0)
(1.15497317553 3.96037297071 0)
(0.688170660375 3.0761705932 0)
(0.803921015843 3.25619298057 0)
(0.781447669843 3.16108727161 0)
(0.804332225052 3.14231541149 0)
(0.825642097079 3.09937693569 0)
(0.847248791021 3.03725628998 0)
(0.862870450868 2.93924309371 0)
(0.87041010198 2.79541586903 0)
(0.872509830635 2.60121910467 0)
(0.876018881021 2.35354895651 0)
(0.894676802851 2.05600076622 0)
(0.960587281492 1.71553360023 0)
(1.12735340092 1.33122779598 0)
(1.43712559038 0.871755713799 0)
(1.79824819413 0.23094252298 0)
(1.850068132 -0.684060323049 0)
(1.7130865749 -16.779576702 0)
(1.05492326943 -2.37939385653 0)
(0.849661437081 -1.87253826297 0)
(0.915708709205 -1.90142937367 0)
(0.915657116655 -1.78028883147 0)
(0.945990973022 -1.66815317292 0)
(0.971777653762 -1.54388228265 0)
(0.998004573203 -1.41078058763 0)
(1.01741284645 -1.26751825519 0)
(1.02857565347 -1.10920697887 0)
(1.03159532288 -0.932944362832 0)
(1.03128436302 -0.739941199313 0)
(1.04000199351 -0.533506258791 0)
(1.0837730174 -0.323920247714 0)
(1.19910242607 -0.14344969612 0)
(1.3983875551 -0.0717341264747 0)
(1.58653196805 -0.243759388134 0)
(1.54940962 -0.707345954713 0)
(0.259490370091 6.85305786298 0)
(0.903631651696 0.716957910572 0)
(0.847789011594 0.748069817339 0)
(0.863737267501 0.590396572686 0)
(0.871645188014 0.50592476271 0)
(0.889097550115 0.393987043849 0)
(0.911521975561 0.285205093631 0)
(0.935464041131 0.172438149448 0)
(0.957767817274 0.0627145863123 0)
(0.976609295098 -0.0375581128904 0)
(0.99203475479 -0.120070465911 0)
(1.00793939674 -0.176907036571 0)
(1.03487250035 -0.201561016032 0)
(1.09223530548 -0.195880960429 0)
(1.19992059055 -0.182009816278 0)
(1.34693149605 -0.220702777622 0)
(1.44777701839 -0.396459055667 0)
(1.38481177741 -0.698056810094 0)
(0.837747120131 -1.64524142621 0)
(0.98948881055 -0.228601158316 0)
(0.896682903961 -0.210005086918 0)
(0.922953855391 -0.198653231238 0)
(0.923092292238 -0.176014042586 0)
(0.934921981515 -0.156510834515 0)
(0.948829277016 -0.143349224455 0)
(0.963963432135 -0.139143416697 0)
(0.977726282269 -0.144276016542 0)
(0.989524911984 -0.15624383846 0)
(1.00030050286 -0.170915756308 0)
(1.01454050625 -0.182782973307 0)
(1.04173673258 -0.187225541078 0)
(1.09574468669 -0.187095747505 0)
(1.18430045021 -0.201213110615 0)
(1.28568923986 -0.270736988836 0)
(1.33456954457 -0.432396246124 0)
(1.27189009071 -0.642960821773 0)
(0.81798116011 0.570570106194 0)
(0.958643386874 -0.0122533665649 0)
(0.929634373491 0.0237751468704 0)
(0.941152665748 -0.035017127413 0)
(0.946441606145 -0.0528941545877 0)
(0.955173111759 -0.0755440647247 0)
(0.966870032003 -0.0954637194491 0)
(0.978901394427 -0.116891005775 0)
(0.989943732898 -0.139208530415 0)
(0.999755573361 -0.160946948886 0)
(1.00965686653 -0.179775530563 0)
(1.02399263718 -0.193101943064 0)
(1.05037057406 -0.200400953616 0)
(1.09726816003 -0.208473604482 0)
(1.16429163611 -0.235795049206 0)
(1.22827042327 -0.310169146496 0)
(1.24532357752 -0.442470930529 0)
(1.18904449104 -0.58978072021 0)
(0.898092759731 0.292842992667 0)
(0.967757086213 -0.0027093962569 0)
(0.958671498197 0.00575368125598 0)
(0.964069412516 -0.0316822101034 0)
(0.970300337543 -0.0486387000317 0)
(0.975993780076 -0.0686685763969 0)
(0.984778806558 -0.0887311213813 0)
(0.993601103829 -0.110780339638 0)
(1.00191877547 -0.134047452483 0)
(1.00980176561 -0.156933429513 0)
(1.01869048386 -0.177499113029 0)
(1.03237464149 -0.194097378936 0)
(1.05624174038 -0.207733496002 0)
(1.09421211622 -0.225677745231 0)
(1.1413230508 -0.262521962111 0)
(1.17759966497 -0.334046089054 0)
(1.17620746656 -0.438290118811 0)
(1.12711867432 -0.542884458201 0)
(0.956573929371 0.351039009611 0)
(0.976586871435 0.00532636561182 0)
(0.984738399217 0.00767602282936 0)
(0.984477597968 -0.025569505268 0)
(0.991683025659 -0.0445720899287 0)
(0.994981703801 -0.0654540463427 0)
(1.00139274671 -0.0865098270255 0)
(1.00752594112 -0.10895707868 0)
(1.01347188003 -0.132284658916 0)
(1.01952783843 -0.155267415864 0)
(1.02708449859 -0.176657537402 0)
(1.03915726223 -0.195796258523 0)
(1.059024002 -0.214628672619 0)
(1.08735620234 -0.239694157436 0)
(1.11751549327 -0.281029359101 0)
(1.13436754922 -0.345730962262 0)
(1.12274306847 -0.427092953798 0)
(1.07995083565 -0.50341358778 0)
(1.00549680351 0.361226515965 0)
(0.986986267528 0.0154452060452 0)
(1.00746914862 0.0115736421583 0)
(1.00276628153 -0.0170143096795 0)
(1.01039477578 -0.0376140733833 0)
(1.01184328421 -0.0589917427311 0)
(1.01625343823 -0.0807778020113 0)
(1.0201341117 -0.10347760956 0)
(1.0239838654 -0.126786899591 0)
(1.02824560821 -0.149858433009 0)
(1.03410179924 -0.172025206921 0)
(1.04371161724 -0.193396500455 0)
(1.05862377751 -0.216217456641 0)
(1.07759303432 -0.245676161946 0)
(1.09416892886 -0.287767321149 0)
(1.09789311932 -0.344401552321 0)
(1.08080599705 -0.408346496896 0)
(1.04328862279 -0.465850777751 0)
(1.04902816363 0.367206081561 0)
(0.99616148097 0.0249380992848 0)
(1.02633685443 0.0132105859581 0)
(1.01778685981 -0.0101877597125 0)
(1.02544116156 -0.0319145454991 0)
(1.02551183332 -0.0532404360321 0)
(1.02829196736 -0.0753538324753 0)
(1.03036935776 -0.0979863860088 0)
(1.03245495357 -0.121090988554 0)
(1.03503965263 -0.144121043944 0)
(1.03898812447 -0.166877569194 0)
(1.04565553669 -0.189889331812 0)
(1.05536038412 -0.21526389087 0)
(1.06601426999 -0.246589572997 0)
(1.0722500456 -0.286944766473 0)
(1.06734704442 -0.33559019742 0)
(1.04754383647 -0.386474511187 0)
(1.01421738297 -0.431027959771 0)
(1.07181112523 0.361702011635 0)
(1.00453423145 0.0327495349741 0)
(1.03619229363 0.0128805216283 0)
(1.02623123634 -0.00547305607611 0)
(1.03311217122 -0.0275346794433 0)
(1.03242256229 -0.048175980252 0)
(1.03397693138 -0.0700531294769 0)
(1.0347992359 -0.0922427573141 0)
(1.0355332141 -0.114959526584 0)
(1.03668758369 -0.137807567361 0)
(1.03880167716 -0.160910948255 0)
(1.04262720911 -0.184939760119 0)
(1.04784490316 -0.211492626225 0)
(1.05222028724 -0.243007559018 0)
(1.05162251493 -0.280559528413 0)
(1.04180213718 -0.32257254815 0)
(1.02107030966 -0.364280996389 0)
(0.991077415048 -0.400271882243 0)
(1.08144802768 0.353614205967 0)
(1.01131317071 0.0360262929692 0)
(1.0406609055 0.012780841127 0)
(1.03055802347 -0.00290550751089 0)
(1.03646381455 -0.0246444822305 0)
(1.03545832553 -0.0447205063423 0)
(1.03611518871 -0.0662294025849 0)
(1.03605870798 -0.088012394206 0)
(1.03576439908 -0.110337036005 0)
(1.03572572784 -0.132988641446 0)
(1.03612723329 -0.156214870579 0)
(1.03737185167 -0.180494826146 0)
(1.03868327531 -0.207036796516 0)
(1.0380774442 -0.237219688537 0)
(1.03256022508 -0.271147773163 0)
(1.01957622625 -0.30709980046 0)
(0.99870367358 -0.341598134449 0)
(0.971473794273 -0.371063273624 0)
(1.0856557004 0.335399596426 0)
(1.01628376921 0.0365186388829 0)
(1.04186810861 0.0114240714449 0)
(1.03221306765 -0.00300927681934 0)
(1.03659766941 -0.0244425978817 0)
(1.03525599181 -0.0441146199301 0)
(1.03493638149 -0.0653993565646 0)
(1.03402378493 -0.0868587400049 0)
(1.03265278225 -0.108927852716 0)
(1.03127283304 -0.131375859815 0)
(1.02988660737 -0.15448644316 0)
(1.0285054551 -0.178441527124 0)
(1.02624685704 -0.204083410941 0)
(1.02149518775 -0.231805117275 0)
(1.01225473887 -0.261406681555 0)
(0.997226753209 -0.291205664353 0)
(0.976707779751 -0.319012125562 0)
(0.95214943054 -0.342492237133 0)
(1.0863936308 0.320258572618 0)
(1.02037794875 0.0364639589724 0)
(1.04159157382 0.0107526589566 0)
(1.03297540632 -0.00330593325507 0)
(1.03540922722 -0.0238498532181 0)
(1.03363042591 -0.0427536629487 0)
(1.03208592973 -0.0631526711929 0)
(1.03011884756 -0.083792912408 0)
(1.02743658183 -0.105030881479 0)
(1.0245589208 -0.126727769129 0)
(1.02121495933 -0.148959401956 0)
(1.01729284467 -0.171880079532 0)
(1.01195649193 -0.195653622176 0)
(1.00398468337 -0.220456478068 0)
(0.992199432132 -0.245595665151 0)
(0.976095458658 -0.269970130062 0)
(0.956357629713 -0.29200194312 0)
(0.9342715064 -0.310454079524 0)
(1.08012937377 0.284451535358 0)
(1.02329594993 0.0306485746146 0)
(1.03922269878 0.00624090139353 0)
(1.03237510047 -0.0077758600612 0)
(1.03286395515 -0.0267481677939 0)
(1.03067089594 -0.044421675603 0)
(1.02785123123 -0.0631938405028 0)
(1.0247686467 -0.0822366502259 0)
(1.02069239261 -0.101770637901 0)
(1.01623425999 -0.121754778042 0)
(1.01097516789 -0.142165969581 0)
(1.00482830019 -0.16296371424 0)
(0.99703871037 -0.184091850821 0)
(0.986853421723 -0.205423586593 0)
(0.973630667673 -0.226281635364 0)
(0.957313590744 -0.245858641112 0)
(0.938716161492 -0.263153463551 0)
(0.918918698804 -0.277475683401 0)
(1.07053980958 0.256960547381 0)
(1.02319351643 0.0269049155063 0)
(1.03431832813 0.00419550410608 0)
(1.02936755546 -0.00946868925413 0)
(1.02814662812 -0.0268759977496 0)
(1.02556799589 -0.0431062627531 0)
(1.02156824559 -0.0600987607465 0)
(1.01736527053 -0.0771843206482 0)
(1.01191855774 -0.0946631358934 0)
(1.00592966959 -0.112382702417 0)
(0.998958090913 -0.130409856517 0)
(0.990944268755 -0.148474121453 0)
(0.981395022364 -0.166551561489 0)
(0.969857866218 -0.184263824356 0)
(0.956056897165 -0.201222222409 0)
(0.940146893699 -0.216719061949 0)
(0.922914836102 -0.230261772967 0)
(0.905226730503 -0.241328690538 0)
(1.05390126797 0.227432670924 0)
(1.02171016932 0.0232096222598 0)
(1.02597392709 0.00307611393992 0)
(1.023499237 -0.00960160295523 0)
(1.02063537312 -0.0249163369048 0)
(1.01785132711 -0.0393775432237 0)
(1.0128613998 -0.0542389075283 0)
(1.00773649099 -0.0691273183459 0)
(1.00115607121 -0.0842028600998 0)
(0.993933877005 -0.0993712352755 0)
(0.985640795768 -0.11461851431 0)
(0.976335025356 -0.129695153896 0)
(0.965721737189 -0.144482174224 0)
(0.953569819242 -0.158719278761 0)
(0.939797700181 -0.172078853745 0)
(0.924644038377 -0.18414152976 0)
(0.908822787954 -0.194566522445 0)
(0.893010198492 -0.203064140126 0)
(1.03684252343 0.199080507066 0)
(1.02079120263 0.014468601152 0)
(1.01805754015 0.00153029356076 0)
(1.01772681019 -0.0104898887275 0)
(1.01334695288 -0.0224295488126 0)
(1.01017053025 -0.0344666871451 0)
(1.00429814311 -0.0464883288789 0)
(0.998309829346 -0.0585469160487 0)
(0.990781665802 -0.070719984681 0)
(0.982600663613 -0.0828171800711 0)
(0.973376642411 -0.094924684327 0)
(0.963268784125 -0.106694504677 0)
(0.952122327548 -0.118126312325 0)
(0.939828298753 -0.128950286632 0)
(0.926398738222 -0.13903143923 0)
(0.912090214354 -0.148037896037 0)
(0.897538764574 -0.155832133967 0)
(0.883298118866 -0.162164532195 0)
(1.03770169804 0.172576125398 0)
(1.01680548512 0.00394725357111 0)
(1.01668412806 -0.00227528938461 0)
(1.0143359204 -0.0130353062817 0)
(1.01017934808 -0.0216055652324 0)
(1.00603100256 -0.031207941393 0)
(0.999684144721 -0.0403968129645 0)
(0.992927719368 -0.0499111017955 0)
(0.98480936519 -0.0593009293077 0)
(0.976054086247 -0.0687985432867 0)
(0.966356029323 -0.0780972928245 0)
(0.955934550928 -0.0872257413308 0)
(0.94465799498 -0.0959066005583 0)
(0.932485451965 -0.104179836217 0)
(0.91944837815 -0.111734547085 0)
(0.905783448247 -0.118560523964 0)
(0.892088380897 -0.124363863982 0)
(0.878858925607 -0.129193925319 0)
(1.04451016447 0.169214885461 0)
(1.01743887239 0.00898578644146 0)
(1.02012232643 0.00553064321366 0)
(1.01611022166 -0.0032589866599 0)
(1.01198635774 -0.00933182843036 0)
(1.00704388081 -0.0167844816535 0)
(1.00023916429 -0.0238463768142 0)
(0.992957181304 -0.0314057820047 0)
(0.984390917425 -0.038897087611 0)
(0.975251254658 -0.0465523497699 0)
(0.965270858736 -0.0540617241898 0)
(0.95464973699 -0.0614928738257 0)
(0.94334026802 -0.0685720210111 0)
(0.931307139825 -0.0753334469441 0)
(0.918561880457 -0.081489222053 0)
(0.905367444437 -0.0870475593356 0)
(0.892204057523 -0.0917904024374 0)
(0.879516063924 -0.0957450634622 0)
(1.04906944222 0.0286826073852 0)
(1.01780450356 -0.0574799221193 0)
(1.02581624198 -0.0574208319151 0)
(1.02048864898 -0.0625038909698 0)
(1.01694340115 -0.0650645187937 0)
(1.01126006666 -0.0690958771221 0)
(1.0042043626 -0.0729575202307 0)
(0.996438313767 -0.0771633149574 0)
(0.987628784455 -0.0815318790824 0)
(0.978268499606 -0.0859405538956 0)
(0.968169427176 -0.0904618136897 0)
(0.957542553691 -0.0947617600056 0)
(0.94634818716 -0.0989034361068 0)
(0.934600330141 -0.102666077367 0)
(0.922331625305 -0.106098262387 0)
(0.909718083674 -0.108913056661 0)
(0.897296959498 -0.111230280563 0)
(0.885635692031 -0.112929740557 0)
(1.08458055301 0.610066551599 0)
(1.02745468617 0.209602360904 0)
(1.03104768299 0.217403523958 0)
(1.02465760715 0.205979020859 0)
(1.02106624894 0.200947194182 0)
(1.01465165601 0.192750290395 0)
(1.00732975336 0.184816666029 0)
(0.999177286929 0.176013594928 0)
(0.990018875366 0.166949326555 0)
(0.98026817353 0.157480408266 0)
(0.969735892644 0.147768905001 0)
(0.958712655489 0.137661212284 0)
(0.947265259172 0.1273346325 0)
(0.935311449214 0.117076814367 0)
(0.922874464542 0.107053223601 0)
(0.910047626673 0.097321349471 0)
(0.897087874284 0.0879446724561 0)
(0.883783313607 0.0791027172297 0)
(0.981541093377 -1.96524865037 0)
(0.998941419147 -0.770584891729 0)
(1.05449080826 -0.774759294058 0)
(1.04075654302 -0.750424744505 0)
(1.039465127 -0.732497226961 0)
(1.031771453 -0.715437366188 0)
(1.02438623436 -0.698609687894 0)
(1.01593796099 -0.68240899093 0)
(1.00686482358 -0.666143591555 0)
(0.997346739404 -0.649801122675 0)
(0.987520844988 -0.633214556582 0)
(0.977263046917 -0.615927760098 0)
(0.966632684135 -0.598078921479 0)
(0.955808468868 -0.580030470368 0)
(0.944846811309 -0.561685923789 0)
(0.933847076179 -0.542985968929 0)
(0.923519730213 -0.523836132301 0)
(0.914805390446 -0.504709099595 0)
(1.4327797932 6.54472493674 0)
(1.10379357591 1.8249938036 0)
(1.02208478794 1.84699298346 0)
(1.02769122164 1.77081699556 0)
(1.01970231992 1.72785409742 0)
(1.0120613124 1.67335868184 0)
(1.00361826512 1.6224031919 0)
(0.994340636946 1.57052842148 0)
(0.98439227289 1.51903933664 0)
(0.97377630438 1.46730948711 0)
(0.962152614526 1.41524736068 0)
(0.950318751664 1.36225130542 0)
(0.938237307171 1.30890621754 0)
(0.925705614928 1.2554528962 0)
(0.912759293203 1.20213672567 0)
(0.899592345475 1.14941092157 0)
(0.885990459663 1.09781716067 0)
(0.873202291629 1.04809133891 0)
(-0.0345528504202 -16.0726950229 0)
(0.907893285293 -3.344387623 0)
(1.12399549613 -3.23114257409 0)
(1.08005131093 -3.09154311868 0)
(1.08943120392 -2.98073042133 0)
(1.07817165117 -2.86737745804 0)
(1.07298311798 -2.76213666393 0)
(1.06514603299 -2.66100579047 0)
(1.05712305204 -2.56438050868 0)
(1.0481323438 -2.47192539126 0)
(1.03827981823 -2.38354646426 0)
(1.02706999868 -2.29981406024 0)
(1.01491261476 -2.2208078844 0)
(1.00197799836 -2.14534525584 0)
(0.988557857942 -2.0729953358 0)
(0.97478685898 -2.0034002963 0)
(0.961289986557 -1.93654788139 0)
(0.942490181287 -1.87318844576 0)
(3.67250508904 31.4474796482 0)
(1.16629495213 4.65661027303 0)
(1.03735108162 4.04086826872 0)
(1.03980065566 3.9465074531 0)
(1.02404382898 3.76366635592 0)
(1.01476028596 3.59327219862 0)
(1.00224509626 3.43313990811 0)
(0.990509137136 3.27920590326 0)
(0.978528453526 3.13543907055 0)
(0.966856888593 3.00193184624 0)
(0.955980082258 2.88024869952 0)
(0.946222917962 2.77248336985 0)
(0.937717998788 2.67845470319 0)
(0.931105858664 2.59695254363 0)
(0.926885010922 2.52811033446 0)
(0.925273091124 2.47172663889 0)
(0.925631799579 2.42658177333 0)
(0.933920010751 2.39041241827 0)
(-3.07051642412 -46.2814892282 0)
(1.38545154299 -6.10389131238 0)
(0.995540037824 -4.9226925476 0)
(1.11064198228 -4.914595956 0)
(1.08062737313 -4.61040505417 0)
(1.07267708507 -4.40535395683 0)
(1.06599806104 -4.19885825411 0)
(1.05596177056 -4.01226969559 0)
(1.04608969042 -3.84199629945 0)
(1.03458984561 -3.68862486413 0)
(1.02187610864 -3.55201367579 0)
(1.00837631012 -3.43110349836 0)
(0.993893625398 -3.32451157716 0)
(0.978439016078 -3.23274760393 0)
(0.962377666508 -3.15695249445 0)
(0.945591699912 -3.09796944816 0)
(0.927782939146 -3.05543569025 0)
(0.902895198532 -3.02878397572 0)
(4.33255557203 54.6846660258 0)
(0.59669278621 8.03357826905 0)
(1.36537804186 7.65148628033 0)
(1.11860076911 7.31793778887 0)
(1.18261799589 6.94180198768 0)
(1.15423421735 6.63605118258 0)
(1.15222787306 6.33776923902 0)
(1.14439530979 6.06736031703 0)
(1.13794481196 5.81799363061 0)
(1.13125775282 5.58992087312 0)
(1.1244886922 5.38105758889 0)
(1.11774066072 5.18817160834 0)
(1.11041899955 5.00852511514 0)
(1.10120420284 4.8399087371 0)
(1.08942654579 4.67926940003 0)
(1.07504616553 4.52398488713 0)
(1.05729616043 4.37419411284 0)
(1.04188576152 4.23544542186 0)
(0.494736811151 -56.5633332377 0)
(0.944123101948 -10.5506761034 0)
(0.75795542631 -10.3484436637 0)
(0.804572482218 -9.72220125889 0)
(0.785068482698 -9.30868984711 0)
(0.787715570434 -8.88180786552 0)
(0.783624335179 -8.49310977128 0)
(0.781940119238 -8.12940555724 0)
(0.78043616897 -7.79065045018 0)
(0.779260644836 -7.47310787249 0)
(0.777843997103 -7.17333202367 0)
(0.775468916403 -6.88804547153 0)
(0.771827333123 -6.61522493241 0)
(0.766462448504 -6.35322392296 0)
(0.759225925765 -6.10115047861 0)
(0.751407250515 -5.85762871378 0)
(0.747909738663 -5.61448567921 0)
(0.74968101682 -5.34539746024 0)
(-0.125315828354 -0.0891497765675 -8.13870111646e-20)
(-0.16515317288 -0.177657366111 0)
(-0.305042412846 -0.233685815157 0)
(-0.373906327227 -0.227635809971 0)
(-0.370648998218 -0.200158034216 0)
(-0.341214656498 -0.166715703498 4.04457412157e-20)
(-0.304746643251 -0.149882901037 0)
(-0.273023703376 -0.136842568033 0)
(-0.249369617974 -0.125187865554 -1.48408594281e-20)
(-0.231083517301 -0.112718055594 0)
(-0.216509130431 -0.098194189635 1.10670127909e-20)
(-0.204389443762 -0.081223905485 0)
(-0.194038726625 -0.0621475354381 9.38211052269e-21)
(-0.185068202666 -0.0415859371254 8.84901854906e-21)
(-0.177241863106 -0.0204150812686 0)
(-0.170444375725 0.000557291883567 -8.04785696442e-21)
(-0.164535935453 0.0205086657863 -7.719191419e-21)
(-0.159413710204 0.0387959382188 -7.41939281819e-21)
(-0.154910996348 0.0548259639338 0)
(-0.150911687536 0.0681844376874 0)
(-0.147246651732 0.0785257556056 0)
(-0.143785978661 0.085630126161 0)
(-0.140393387998 0.089337441275 0)
(-0.136969771093 0.0895859577283 0)
(-0.133399524922 0.0863494669072 5.68083599442e-21)
(-0.129622171595 0.0796663103949 5.47069574785e-21)
(-0.125572261485 0.0696250331871 0)
(-0.121210793831 0.0563509470536 -5.07975162091e-21)
(-0.116488981272 0.0400061899614 -4.89944100925e-21)
(-0.111387695704 0.0207701926141 -4.7289010225e-21)
(-0.105876097323 -0.00114433786388 0)
(-0.0999414942591 -0.0255272380797 0)
(-0.093565260489 -0.0521522570456 4.27372198001e-21)
(-0.0867533205798 -0.0808034139752 0)
(-0.0794900436538 -0.111258019236 0)
(-0.0717851351966 -0.143330476737 3.88841895953e-21)
(-0.0636540249982 -0.176821036615 0)
(-0.0551119333631 -0.211574760188 0)
(-0.0461725582862 -0.247445344319 0)
(-0.036864719625 -0.284331884711 0)
(-0.0272146197395 -0.322136565636 0)
(-0.0172574824355 -0.36081058361 -6.49613508128e-21)
(-0.00702384421174 -0.400305688159 0)
(0.00344774922823 -0.44062260014 0)
(0.014128970924 -0.481759780392 -5.92672313506e-21)
(0.0249822688123 -0.5237652699 -5.74260746777e-21)
(0.0359805954155 -0.566678029965 0)
(0.0470884715769 -0.610587415608 0)
(0.0582827824418 -0.655564838278 -5.20834842761e-21)
(0.0695400490875 -0.701738619512 0)
(0.0808384265696 -0.749211205805 4.86555773969e-21)
(0.0921660200981 -0.798141869103 0)
(0.103498930188 -0.8486487898 -4.53516674585e-21)
(0.114832849726 -0.90088368625 0)
(0.126153503917 -0.954949974067 -4.21844267597e-21)
(0.137477236232 -1.01098882737 -4.06520436742e-21)
(0.148788136137 -1.06910671347 0)
(0.160102577466 -1.12943921397 0)
(0.171409289757 -1.19210604036 0)
(0.182722132276 -1.25722473121 -3.4948776941e-21)
(0.193981335405 -1.32485879168 0)
(0.205107320907 -1.39493726922 0)
(0.215998516505 -1.46718677934 0)
(0.226310023597 -1.54077065209 0)
(0.235913236305 -1.61226325541 0)
(0.244974402536 -1.67878667924 0)
(0.253604905025 -1.73951704441 0)
(0.261888901282 -1.79402125355 2.67825506149e-21)
(0.26994856964 -1.84222700215 0)
(0.277886519773 -1.8843496609 2.60717377706e-21)
(0.285832109135 -1.92080353773 2.59782240659e-21)
(0.293910175684 -1.95216809266 0)
(0.302252330971 -1.97907359722 -2.62994473113e-21)
(0.310992365706 -2.00220810005 0)
(0.320255707226 -2.02221559355 2.72760466788e-21)
(0.330192744399 -2.0397426612 0)
(0.340924893631 -2.05535015255 -2.88760123772e-21)
(0.352612049023 -2.06956983991 2.99096549566e-21)
(0.365387698976 -2.0828738157 0)
(0.37942680169 -2.09570090022 0)
(0.394891706262 -2.10847536964 0)
(0.411989180322 -2.12159327284 0)
(0.430877887972 -2.13546450486 3.76650485503e-21)
(0.451785305673 -2.15043640488 -3.98173825278e-21)
(0.474901384554 -2.16690679005 8.43534304677e-21)
(0.500379704273 -2.18512504252 8.95647618227e-21)
(0.52842269333 -2.20534818063 9.52344814572e-21)
(0.558896113237 -2.22761764029 0)
(0.591962323181 -2.2515144603 0)
(0.627059123701 -2.27671505331 0)
(0.663409043514 -2.30145623755 1.25625794755e-20)
(0.700907496052 -2.32443016868 0)
(0.739469338656 -2.34405810715 0)
(0.778837237755 -2.35924072908 1.65395986969e-20)
(0.818471797589 -2.36715655917 0)
(0.857898388514 -2.36318583464 -2.02848431759e-20)
(0.897817052831 -2.34181757491 0)
(0.939828656994 -2.30070667403 2.51961587419e-20)
(0.983147263709 -2.23945738259 0)
(1.02337258508 -2.16388057318 0)
(1.05447440102 -2.07313608671 0)
(1.08081034319 -1.93504599825 4.25127938186e-20)
(1.10222059318 -1.74283819076 0)
(1.14352623409 -1.51936112168 6.21299536981e-20)
(1.25827210565 -1.16969305929 8.11491811775e-20)
(1.31014436434 -0.77089662279 0)
(0.803895917794 -0.196195831156 0)
(0.571369949985 0.30451629732 0)
(0.500035337296 0.560439904031 6.73423434212e-20)
(0.450733035692 0.780554490225 0)
(0.418785591191 0.967296095874 0)
(0.397931762324 1.12670302017 3.24485795898e-20)
(0.382929600973 1.26227822113 2.77337724933e-20)
(0.371465385399 1.3772795052 0)
(0.36239535568 1.47492986401 -2.15310840715e-20)
(0.354831714078 1.55750659501 -1.93730674006e-20)
(0.348401487898 1.62698836763 1.7607209598e-20)
(0.342856179412 1.68475280669 0)
(0.338015304676 1.73191223377 0)
(0.333700807416 1.76916598362 0)
(0.329717348089 1.79702884752 -1.28029041219e-20)
(0.325909044104 1.81590658944 0)
(0.322215195306 1.82601790422 -1.11271427238e-20)
(0.318617464341 1.82770096445 0)
(0.315074409859 1.82139386375 0)
(0.311519457972 1.80751968935 0)
(0.307895523631 1.78667336936 8.45803881261e-21)
(0.30416588805 1.75935654005 7.87930366698e-21)
(0.300358560771 1.7273420235 0)
(0.296463994662 1.69383606681 0)
(0.292558238522 1.6591495256 0)
(0.288698459763 1.62316977594 0)
(0.284896426519 1.58573108474 0)
(0.281172422003 1.54654292941 0)
(0.277552719297 1.50537422006 9.4656263226e-21)
(0.274089442979 1.46187875263 0)
(0.270850972911 1.41574064171 0)
(0.267926270229 1.36651921634 0)
(0.265367900466 1.31376018755 -6.67432938079e-21)
(0.263181061887 1.25684327374 -5.97318726008e-21)
(0.261352716463 1.19520396316 5.22760512598e-21)
(0.259884095094 1.12827043166 4.40661565773e-21)
(0.258867010728 1.05576094564 0)
(0.258417558392 0.977432477364 0)
(0.258610033001 0.893299314163 0)
(0.259443837341 0.803399345213 2.51785422945e-22)
(0.26089226678 0.708130458361 0)
(0.26289838606 0.608121322861 0)
(0.265343056746 0.504473564243 3.89696546629e-21)
(0.26802474 0.398251778156 0)
(0.270712469999 0.290716012852 7.30233690727e-21)
(0.27327422163 0.183169800127 0)
(0.275771230588 0.0773946535093 1.13734137828e-20)
(0.278298818886 -0.0246230937246 0)
(0.280815674329 -0.120312777854 0)
(0.283329553603 -0.206830939763 0)
(0.285951950337 -0.280700048972 0)
(0.288764638867 -0.338433261037 0)
(0.291701362154 -0.376621273249 0)
(0.294526184238 -0.393418789999 0)
(0.29712003446 -0.387712616427 0)
(0.299830689051 -0.359751333951 3.98686817513e-20)
(0.303292349711 -0.309817227967 0)
(0.307687508911 -0.241728610097 0)
(0.312739016206 -0.159715342424 4.89794942773e-20)
(0.317675500029 -0.0668362701827 0)
(0.322043420504 0.0346625539072 0)
(0.325264738441 0.143219621029 5.58712533775e-20)
(0.327016438732 0.258106375978 0)
(0.327509410615 0.378863178544 0)
(0.327599503422 0.50480378109 6.15893404111e-20)
(0.32878320955 0.634025237804 -6.26210098911e-20)
(0.333173605751 0.761948141331 6.27546049597e-20)
(0.342621873691 0.876847740797 0)
(0.35697401538 0.964478488754 0)
(0.374634848076 1.0072986818 1.16105672966e-19)
(0.390713572248 0.988669324075 0)
(0.394125211623 0.903768124284 -1.14486799536e-19)
(0.373961991543 0.761852807152 -1.21233780043e-19)
(0.321325829857 0.611921568406 0)
(-0.310299893061 0.21317856459 2.48121370608e-19)
(-0.459828175145 0.147132268885 0)
(-0.640145645534 -0.00337793725892 -7.22224299891e-20)
(-0.581133033319 -0.127586310081 4.36566943429e-20)
(-0.424851975557 -0.182681429114 2.94020083091e-20)
(-0.262567237617 -0.195206771389 -1.33791256677e-20)
(-0.137447329362 -0.188164714623 -1.73636898679e-20)
(-0.0521690612981 -0.174243757794 0)
(0.00208122514956 -0.158611385238 8.28694095999e-21)
(0.034591963053 -0.14358160598 -1.24234415677e-20)
(0.0527663666415 -0.130200924216 -1.90615895152e-20)
(0.0620633862263 -0.118912125193 1.15379211926e-20)
(0.0662409953369 -0.109916295453 -1.79277576363e-20)
(0.0678239704777 -0.103169347086 -6.5146910386e-21)
(0.0684872237091 -0.0985347291367 0)
(0.0692743578816 -0.0957066932253 6.25650697745e-21)
(0.0708441388582 -0.0943439045005 6.13254872779e-21)
(0.0735315805756 -0.09400941489 6.00693107245e-21)
(0.0775022468228 -0.0942844254831 -9.78071205606e-21)
(0.0827674926604 -0.0947221834817 0)
(0.0892638773291 -0.0949292835237 -9.24255638632e-21)
(0.0968486164046 -0.094526837152 0)
(0.10537811631 -0.0932025270565 8.68861361925e-21)
(0.11467575607 -0.0906819806851 0)
(0.124574580952 -0.0867524405409 -1.31410796167e-20)
(0.134912294713 -0.0812496455452 2.99543190406e-21)
(0.145548963471 -0.0740556668735 7.58698897526e-21)
(0.156348406588 -0.0651022248795 1.19003280608e-20)
(0.167207595471 -0.0543526687918 4.44306700111e-21)
(0.178034679827 -0.0418188159537 4.31289470622e-21)
(0.188765997829 -0.0275266123333 0)
(0.199336513371 -0.0115480006065 6.33554700841e-21)
(0.209713498831 0.00604824280327 -3.95547935733e-21)
(0.219872696787 0.0251517412024 0)
(0.229798631828 0.0456696495991 0)
(0.2394811296 0.0674723297337 -3.64208839462e-21)
(0.248927769989 0.0904612036372 0)
(0.258145345994 0.114510363982 0)
(0.267150545289 0.139532365631 0)
(0.275964547577 0.165418212558 0)
(0.284610408977 0.192106333876 0)
(0.29311058349 0.219517405823 -2.44385835979e-21)
(0.301489753417 0.247625338564 -8.28055116042e-21)
(0.309769480616 0.27638615272 0)
(0.317973944968 0.305813974602 -1.85807644937e-21)
(0.326121734412 0.335900651379 5.54057203872e-21)
(0.334230684401 0.366701172678 0)
(0.342312247567 0.398242192661 0)
(0.350375567121 0.43061596925 1.12154198867e-20)
(0.358426122525 0.463877764679 5.80394589759e-21)
(0.366464469299 0.498149725036 -4.7572001091e-21)
(0.374496066757 0.533508223808 -5.12510848058e-21)
(0.382523325552 0.570090813549 -3.35120039763e-22)
(0.390556627509 0.607995542932 0)
(0.398586161475 0.647372943222 8.31618988066e-21)
(0.406603373272 0.688331943195 4.0303343223e-21)
(0.414579447449 0.731014035567 0)
(0.42248255885 0.775535247534 -3.22549493407e-21)
(0.430247894713 0.822030195606 2.93726926678e-21)
(0.43782511061 0.87062283805 3.50498415456e-21)
(0.445204420512 0.921444864544 0)
(0.452368721061 0.974663636008 0)
(0.459401668631 1.03045928367 0)
(0.466597192471 1.0876416909 -1.65222194151e-21)
(0.473624336725 1.13984240272 0)
(0.480040507488 1.18493254363 1.12388953342e-21)
(0.485663938128 1.22268910014 0)
(0.490347892877 1.25318942223 -2.13426009612e-21)
(0.493978366037 1.27676058448 0)
(0.496464585372 1.29390089398 -2.56058721436e-21)
(0.497758161303 1.30522577002 -2.77206219492e-21)
(0.497845894055 1.31134414179 0)
(0.49675083518 1.31285138102 2.6735813999e-21)
(0.494538450224 1.31021777716 0)
(0.491288977968 1.30383053347 -2.77195318364e-21)
(0.487119072902 1.29392877677 0)