/*--------------------------------*- C++ -*----------------------------------*\
| =========                 |                                                 |
| \\      /  F ield         | OpenFOAM: The Open Source CFD Toolbox           |
|  \\    /   O peration     | Version:  v1806                                 |
|   \\  /    A nd           | Web:      www.OpenFOAM.com                      |
|    \\/     M anipulation  |                                                 |
\*---------------------------------------------------------------------------*/
FoamFile
{
    version     2.0;
    format      ascii;
    class       volScalarField;
    location    "17";
    object      pa;
}
// * * * * * * * * * * * * * * * * * * * * * * * * * * * * * * * * * * * * * //

dimensions      [0 2 -2 0 0 0 0];


internalField   nonuniform List<scalar> 
12225
(
-26.7764649256
-27.5188927219
-26.5897817188
-26.8337229764
-26.6886428195
-26.6532953147
-26.4347379901
-25.9327200623
-24.9942543743
-23.6409861728
-22.0540533871
-20.6548251134
-19.9578791159
-19.93926877
-18.8269230898
-12.7872581949
-0.644826212238
2.91833375016
-8.34932321559
-15.3750643627
-15.3517244112
-15.1609213614
-14.7535855315
-14.2224980795
-13.4486898981
-12.354700044
-10.9095943246
-9.22132303261
-7.51585822305
-6.17997509301
-5.53419039399
-5.16224851036
-3.08820446142
3.5260040512
12.7356862852
9.17981863856
-29.3680601374
-21.6957357221
-22.1758226658
-22.2668391247
-22.2570071458
-22.0773290109
-21.6312470123
-20.8627555578
-19.771391639
-18.4948260537
-17.2758674214
-16.4683823782
-16.2575935269
-16.0560413236
-13.9758962063
-8.04468131524
-0.952808260087
-3.04098353993
-10.1933322858
-18.4093440062
-18.8812458967
-18.8361466677
-18.7332559131
-18.4660947403
-17.9546449474
-17.1478037999
-16.0716999797
-14.8742879632
-13.8169593523
-13.2375349537
-13.2593549723
-13.3329990376
-12.0714794128
-8.6457806171
-5.78912550925
-8.93515961236
-29.1540589743
-21.6450482616
-20.7376270363
-20.9334760476
-20.7879164169
-20.5494141907
-20.0458382963
-19.2627724757
-18.2111193468
-17.0130733875
-15.8815147336
-15.0628095807
-14.5768892193
-13.9379289512
-12.3151870568
-9.80701871954
-8.81916728302
-11.8643488197
-14.1761653276
-19.5928256177
-19.6048520484
-19.5986026984
-19.5026549332
-19.3150458645
-18.9406490082
-18.369611192
-17.6251524455
-16.8090027942
-16.0772341007
-15.5635774023
-15.1785045125
-14.4929116679
-13.0761208609
-11.4373604383
-11.3372798741
-13.7969571554
-21.6421286024
-20.4166041257
-20.0502465773
-19.9615075063
-19.7394709935
-19.4391962336
-18.9813960693
-18.3785962123
-17.671371453
-16.9589292804
-16.3634108537
-15.9481753873
-15.5833130902
-14.9488048314
-13.8945772791
-12.9944627023
-13.3459220501
-15.2646180116
-19.1764149916
-20.1946818081
-19.9097017082
-19.8256610628
-19.6136354709
-19.3310286978
-18.9117230933
-18.3772751268
-17.7728145276
-17.1864211042
-16.7070991774
-16.3539503357
-16.0046922495
-15.46609142
-14.7631547922
-14.3821357844
-14.9323837981
-16.4459658443
-19.7216004294
-20.0877430269
-19.8482789837
-19.7268992257
-19.5102688862
-19.2317598119
-18.8493439766
-18.385191423
-17.8835749285
-17.4151156609
-17.0372499924
-16.7428846456
-16.437654753
-16.0315539918
-15.6280381476
-15.5796363095
-16.1932304598
-17.4121998468
-19.7283709002
-19.9979016975
-19.7767397992
-19.6397895624
-19.4276550481
-19.1628280361
-18.8221471847
-18.427965932
-18.0207912166
-17.6539491925
-17.3609567273
-17.1249427762
-16.8859586604
-16.6222555636
-16.4518843965
-16.6035186873
-17.2157379098
-18.2199790008
-19.7913600159
-19.9035270679
-19.7122385677
-19.5682135722
-19.3720444878
-19.1299941433
-18.83623491
-18.5110424277
-18.1895363678
-17.9096405832
-17.689438645
-17.5131575262
-17.3512925462
-17.2188446934
-17.2168681387
-17.4812660555
-18.0647126055
-18.9067560435
-19.8298555191
-19.8277139581
-19.6752246738
-19.5337745467
-19.3597322011
-19.1452327918
-18.8971165395
-18.6327366029
-18.3815817831
-18.1705734219
-18.0099740479
-17.8893370373
-17.7994414456
-17.7676049047
-17.8699998234
-18.1861607237
-18.7311554215
-19.4582966847
-19.8330454147
-19.7552139869
-19.6513590248
-19.5187511125
-19.3705559523
-19.1867028299
-18.9837791919
-18.7760562634
-18.587854998
-18.4377994466
-18.3318714621
-18.2665802271
-18.2439422322
-18.2926509746
-18.4659573824
-18.8066099159
-19.3127087355
-19.9458953875
-19.8253787676
-19.6909284351
-19.6388934127
-19.5237692576
-19.407958489
-19.2613896388
-19.1085044485
-18.9599169599
-18.8351985911
-18.7464816876
-18.6993463431
-18.6933205721
-18.7371558564
-18.8541991704
-19.0772687169
-19.4267712336
-19.8899807983
-20.4399355667
-19.816008071
-19.6463618164
-19.640799936
-19.553370839
-19.4749373162
-19.3728690009
-19.2733824966
-19.1854960222
-19.1235552758
-19.0973579304
-19.1094207032
-19.1639474091
-19.2676609643
-19.4373815824
-19.6906706358
-20.0350258918
-20.4554025565
-20.9298679671
-19.7921462363
-19.6197823217
-19.658691919
-19.6054639206
-19.5694113756
-19.5156727062
-19.4716740351
-19.4436362708
-19.4433513361
-19.4764500909
-19.54695693
-19.6560651817
-19.8097545994
-20.0157015977
-20.2841241626
-20.6139985891
-20.9930830833
-21.4019844349
-19.7861583623
-19.6329947487
-19.7092528974
-19.6975696799
-19.7067723408
-19.7040873226
-19.7152919595
-19.7447031215
-19.8013556752
-19.8891948572
-20.0098059631
-20.1637851311
-20.352721833
-20.5807678615
-20.8511849187
-21.1625085638
-21.5016854167
-21.8560600292
-19.8061277738
-19.694683406
-19.8109524448
-19.8466350116
-19.9023174102
-19.9508856533
-20.0144317939
-20.0965821631
-20.2033741663
-20.3370487509
-20.4972959964
-20.6831648824
-20.8939583499
-21.1310809288
-21.3957071242
-21.6855928467
-21.9897119338
-22.2980249202
-19.6714446133
-19.6889802512
-19.8528857641
-19.937505816
-20.0352986066
-20.1284418219
-20.2354439423
-20.3597018667
-20.5047037889
-20.6715640878
-20.857857243
-21.062138992
-21.2818388889
-21.5177748024
-21.770097628
-22.037062271
-22.3085285626
-22.5726911362
-20.5808054043
-20.2862632186
-20.4197947668
-20.521617094
-20.6438753232
-20.767710002
-20.9018406959
-21.0548189641
-21.2233723496
-21.4117448633
-21.6132582004
-21.8282918027
-22.0512898049
-22.2856388885
-22.5291536194
-22.7835010095
-23.0391219572
-23.2979039762
-18.2600764327
-19.1582067947
-19.4570872182
-19.5871227872
-19.7183434803
-19.8506545307
-19.9983727835
-20.1611524198
-20.3417186436
-20.5365046911
-20.745124643
-20.9621810857
-21.1868103649
-21.4168349409
-21.6550865556
-21.8980528906
-22.1361309802
-22.3330245284
-24.4791481373
-21.8355617425
-21.6719402511
-21.7464035693
-21.9012829769
-22.0548500153
-22.2278671054
-22.4103626137
-22.6026554448
-22.8046155228
-23.0114732242
-23.2221111675
-23.4342672375
-23.6492722632
-23.8672153842
-24.0881153333
-24.3100847975
-24.5773418992
-11.7446425867
-17.4750745005
-18.3705870826
-18.4988510979
-18.6235535325
-18.7739450142
-18.9428197128
-19.1281039094
-19.3272811501
-19.5366765989
-19.7565437018
-19.9819654514
-20.2111025182
-20.4425397913
-20.6791195843
-20.9199400895
-21.156213386
-21.2933211462
-34.4587954814
-23.3357726234
-21.9488830067
-21.9957197886
-22.1575575021
-22.330926283
-22.530738144
-22.7389674287
-22.9558172152
-23.1800279084
-23.4091143223
-23.6430077124
-23.8799701365
-24.1204641451
-24.3628425682
-24.6004530369
-24.8219016968
-25.1212310088
0.443939045594
-16.6144855197
-18.9887886757
-18.8799260791
-19.0392080779
-19.2041154373
-19.3916570073
-19.5776846607
-19.7580127991
-19.9299687018
-20.0955783649
-20.2576064358
-20.4192819679
-20.582210036
-20.7481500358
-20.9219825594
-21.1091123711
-21.1911819712
-48.225487442
-24.9686879292
-21.4989189964
-21.8769929744
-22.016365419
-22.247889001
-22.4743087909
-22.7153373057
-22.9621414743
-23.2163619714
-23.4821618232
-23.7648104409
-24.0663438527
-24.3847143672
-24.7098801447
-25.0190249811
-25.2790663205
-25.6097765193
5.24281906895
-15.3126175771
-18.0457351622
-17.7126726076
-17.9529902344
-18.1055468966
-18.308629902
-18.5010608719
-18.695327948
-18.8864167599
-19.0794378867
-19.2778106633
-19.4791400394
-19.6742132206
-19.8472748986
-19.9860658182
-20.1038102218
-20.0929465523
-41.3565248168
-23.2038886798
-22.8208808871
-22.9510779513
-23.1974998654
-23.4048220114
-23.6174875215
-23.8346621039
-24.049996968
-24.2621007619
-24.4720125084
-24.6827051547
-24.8928307414
-25.1004909737
-25.3044839913
-25.5061481031
-25.7131111933
-26.1007376674
-3.98184441252
-14.3287127273
-14.5991290863
-14.8581197007
-15.0530271529
-15.2922017128
-15.5253930573
-15.7719035683
-16.023803737
-16.2786676306
-16.5361516228
-16.7977156591
-17.0633753438
-17.3395191518
-17.6384691793
-17.9774153593
-18.3951593792
-18.6975391292
-28.3631886643
-28.2616318888
-28.2416316343
-28.3468274
-28.379921652
-28.4257436084
-28.4863829219
-28.5592651944
-28.6458811381
-28.7388595827
-28.8339572996
-28.9257191147
-29.0089711384
-29.086768842
-29.1723514094
-29.2590425079
-29.2677827696
-29.2016679271
-29.2108577417
-29.2163870066
-29.2169579644
-29.2072801055
-29.1849028726
-29.1524696406
-29.1100714096
-29.0627338511
-29.0192589989
-28.9848843301
-28.9597382268
-28.9399267427
-28.9202362843
-28.894526182
-28.8592888484
-28.810826072
-28.7495828436
-28.6744338897
-28.5886742641
-28.4923587085
-28.3897019921
-28.2808110215
-28.1697761968
-28.0563144784
-27.9438423953
-27.831823578
-27.7225668008
-27.6153644603
-27.5117318224
-27.4111054008
-27.3140479848
-27.2201662253
-27.1293375104
-27.0414104644
-26.9557470511
-26.8724682493
-26.7907319625
-26.7107590745
-26.6319756076
-26.5546500007
-26.4785564157
-26.4039168579
-26.3310375138
-26.2599306996
-26.1914628989
-26.1252586395
-26.0626999376
-26.0030729992
-25.9478881676
-25.8963048304
-25.8498295528
-25.8074986515
-25.7706782336
-25.7387818894
-25.7125102905
-25.6915705235
-25.6763472437
-25.6668023303
-25.6628942451
-25.6648156824
-25.6722769988
-25.6855097764
-25.7037563103
-25.7258552071
-25.7480342192
-25.7703547108
-25.793646015
-25.8191827707
-25.8470307312
-25.8775937029
-25.9101213033
-25.9447313935
-25.9803939271
-26.0172818602
-26.0543425267
-26.0919490721
-26.1292416521
-26.1668835454
-26.2046902912
-26.2436373695
-26.2839499774
-26.3269776434
-26.3737679046
-26.4263610031
-26.4867808088
-26.557715365
-26.6419999467
-26.7426174896
-26.8616238691
-27.0016759514
-27.1615177141
-27.3401790127
-27.5346815553
-27.7411465411
-27.9554495577
-28.174505451
-28.3968298504
-28.6213323279
-28.8472009482
-29.0737203437
-29.3009525423
-29.5235244155
-29.7312401385
-29.91153365
-30.0619062726
-30.1857980828
-30.29364107
-30.3896237062
-30.4951095445
-30.6645680783
-30.8622113495
-31.0265790514
-31.147087639
-31.2387977042
-31.3069790638
-31.3581106817
-31.3966461629
-31.4252537419
-31.4457983055
-31.4590662162
-31.4661232364
-31.4678203734
-31.4655549753
-31.4600250544
-31.4521692138
-31.4422394991
-31.4311678511
-31.4194178007
-31.4081205617
-31.3977755916
-31.3894396854
-31.3834795318
-31.3805500842
-31.3804686015
-31.3834682566
-31.3894200918
-31.3989097569
-31.4120648862
-31.4289552592
-31.4482639206
-31.4691981855
-31.4910810383
-31.5145258652
-31.5399070867
-31.5679961644
-31.5987149704
-31.6324887633
-31.6688246495
-31.7078078816
-31.7483903676
-31.7901870394
-31.831448385
-31.8712598691
-31.9070263577
-31.937252124
-31.958321423
-31.9680472089
-31.9614632908
-31.9353514651
-31.8827875755
-31.7989824575
-31.6745417667
-31.5029379929
-31.2719160189
-30.9730469965
-30.5914198727
-30.1174855486
-29.5343797867
-28.832102432
-27.992679902
-27.0059732878
-25.851569914
-24.5137717827
-22.9640728054
-21.1802099676
-19.1264389588
-16.7677525601
-14.0567266887
-10.9604024181
-7.45494418204
-29.2480187014
-29.2502405024
-29.2390007933
-29.2052652802
-29.1561896391
-29.097300799
-29.0363994193
-28.9834777919
-28.9428840682
-28.9137558545
-28.8919763993
-28.8717958594
-28.8484278622
-28.8175398136
-28.7774677556
-28.7263891059
-28.6653084287
-28.5938137368
-28.5142753099
-28.4267833394
-28.3341990069
-28.2365820379
-28.1367169644
-28.0347327897
-27.9331083685
-27.8319275104
-27.7332227035
-27.6371758291
-27.5453876547
-27.4582108747
-27.3767284051
-27.3014107001
-27.2328255294
-27.1715707188
-27.1178236938
-27.0720954083
-27.0343579583
-27.0050795322
-26.9841673536
-26.9719787733
-26.9685433322
-26.9740156277
-26.9886025011
-27.0122056324
-27.0452083962
-27.0871961271
-27.1386321975
-27.1988377278
-27.2682761796
-27.345978802
-27.4322082791
-27.5261535607
-27.6278317062
-27.7364486923
-27.8517159447
-27.9728894109
-28.0994129216
-28.2307635833
-28.366203639
-28.5053496395
-28.6473448216
-28.792127535
-28.9398421426
-29.0936569348
-29.2561748104
-29.4241164698
-29.5939951223
-29.7640961262
-29.932687327
-30.0986489875
-30.2604908881
-30.4172872351
-30.567780292
-30.711423442
-30.8473233612
-30.9752673903
-31.0948411516
-31.2062591354
-31.3095535876
-31.4050098617
-31.4925704235
-31.5722220969
-31.6437319305
-31.7067069231
-31.760785265
-31.80546741
-31.8406472512
-31.8662070358
-31.8831395814
-31.8920594537
-31.8946118295
-31.890950089
-31.8820986049
-31.8696767364
-31.8552110077
-31.839882815
-31.8254724306
-31.8136556226
-31.8037584823
-31.7934847681
-31.7833516687
-31.769200906
-31.7364058373
-31.6729989688
-31.5832856738
-31.4643075185
-31.3032405503
-31.117046789
-30.9633922523
-30.8295850362
-30.6921804406
-30.5812084443
-30.4942678224
-30.4186072483
-30.3499319697
-30.2888147853
-30.2349162828
-30.1875790368
-30.1456291269
-30.1078530157
-30.0733769968
-30.0419314726
-30.0136411134
-29.9886264517
-29.9668470929
-29.9481502643
-29.9324242178
-29.9195878912
-29.9096222527
-29.9024908005
-29.8983806417
-29.8972994487
-29.8992334517
-29.9038439927
-29.9112126265
-29.9221089142
-29.9380841546
-29.9597302673
-29.9865486341
-30.0173102954
-30.0507981912
-30.0865836765
-30.125064076
-30.1668470295
-30.2123958942
-30.2618422925
-30.3151811469
-30.3720527562
-30.4320424049
-30.4943328378
-30.5580459548
-30.6217527492
-30.6840082383
-30.7426687948
-30.7956880223
-30.8400923508
-30.8731421727
-30.8907137556
-30.8889301422
-30.8619161115
-30.8043048135
-30.7080783526
-30.5660495503
-30.3676572315
-30.1038905266
-29.7617016322
-29.330668776
-28.7953479984
-28.1438319471
-27.3585403089
-26.4263064844
-25.3252368877
-24.0355549884
-22.5293684346
-20.7869345109
-18.778207182
-16.4724242832
-13.8224643841
-10.8032878687
-7.34159914781
-29.2945355576
-29.2856220631
-29.2388747144
-29.174024149
-29.1153641899
-29.0698550013
-29.0415749283
-29.034551455
-29.0486779654
-29.0784481097
-29.1157978322
-29.1530003946
-29.1850334905
-29.2085813017
-29.2230771508
-29.227836505
-29.2241517749
-29.2118782871
-29.1927769521
-29.1666364635
-29.1352383253
-29.0983462013
-29.0576668316
-29.012969579
-28.9658535435
-28.916190842
-28.8652995848
-28.813177718
-28.7608888109
-28.7085554059
-28.6568886192
-28.6060907796
-28.5565558109
-28.5084732655
-28.461912299
-28.4171173778
-28.3739318915
-28.3325409439
-28.2928237571
-28.2549159967
-28.2187551015
-28.1844029617
-28.1519465375
-28.1213179219
-28.0927650264
-28.0660538214
-28.0415707099
-28.0189644553
-27.9986146792
-27.9801975171
-27.9640770721
-27.9498748741
-27.9379687988
-27.9281425049
-27.9205115399
-27.914918514
-27.9113923412
-27.9099324268
-27.9105270221
-27.9132618974
-27.9180436901
-27.9246531026
-27.9315933968
-27.9357277251
-27.93840351
-27.9428427714
-27.9496664245
-27.9590690577
-27.9714539298
-27.9876686122
-28.0084209685
-28.0344827735
-28.0663127187
-28.1043220515
-28.1486724151
-28.1995074513
-28.2567828038
-28.3206163939
-28.3910311189
-28.4681037502
-28.5518045459
-28.6421381044
-28.7390238275
-28.8423007924
-28.9517095254
-29.0667612333
-29.1868010284
-29.3109842593
-29.4380366361
-29.5673887617
-29.6966893856
-29.8229724993
-29.9437275152
-30.0586327984
-30.1687936075
-30.2758376765
-30.3823285105
-30.4931853591
-30.6119643564
-30.7421393027
-30.8877372865
-31.0421342756
-31.1888627042
-31.3270035854
-31.4538348146
-31.5287872353
-31.5217419866
-31.4734620934
-31.3956304604
-31.2164561253
-30.9767328124
-30.8092548878
-30.7250973086
-30.6879134163
-30.6725028643
-30.6678371918
-30.6677355351
-30.6689300379
-30.6692040982
-30.667464211
-30.6632982634
-30.6573452515
-30.6503825064
-30.6433526434
-30.6365551516
-30.6302813156
-30.6243302292
-30.61866577
-30.6130031297
-30.6073486713
-30.6014500879
-30.5954088913
-30.589559983
-30.5848699159
-30.58256269
-30.5838992384
-30.5894780381
-30.599270166
-30.6125036179
-30.6279366663
-30.6443634503
-30.6614495302
-30.6797333739
-30.7000066702
-30.7229975206
-30.7491179612
-30.7786263785
-30.811510404
-30.8477119608
-30.8868274914
-30.928313038
-30.9710854278
-31.0139486788
-31.0550254537
-31.0923560554
-31.1230523331
-31.1442332879
-31.1516808867
-31.1411632011
-31.1065737906
-31.0420681609
-30.9393054029
-30.7904443234
-30.5846906424
-30.3125014588
-29.9609267902
-29.5192348978
-28.9726422947
-28.3093940631
-27.5127697103
-26.568619621
-25.4545277451
-24.14935819
-22.6256657886
-20.8608937176
-18.8238312195
-16.4933301423
-13.8507642659
-10.8870257371
-7.53635475921
-29.2852745362
-29.3188411467
-29.2503093879
-29.162792212
-29.1069798447
-29.0743892482
-29.0563321613
-29.0548624011
-29.0708256535
-29.0991478234
-29.1320709664
-29.1626956548
-29.1871292775
-29.2032418494
-29.211218409
-29.2109895871
-29.2039190331
-29.1900900556
-29.170934022
-29.1463764097
-29.1178306372
-29.0851420481
-29.0496722184
-29.0113760207
-28.971520685
-28.9301261509
-28.8883738227
-28.8463502851
-28.8050661305
-28.7646473152
-28.7259076497
-28.6889544041
-28.6542971547
-28.6220566587
-28.5925041345
-28.56565363
-28.5416363831
-28.5205021002
-28.5022502011
-28.48694446
-28.4746215353
-28.4653056834
-28.4590967909
-28.4559520328
-28.4560460721
-28.4592596466
-28.4658095888
-28.4755440362
-28.488773251
-28.5052883503
-28.5253840437
-28.5490068192
-28.5763535541
-28.6073695098
-28.642255377
-28.6809794362
-28.7236077043
-28.7701907886
-28.8207380977
-28.8753083309
-28.9337716336
-28.9965706317
-29.0648233773
-29.1392362925
-29.2158568216
-29.2934058167
-29.3713675854
-29.4490556726
-29.5253285055
-29.5992834063
-29.6700487837
-29.7370445269
-29.7997820835
-29.8580660785
-29.9117653418
-29.9609631452
-30.0058881139
-30.0468543681
-30.0842602882
-30.1184769961
-30.1498772904
-30.1787554295
-30.2054387678
-30.2301826639
-30.2533511559
-30.2752907133
-30.2965745227
-30.3176858538
-30.3394435728
-30.3621823973
-30.3850647208
-30.4054393259
-30.4205993486
-30.4289374959
-30.4309051599
-30.4279391962
-30.4244735395
-30.4279807536
-30.4469790668
-30.4904985235
-30.5657689901
-30.6718362684
-30.8097091472
-30.9870190765
-31.1771968766
-31.3386953375
-31.4669732712
-31.5642711222
-31.5481966813
-31.3530699871
-31.091818885
-30.89385503
-30.7698932809
-30.6917274901
-30.6368426544
-30.5942715138
-30.5585517692
-30.5270359459
-30.4982478655
-30.4714333169
-30.4464187122
-30.4236437347
-30.4036428323
-30.3867806968
-30.3730077409
-30.3620815436
-30.3535292601
-30.3469639545
-30.3420053389
-30.3385169398
-30.336356108
-30.3359604829
-30.337976303
-30.3434557793
-30.3531784353
-30.3674986169
-30.3862789228
-30.409393342
-30.4359017901
-30.464364004
-30.4934374929
-30.5227437248
-30.5525985317
-30.5837146292
-30.6165887943
-30.6516132821
-30.688855094
-30.7283663691
-30.7698932342
-30.8130920731
-30.8572285646
-30.9013903084
-30.9442087624
-30.9840985968
-31.0190054981
-31.0464657013
-31.0633823617
-31.0660327922
-31.0499516736
-31.0096778236
-30.9389256797
-30.829963666
-30.6742832398
-30.461654143
-30.1815627996
-29.8217147746
-29.3703974278
-28.8140684236
-28.1404246175
-27.3342474954
-26.3797541118
-25.2555953632
-23.939271497
-22.4027191157
-20.6177368355
-18.5524179309
-16.1934452526
-13.5510339851
-10.6215225982
-7.36951772186
-29.1924477099
-29.4327820362
-29.3609138886
-29.240374528
-29.1822911095
-29.1516679549
-29.1285154618
-29.1176714651
-29.1229886368
-29.1407986501
-29.1645129084
-29.188576546
-29.2099112952
-29.2268415624
-29.2392599437
-29.2468624715
-29.250317825
-29.2494363192
-29.2450104405
-29.2368024552
-29.2256013161
-29.2112470148
-29.1945576741
-29.1754338089
-29.154737613
-29.1324790015
-29.1094843962
-29.0858236285
-29.0622949592
-29.038966348
-29.0165156051
-28.9949499594
-28.974817623
-28.9559801924
-28.9387654677
-28.9230335319
-28.9088873075
-28.8961354496
-28.8848165623
-28.8747452228
-28.8658842511
-28.8580607145
-28.8512249574
-28.8451861208
-28.8399039343
-28.8351664853
-28.8309772412
-28.827144224
-28.8236858634
-28.8205225243
-28.8177441763
-28.8152401021
-28.8131796376
-28.8115265459
-28.8103842599
-28.8097278158
-28.809652052
-28.8101479223
-28.8112831135
-28.8130897141
-28.8155207281
-28.8180852214
-28.8198878065
-28.8233710857
-28.8313332498
-28.844783324
-28.8640004311
-28.889256633
-28.9204596099
-28.9574336114
-28.9996230994
-29.0464420979
-29.0970495357
-29.1506560701
-29.206498486
-29.2640304145
-29.3228503388
-29.382882934
-29.4442401103
-29.5072268998
-29.5722481278
-29.639736521
-29.7100955363
-29.7836105142
-29.8604238833
-29.9405462078
-30.0239307896
-30.1104088467
-30.1998366203
-30.2913801896
-30.3822664898
-30.4667909555
-30.5395413765
-30.5959744264
-30.6329178451
-30.6487766551
-30.6471300184
-30.6350184577
-30.6206930569
-30.6143945625
-30.6266275628
-30.6648293912
-30.7382343769
-30.8463528544
-30.9663770968
-31.0970454201
-31.2691338076
-31.4228408832
-31.4299815763
-31.2753700305
-31.0724777182
-30.9083213767
-30.7960725949
-30.7228376185
-30.6744075476
-30.6414026111
-30.6178840444
-30.5996767749
-30.5840601761
-30.569007017
-30.5537672574
-30.5381171988
-30.5225719154
-30.5073193501
-30.4927702637
-30.4788612681
-30.4657945829
-30.4534245237
-30.4419686464
-30.4314677497
-30.4225306996
-30.4155090805
-30.4110481411
-30.4097485882
-30.412439885
-30.4195288799
-30.4315158173
-30.4482977035
-30.469099471
-30.4924936377
-30.5174002377
-30.5434768954
-30.5711544703
-30.6009229457
-30.633307848
-30.668516313
-30.7067685187
-30.7479360522
-30.7918780673
-30.8379925133
-30.8856310536
-30.9335898261
-30.9805796972
-31.0246466782
-31.0638510793
-31.0954010918
-31.1163606284
-31.1225833281
-31.109739198
-31.0719880113
-31.0031797805
-30.895188456
-30.7396612924
-30.5259883321
-30.2437434974
-29.880209686
-29.4236915407
-28.8603639308
-28.178122082
-27.3615849323
-26.3949185541
-25.2571419487
-23.9263479868
-22.3745635333
-20.5727424791
-18.4900024262
-16.1165849128
-13.4721169315
-10.5537016788
-7.34926306441
-29.101666878
-29.7248169138
-29.5841266422
-29.3809637669
-29.3060531925
-29.2698021535
-29.2390227734
-29.2191780344
-29.2138852865
-29.2196260262
-29.2310907705
-29.2443296726
-29.2571825571
-29.2684041366
-29.2776605837
-29.2845101514
-29.2891492855
-29.29129846
-29.2913096448
-29.2889735975
-29.2847424022
-29.2784605964
-29.2706342062
-29.2612318438
-29.2507858423
-29.2393252888
-29.2274574849
-29.215245087
-29.2033162552
-29.1917091648
-29.1810498033
-29.1712829516
-29.162908783
-29.1558036021
-29.1503331814
-29.1462287105
-29.1437376875
-29.1425984957
-29.1428905866
-29.1443824355
-29.1470864078
-29.1507966131
-29.1554696268
-29.1609245722
-29.1670825087
-29.1737973363
-29.1809749912
-29.1885405313
-29.1964721496
-29.2047464857
-29.2134055534
-29.2225617799
-29.2322940539
-29.2427050833
-29.2539418975
-29.2660764614
-29.2792512893
-29.2935904106
-29.3093812291
-29.3269316895
-29.3468267286
-29.3699706704
-29.3960792664
-29.4226675302
-29.4484990125
-29.4733012833
-29.4969718549
-29.5197547925
-29.5419964603
-29.5642768486
-29.5870937038
-29.6109176335
-29.635976969
-29.6623857594
-29.6899859075
-29.71856957
-29.7478680052
-29.7776536654
-29.8077710857
-29.8382085126
-29.8690809663
-29.9006413744
-29.9332520373
-29.9673650015
-30.0035175627
-30.0424339625
-30.0851919548
-30.1332408412
-30.1884311522
-30.2528841162
-30.3259722192
-30.4042423285
-30.4837724754
-30.5602515422
-30.6292451711
-30.6865514364
-30.729787098
-30.7572929097
-30.7679836148
-30.7658317792
-30.7582076429
-30.7516202388
-30.7519750556
-30.7627596429
-30.797020514
-30.8950760279
-31.0616670106
-31.2011867645
-31.2196557541
-31.128319166
-31.0002618598
-30.8846856581
-30.7946598531
-30.7280658363
-30.6783540014
-30.6399189395
-30.6084357805
-30.5809198502
-30.5554538427
-30.5310648109
-30.5077044813
-30.4858878362
-30.4662844504
-30.4493396874
-30.4352768337
-30.4240349322
-30.4154552404
-30.4092225258
-30.4050823609
-30.402769529
-30.402110999
-30.4029067332
-30.4054390216
-30.4102288543
-30.4182512584
-30.430216113
-30.4464404729
-30.4667373853
-30.4902139891
-30.5156414679
-30.542159411
-30.5696315379
-30.5984500628
-30.6290845013
-30.6619404681
-30.6972423351
-30.7351513033
-30.7756258428
-30.8184923661
-30.8632738859
-30.9092808213
-30.9554571014
-31.0004818609
-31.0425807853
-31.0796677925
-31.1091349577
-31.127950552
-31.1322558594
-31.1175462989
-31.0782529388
-31.007967945
-30.8989030787
-30.7423475329
-30.5280667869
-30.2451351715
-29.8812336929
-29.4239128814
-28.8595061258
-28.174793167
-27.3545219227
-26.3820954367
-25.2374439387
-23.8987146268
-22.3397510829
-20.5330494382
-18.4505132325
-16.0801515638
-13.4335397968
-10.5043357339
-7.28809690815
-29.1163208495
-30.1997266776
-29.8524745508
-29.5362710658
-29.4560499358
-29.4212673672
-29.3899423259
-29.3661534011
-29.353083601
-29.348295282
-29.3484257354
-29.3511931392
-29.3552497553
-29.3597289209
-29.3641657359
-29.3680851748
-29.3713642602
-29.3736787931
-29.375103804
-29.3754178213
-29.3747967098
-29.3731421261
-29.3707125079
-29.3674525693
-29.3637002714
-29.3594602179
-29.3551088328
-29.3506643062
-29.346562005
-29.3427757361
-29.3397355822
-29.3373256871
-29.3359560573
-29.3353582641
-29.3358313573
-29.3370728163
-29.3392356429
-29.3419741234
-29.3453783954
-29.3491337412
-29.3532453881
-29.3574638817
-29.3617398176
-29.3658841327
-29.3698050151
-29.3733756457
-29.3764944619
-29.3791114262
-29.3811339815
-29.3826197853
-29.3835450935
-29.3839806351
-29.384002359
-29.3837225271
-29.3832217272
-29.3825451355
-29.3817373795
-29.3808246017
-29.3800147815
-29.3794779589
-29.3793430963
-29.3796159641
-29.3817957812
-29.3869809454
-29.3951506156
-29.4061164885
-29.4196703119
-29.4356847784
-29.4540140822
-29.4746130793
-29.4973610351
-29.522186814
-29.5489190996
-29.5773930647
-29.6074251461
-29.6388834378
-29.6716487191
-29.7057278896
-29.741181156
-29.7781632286
-29.816865223
-29.8574797366
-29.9001162152
-29.9447472815
-29.9910854644
-30.0386495098
-30.0868943611
-30.1357970584
-30.1861932368
-30.2392871767
-30.2960140769
-30.3560709957
-30.4215721013
-30.4926679736
-30.5673799916
-30.6408015348
-30.7068189339
-30.7563934994
-30.7819891797
-30.7854033294
-30.7680752841
-30.7350820585
-30.6996475948
-30.6757597499
-30.6909132049
-30.7776646479
-30.9145853935
-31.0248994665
-31.0565622714
-31.0205761173
-30.9536805414
-30.8820719889
-30.8177287482
-30.7645976199
-30.7219998292
-30.6881450183
-30.6607077547
-30.6378161489
-30.6177313059
-30.5995398903
-30.5826008127
-30.5669617386
-30.5524171915
-30.5390419716
-30.5265276018
-30.5148758459
-30.503795737
-30.4933506994
-30.4833846314
-30.4741270369
-30.4656920773
-30.4588201924
-30.4542429272
-30.4530940263
-30.4559762116
-30.4633550111
-30.4752634764
-30.491372971
-30.5106896157
-30.5321225283
-30.5549349044
-30.579112418
-30.6049804894
-30.6330667777
-30.6636712992
-30.697085343
-30.7333379733
-30.7724458969
-30.8140926285
-30.8578611769
-30.9029090385
-30.9482414335
-30.9923969242
-31.0337286387
-31.069999004
-31.0987080134
-31.1166687671
-31.1202348704
-31.1048152576
-31.0650541085
-30.9944313781
-30.8854117027
-30.7291649737
-30.5157341725
-30.2340413613
-29.8720471536
-29.4169810727
-28.8552287011
-28.1727804507
-27.3543178679
-26.3830396101
-25.2396414693
-23.9026494888
-22.347740949
-20.5500906063
-18.4828850371
-16.1281704311
-13.4781230902
-10.5187397808
-7.24180229509
-29.2966012642
-30.7844229426
-30.1048311481
-29.702327394
-29.6402511753
-29.6073485361
-29.5753292599
-29.5457983371
-29.5244353536
-29.5099892292
-29.5003542998
-29.4941061147
-29.4901832843
-29.4878419766
-29.4865246497
-29.4857596265
-29.4852749181
-29.4847667454
-29.4841537848
-29.4832694918
-29.4821961372
-29.4808440058
-29.4793712803
-29.4777610842
-29.47620097
-29.4746727963
-29.4734280605
-29.4724279329
-29.4719512274
-29.4719068117
-29.4725992756
-29.4738478727
-29.4759091085
-29.4785394994
-29.4819453409
-29.4857861731
-29.4902225385
-29.4949296818
-29.4999836154
-29.5051142201
-29.5103647657
-29.5155381142
-29.5206410288
-29.5255549375
-29.5302517545
-29.5346870954
-29.5388044665
-29.5426282429
-29.5461080448
-29.5492866671
-29.5521073979
-29.554650297
-29.5568988915
-29.5589460329
-29.5608682593
-29.5627047163
-29.5644039546
-29.5658543647
-29.5671908687
-29.5688853881
-29.5717793265
-29.5760508564
-29.5814995498
-29.5880793505
-29.5954385263
-29.6031405968
-29.6110164794
-29.6193343257
-29.628569349
-29.6392760993
-29.6518093853
-29.6662939544
-29.6825977687
-29.7004564941
-29.719510322
-29.7394541901
-29.7600893661
-29.7814037904
-29.8035815442
-29.8270388055
-29.8523097345
-29.8800676954
-29.9109367439
-29.9455921197
-29.9843837742
-30.0273910073
-30.0738539617
-30.1229390839
-30.1733948784
-30.2237715519
-30.272221328
-30.3179716683
-30.3644335283
-30.4139607983
-30.4662248859
-30.5167171206
-30.5610687805
-30.5955447065
-30.6167288731
-30.6283603306
-30.634077227
-30.6338093277
-30.6265511389
-30.6213952809
-30.6441950281
-30.7166739917
-30.8174149677
-30.8994246608
-30.9347794773
-30.9270509806
-30.8918905441
-30.843420981
-30.7916935592
-30.742589678
-30.6985116842
-30.659786266
-30.6256613389
-30.5949728699
-30.5666265339
-30.5399502547
-30.5147441208
-30.491145024
-30.4693647237
-30.4496608326
-30.432190805
-30.4171157755
-30.404471323
-30.394307792
-30.3865519996
-30.3811986782
-30.3782560353
-30.3779926791
-30.3807016584
-30.3867912963
-30.3964687949
-30.4099483884
-30.4272444835
-30.4478591614
-30.4709367179
-30.4955834929
-30.5212859579
-30.5480521267
-30.5762507499
-30.6063581262
-30.638737512
-30.6736461941
-30.7111691338
-30.751268338
-30.7936714962
-30.8378921375
-30.8831276946
-30.9282895927
-30.9719456658
-31.0123532586
-31.0473587312
-31.0743870417