/*--------------------------------*- C++ -*----------------------------------*\
| =========                 |                                                 |
| \\      /  F ield         | OpenFOAM: The Open Source CFD Toolbox           |
|  \\    /   O peration     | Version:  v1806                                 |
|   \\  /    A nd           | Web:      www.OpenFOAM.com                      |
|    \\/     M anipulation  |                                                 |
\*---------------------------------------------------------------------------*/
FoamFile
{
    version     2.0;
    format      ascii;
    class       surfaceScalarField;
    location    "17";
    object      phi;
}
// * * * * * * * * * * * * * * * * * * * * * * * * * * * * * * * * * * * * * //

dimensions      [0 3 -1 0 0 0 0];
oriented        oriented;


internalField   nonuniform List<scalar> 
24170
(
3.07351458419e-06
1.14891885214e-07
2.98661891061e-06
8.6896092697e-08
2.90668606024e-06
7.99334693598e-08
2.82972758409e-06
7.69592620045e-08
2.75595522588e-06
7.37730436045e-08
2.68550158885e-06
7.0454354195e-08
2.61822381613e-06
6.72784507998e-08
2.55390354513e-06
6.43209353239e-08
2.49231160339e-06
6.15925919554e-08
2.43320968086e-06
5.91025377168e-08
2.37634192914e-06
5.68683681406e-08
2.32142570586e-06
5.49167982881e-08
2.26813821328e-06
5.32880677262e-08
2.21609010403e-06
5.20486527257e-08
2.164767497e-06
5.1323149834e-08
2.11337004872e-06
5.13979625054e-08
2.06016446052e-06
5.32060861817e-08
5.98304122883e-08
2.00033451322e-06
3.43161623212e-06
1.00524945262e-07
3.42659470939e-06
9.19179508968e-08
3.4197491765e-06
8.67795261966e-08
3.40991893089e-06
8.67902001349e-08
3.39757442754e-06
8.61181638198e-08
3.38336798034e-06
8.4661450678e-08
3.36766284632e-06
8.29841912918e-08
3.35067914035e-06
8.13052382454e-08
3.33257273723e-06
7.96995653657e-08
3.31344621379e-06
7.82296054451e-08
3.29334506912e-06
7.69700395978e-08
3.27225214108e-06
7.60102248995e-08
3.25007661887e-06
7.54640742374e-08
3.22662874487e-06
7.54969920155e-08
3.20156341862e-06
7.6388930292e-08
3.17427504611e-06
7.86867682461e-08
3.14385711539e-06
8.36244260946e-08
9.26166794334e-08
3.11107122015e-06
3.68003526671e-06
8.30068741246e-08
3.68448943992e-06
8.74642130942e-08
3.68722073929e-06
8.4048807435e-08
3.68885999133e-06
8.51516123377e-08
3.6891845492e-06
8.57942010105e-08
3.68840663193e-06
8.54399585209e-08
3.68665629404e-06
8.4735088367e-08
3.68397211298e-06
8.39899534553e-08
3.68036107303e-06
8.33111210104e-08
3.67581188053e-06
8.27792823235e-08
3.67029016526e-06
8.24922290674e-08
3.66373154716e-06
8.25692870835e-08
3.65603276503e-06
8.31632878564e-08
3.64703863079e-06
8.44915340504e-08
3.63652915528e-06
8.68987985343e-08
3.62424936069e-06
9.09669289597e-08
3.61017176891e-06
9.77023493733e-08
1.07531073607e-07
3.5952576552e-06
3.93974215461e-06
6.86532811254e-08
3.9458627414e-06
8.13439723455e-08
3.94941501202e-06
8.0497036381e-08
3.9522858057e-06
8.22814292626e-08
3.95427597217e-06
8.38046100088e-08
3.95547614808e-06
8.42403686774e-08
3.95600598331e-06
8.42058117033e-08
3.95590051278e-06
8.40959673383e-08
3.95515106795e-06
8.40610851883e-08
3.95372928607e-06
8.42015608216e-08
3.95158957421e-06
8.46324166056e-08
3.94866683796e-06
8.54924762283e-08
3.94487458701e-06
8.69559721702e-08
3.9401064054e-06
8.92601301924e-08
3.93425310905e-06
9.27524893227e-08
3.92727306691e-06
9.7947337041e-08
3.91940742227e-06
1.0556831295e-07
1.1582851006e-07
3.91111028341e-06
4.21856080015e-06
5.72199004262e-08
4.22514755076e-06
7.47576853197e-08
4.22882109734e-06
7.68240594024e-08
4.23177884291e-06
7.93242929633e-08
4.23399766313e-06
8.15863555251e-08
4.23547779334e-06
8.27607867586e-08
4.23632133838e-06
8.33627912352e-08
4.2365755197e-06
8.38422858083e-08
4.23624026239e-06
8.43968250877e-08
4.23529420395e-06
8.51480774151e-08
4.23370235616e-06
8.62247090982e-08
4.2314172048e-06
8.77780502844e-08
4.22838170512e-06
8.99918788552e-08
4.22453966927e-06
9.31025530747e-08
4.21986522631e-06
9.7427297937e-08
4.2144319629e-06
1.03380930804e-07
4.2085497701e-06
1.11450801569e-07
1.21780291775e-07
4.20259823512e-06
4.51817355919e-06
4.81336869508e-08
4.52477138604e-06
6.81602258423e-08
4.52860401267e-06
7.29919174434e-08
4.53159684992e-06
7.63320031398e-08
4.5339166336e-06
7.92671074896e-08
4.53551401804e-06
8.11639368671e-08
4.53645882256e-06
8.24185031249e-08
4.53680312228e-06
8.34984888011e-08
4.53655556296e-06
8.46448654835e-08
4.53570245958e-06
8.60016452264e-08
4.53421958877e-06
8.77080224177e-08
4.53207679439e-06
8.99212682679e-08
4.52924470223e-06
9.28243705655e-08
4.52570999407e-06
9.66376408291e-08
4.52150759198e-06
1.0163005098e-07
4.51677781893e-06
1.08111020057e-07
4.51184959259e-06
1.16379285021e-07
1.26475762712e-07
4.50715436295e-06
4.8399354976e-06
4.09184778492e-08
4.84625501536e-06
6.18411993417e-08
4.85022632101e-06
6.90211673982e-08
4.85325336736e-06
7.33055240736e-08
4.85564009323e-06
7.68809187566e-08
4.85733384603e-06
7.94707008553e-08
4.8583712885e-06
8.13815545031e-08
4.85880156137e-06
8.30686915917e-08
4.85864000018e-06
8.48068824375e-08
4.85788030868e-06
8.67617770727e-08
4.8565088518e-06
8.9079900626e-08
4.85451268122e-06
9.19178431689e-08
4.85188893525e-06
9.54485019606e-08
4.84866187541e-06
9.9865066456e-08
4.84491234288e-06
1.05379920365e-07
4.84081971728e-06
1.12203938018e-07
4.83670553414e-06
1.20493720554e-07
1.30198747641e-07
4.83298284818e-06
5.18532926638e-06
3.51704161864e-08
5.19119597237e-06
5.59748940163e-08
5.19524630786e-06
6.49713026478e-08
5.19832256233e-06
7.02297693774e-08
5.20077845513e-06
7.44255215065e-08
5.202582436e-06
7.76672073062e-08
5.20374240483e-06
8.02220640042e-08
5.20429751529e-06
8.25140437996e-08
5.20426749871e-06
8.48373509315e-08
5.20365452799e-06
8.73751793729e-08
5.20245728212e-06
9.02775649281e-08
5.20068131311e-06
9.36942075903e-08
5.19834983224e-06
9.77803569809e-08
5.19552001976e-06
1.0269522477e-07
5.19230684873e-06
1.08593409602e-07
5.18891058249e-06
1.15600472255e-07
5.18563588908e-06
1.23768665562e-07
1.32977474604e-07
5.1828574231e-06
5.55594422014e-06
3.05639999234e-08
5.56127533298e-06
5.06442834394e-08
5.56533144369e-06
6.09157271879e-08
5.56846440636e-06
6.7097337363e-08
5.57099561227e-06
7.18948223347e-08
5.57291951349e-06
7.57437920611e-08
5.57422501483e-06
7.89170295086e-08
5.57493924127e-06
8.1800267854e-08
5.57508529015e-06
8.46917359363e-08
5.57467533607e-06
8.77855524559e-08
5.57372205098e-06
9.1231248361e-08
5.57224989093e-06
9.51667492841e-08
5.5703060885e-06
9.97245206537e-08
5.56797461288e-06
1.05027041064e-07
5.56539316394e-06
1.1117516339e-07
5.5627680567e-06
1.18225835092e-07
5.56037628491e-06
1.26160707628e-07
1.34823347681e-07
5.55853074573e-06
5.95350275792e-06
2.68376283057e-08
5.95828294528e-06
4.58645108083e-08
5.96227700911e-06
5.69221147304e-08
5.96546616768e-06
6.39086387354e-08
5.96808527637e-06
6.92761710718e-08
5.97014641963e-06
7.36830989783e-08
5.97162919994e-06
7.743469092e-08
5.97254940842e-06
8.08804929163e-08
5.97293182539e-06
8.43097385082e-08
5.97279829708e-06
8.79194831661e-08
5.97217531648e-06
9.18546199684e-08
5.97110475817e-06
9.62376859629e-08
5.96965401766e-06
1.01175610689e-07
5.96792670711e-06
1.06754684564e-07
5.96607298195e-06
1.13029175875e-07
5.96429497535e-06
1.2000409756e-07
5.96284024306e-06
1.27615714632e-07
1.35691880205e-07
5.96197203494e-06
6.37986461483e-06
2.37855823202e-08
6.38412458132e-06
4.16050811646e-08
6.38800791796e-06
5.30393232398e-08
6.39125012182e-06
6.06669686185e-08
6.3939758808e-06
6.6550923591e-08
6.39619971003e-06
7.14597625651e-08
6.39789781465e-06
7.57370626645e-08
6.39907674714e-06
7.97020194374e-08
6.39976144933e-06
8.36254780032e-08
6.39998225312e-06
8.76991030547e-08
6.39977846643e-06
9.20588186233e-08
6.39920718454e-06
9.68093514698e-08
6.39835159063e-06
1.02031584684e-07
6.39732796604e-06
1.07778649654e-07
6.39629028215e-06
1.14067176314e-07
6.39542876376e-06
1.20865877595e-07
6.39495820541e-06
1.28086564646e-07
1.35562677776e-07
6.3950878096e-06
5.74301985815e-06
2.16004906537e-08
5.74626155161e-06
3.83638885378e-08
5.74943762292e-06
4.98637654258e-08
5.75221776742e-06
5.78873258489e-08
5.75462231147e-06
6.41468737168e-08
5.75665363511e-06
6.94289108662e-08
5.75829057148e-06
7.41005895635e-08
5.75953345662e-06
7.84595739655e-08
5.76040263976e-06
8.27567217193e-08
5.76092887867e-06
8.71732648437e-08
5.76115365407e-06
9.18344292009e-08
5.76113437958e-06
9.68290372758e-08
5.76094941856e-06
1.02216887497e-07
5.76070148556e-06
1.0802696544e-07
5.76051805362e-06
1.14250887697e-07
5.76054753333e-06
1.20836704219e-07
5.76094949865e-06
1.27684910757e-07
1.34633062823e-07
5.76187951075e-06
7.00030780815e-06
1.94485774329e-08
7.00366499199e-06
3.5007202125e-08
7.00717570772e-06
4.63535386912e-08
7.01040475983e-06
5.46587563819e-08
7.01329190155e-06
6.12601915178e-08
7.015819785e-06
6.69014802893e-08
7.01796214502e-06
7.19586568711e-08
7.01971545263e-06
7.67066879983e-08
7.02110213343e-06
8.13704294856e-08
7.02216190205e-06
8.61138776301e-08
7.02294982461e-06
9.10469255958e-08
7.02353948025e-06
9.62397379905e-08
7.02402637627e-06
1.01730412729e-07
7.02452884144e-06
1.0752480456e-07
7.02518594065e-06
1.13594174793e-07
7.02615046512e-06
1.19872425958e-07
7.02757777745e-06
1.26258056103e-07
1.32604391945e-07
7.02960672551e-06
8.53295866704e-06
1.73373547051e-08
8.5364124032e-06
3.15539458893e-08
8.54026795463e-06
4.2498468147e-08
8.54401904414e-06
5.09081305079e-08
8.54751688166e-06
5.77628108321e-08
8.55071052544e-06
6.37082679591e-08
8.55356459548e-06
6.91050181482e-08
8.5560708636e-06
7.4200813381e-08
8.55825275756e-06
7.91889342768e-08
8.56015808691e-06
8.42089511232e-08
8.5618548324e-06
8.9350590989e-08
8.56343137988e-06
9.46636133785e-08
8.56499710923e-06
1.00165065005e-07
8.56668085439e-06
1.05841469093e-07
8.56862578772e-06
1.11649550275e-07
8.57098130509e-06
1.17517335162e-07
8.57389106369e-06
1.2334855378e-07
1.2901757151e-07
8.57747844913e-06
1.04013167695e-05
1.52400120086e-08
1.04048981001e-05
2.79731013448e-08
1.04091514543e-05
3.82455864698e-08
1.04135412289e-05
4.65188230181e-08
1.04178376236e-05
5.34668630085e-08
1.0421945015e-05
5.96013264858e-08
1.0425812422e-05
6.52380225203e-08
1.04294249575e-05
7.0588711093e-08
1.04328047868e-05
7.58094924248e-08
1.04360047275e-05
8.10094779909e-08
1.04391017578e-05
8.62539600698e-08
1.0442193984e-05
9.15718839237e-08
1.04453976726e-05
9.69617341781e-08
1.04488433252e-05
1.02396289567e-07
1.04526683966e-05
1.07824784982e-07
1.04570088728e-05
1.13177289931e-07
1.04619885876e-05
1.18369166859e-07
1.2329880227e-07
1.04677076337e-05
1.26789529141e-05
1.30774785466e-08
1.26827807296e-05
2.41457735598e-08
1.26875824637e-05
3.34443359681e-08
1.26928261647e-05
4.12755896286e-08
1.26982189417e-05
4.80745519201e-08
1.2703615386e-05
5.42053219815e-08
1.27089410332e-05
5.99128359427e-08
1.2714169482e-05
6.53606678741e-08
1.27193169664e-05
7.06624919018e-08
1.27244345168e-05
7.58923260057e-08
1.27296000612e-05
8.10889657176e-08
1.27349112112e-05
8.62610779481e-08
1.27404803351e-05
9.1393188149e-08
1.27464269264e-05
9.64499590352e-08
1.27528714569e-05
1.01380852909e-07
1.27599251192e-05
1.06123760061e-07
1.27676840562e-05
1.1061086744e-07
1.14765345696e-07
1.27762174712e-05
1.54555643631e-05
1.06935828099e-08
1.5459897675e-05
1.98129701478e-08
1.54655712458e-05
2.77712564031e-08
1.54720641662e-05
3.47831482696e-08
1.54790361239e-05
4.11030659403e-08
1.54862918512e-05
4.69500635863e-08
1.5493725161e-05
5.24799832564e-08
1.55012899375e-05
5.7796356889e-08
1.5508987416e-05
6.29654648293e-08
1.55168561503e-05
6.80240879587e-08
1.55249615467e-05
7.29840152818e-08
1.55333869763e-05
7.78361641504e-08
1.55422252975e-05
8.25552807961e-08
1.55515718358e-05
8.71039521844e-08
1.55615162382e-05
9.14368008752e-08
1.55721364835e-05
9.55040360101e-08
1.55834918868e-05
9.92556879169e-08
1.02639131102e-07
1.55956186343e-05
1.88405147838e-05
7.81669912703e-09
1.88458305758e-05
1.44976930311e-08
1.88529771367e-05
2.06251908695e-08
1.88614088084e-05
2.63519781769e-08
1.88707331881e-05
3.17791670626e-08
1.88807022136e-05
3.69815413212e-08
1.88911688594e-05
4.20138097553e-08
1.89020554378e-05
4.69102891727e-08
1.89133353367e-05
5.16860277026e-08
1.89250201818e-05
5.63397786599e-08
1.89371472108e-05
6.08574381147e-08
1.89497691099e-05
6.52148362096e-08
1.89629442211e-05
6.93805990246e-08
1.897673003e-05
7.33187542502e-08
1.89911756368e-05
7.69915742335e-08
1.9006318325e-05
8.03619934916e-08
1.90221780844e-05
8.33961845616e-08
8.60611763325e-08
1.90387567287e-05
2.29672301085e-05
3.92434778376e-09
2.29744132704e-05
7.31507911101e-09
2.29841217565e-05
1.0917292621e-08
2.29956767953e-05
1.47974820678e-08
2.30085932957e-05
1.88632399119e-08
2.30225579891e-05
2.30174001312e-08
2.3037371789e-05
2.72005797496e-08
2.30529112667e-05
3.13713841241e-08
2.30691078597e-05
3.54899959596e-08
2.30859319848e-05
3.95162485627e-08
2.31033786109e-05
4.34113546618e-08
2.31214556775e-05
4.71384052769e-08
2.31401746607e-05
5.06621299186e-08
2.31595446011e-05
5.39494889685e-08
2.31795661118e-05
5.69705163383e-08
2.32002292173e-05
5.96996076719e-08
2.32215093699e-05
6.21163532605e-08
6.42039172978e-08
2.32433673603e-05
1.68141617222e-05
4.68002026882e-10
1.68204137628e-05
1.06355482244e-09
1.68286916763e-05
2.63980738531e-09
1.68383807385e-05
5.10893574084e-09
1.68491057708e-05
8.13864515225e-09
1.68606433842e-05
1.14803185773e-08
1.68728448225e-05
1.49995836317e-08
1.68856092073e-05
1.86075389747e-08
1.68988724683e-05
2.2227168164e-08
1.69125961534e-05
2.57931088038e-08
1.69267558188e-05
2.92521222652e-08
1.69413339783e-05
3.25608073665e-08
1.69563145346e-05
3.56819917375e-08
1.69716804239e-05
3.85842078545e-08
1.69874102343e-05
4.12411151155e-08
1.70034779894e-05
4.3632535214e-08
1.70198507328e-05
4.57439504465e-08
4.75650305287e-08
1.70364903763e-05
1.46382646198e-05
-3.22749550572e-09
1.46447989347e-05
-5.47033593113e-09
1.46531478149e-05
-5.70856968444e-09
1.46626392109e-05
-4.38202621869e-09
1.46729642331e-05
-2.18589780645e-09
1.46839591794e-05
4.85781661554e-10
1.46955036542e-05
3.45558517664e-09
1.4707512806e-05
6.59881209999e-09
1.47199334197e-05
9.80701542045e-09
1.47327307747e-05
1.29961907609e-08
1.47458784037e-05
1.61049553357e-08
1.47593524437e-05
1.90872062239e-08
1.47731292636e-05
2.19056625248e-08
1.47871842011e-05
2.45297133815e-08
1.48014908939e-05
2.69349782336e-08
1.48160207992e-05
2.91030488763e-08
1.4830743958e-05
3.10214307834e-08
3.2681794594e-08
1.48456275395e-05
1.27442600459e-05
-7.35514156519e-09
1.27512518084e-05
-1.24616255279e-08
1.27596882754e-05
-1.41446289516e-08
1.27688995321e-05
-1.35928221018e-08
1.27787108687e-05
-1.19968228479e-08
1.27890264003e-05
-9.829276184e-09
1.27997506398e-05
-7.26824196145e-09
1.28108196769e-05
-4.4698194694e-09
1.28221986546e-05
-1.57154249478e-09
1.28338643889e-05
1.33084125835e-09
1.28457950523e-05
4.17472596071e-09
1.28579680043e-05
6.91465741748e-09
1.28703592795e-05
9.51483817124e-09
1.28829426862e-05
1.1946744612e-08
1.28956901582e-05
1.41879806251e-08
1.29085711426e-05
1.62225282363e-08
1.29215527859e-05
1.80402410262e-08
1.96352041364e-08
1.29345998826e-05
1.10957567061e-05
-1.21823140397e-08
1.11033610553e-05
-2.0065539483e-08
1.11118182095e-05
-2.26013027107e-08
1.11206355608e-05
-2.24097234178e-08
1.11298447396e-05
-2.12055435711e-08
1.11394067471e-05
-1.93909037228e-08
1.11492511494e-05
-1.71122153198e-08
1.11593431031e-05
-1.45613559839e-08
1.11696681922e-05
-1.18962570452e-08
1.11802116481e-05
-9.21219669875e-09
1.11909544456e-05
-6.56768930489e-09
1.12018756776e-05
-4.00615379169e-09
1.12129530254e-05
-1.56212506097e-09
1.12241630007e-05
7.37229058101e-10
1.12354802741e-05
2.87109793443e-09
1.12468801025e-05
4.82319830364e-09
1.12583411709e-05
6.57952320508e-09
8.12833402911e-09
1.12698485715e-05
9.66110709156e-06
-1.8074433211e-08
9.66942164443e-06
-2.83796447616e-08
9.67774605329e-06
-3.09252858309e-08
9.68605466863e-06
-3.07178803009e-08
9.69459159669e-06
-2.97420476437e-08
9.70332985221e-06
-2.81286813313e-08
9.71222401643e-06
-2.60059555237e-08
9.72127689765e-06
-2.3613840164e-08
9.73049795605e-06
-2.11169228242e-08
9.7398846758e-06
-1.85985474184e-08
9.74942547704e-06
-1.610810145e-08
9.75910346943e-06
-1.36837681193e-08
9.76889790947e-06
-1.13561456508e-08
9.77878403306e-06
-9.1484932793e-09
9.78873382882e-06
-7.0782738182e-09
9.79871799422e-06
-5.16056641272e-09
9.80870725046e-06
-3.40930553254e-09
-1.83845161661e-09
9.81867443617e-06
8.41285209046e-06
-2.55735934075e-08
8.42183189086e-06
-3.73589738554e-08
8.4298017957e-06
-3.8894711212e-08
8.43754672161e-06
-3.84623460474e-08
8.4454257462e-06
-3.76206150777e-08
8.45338076817e-06
-3.60833255469e-08
8.46139727014e-06
-3.40220020994e-08
8.46950815001e-06
-3.17242991031e-08
8.47773492468e-06
-2.93433124167e-08
8.48608111955e-06
-2.69443622883e-08
8.4945407233e-06
-2.45673258958e-08
8.50310209809e-06
-2.22447589339e-08
8.51174852338e-06
-2.00022101459e-08
8.52045814681e-06
-1.78577213947e-08
8.5292048167e-06
-1.58245540168e-08
8.53796039557e-06
-1.39157617723e-08
8.546703014e-06
-1.21515096532e-08
-1.05685608595e-08
8.55543346726e-06
7.32701003865e-06
-3.52988725964e-08
7.3363604648e-06
-4.67089469797e-08
7.34372226982e-06
-4.62560967992e-08
7.35082361387e-06
-4.5563199733e-08
7.35795697846e-06
-4.47535388096e-08
7.36505810368e-06
-4.3183992597e-08
7.37217040305e-06
-4.11338679297e-08
7.37934971909e-06
-3.89032077477e-08
7.38661975878e-06
-3.66129821064e-08
7.39398477172e-06
-3.43090290936e-08
7.4014410344e-06
-3.20232147468e-08
7.40897953468e-06
-2.97829059607e-08
7.41658587885e-06
-2.76081783018e-08
7.42423953895e-06
-2.55110155065e-08
7.43191235132e-06
-2.34970079108e-08
7.43956616364e-06
-2.15692428446e-08
7.44715309071e-06
-1.97380816775e-08
-1.8042322295e-08
7.45462722397e-06
6.38293510701e-06
-4.81675712617e-08
6.39208938414e-06
-5.58627964338e-08
6.39884919786e-06
-5.30154832548e-08
6.40544031507e-06
-5.21539142034e-08
6.41189138231e-06
-5.12041513937e-08
6.41819689194e-06
-4.94891504526e-08
6.42446530922e-06
-4.74018691481e-08
6.43076545213e-06
-4.52029691329e-08
6.43712349066e-06
-4.2970684652e-08
6.44354811688e-06
-4.07333254246e-08
6.45004047933e-06
-3.8515235697e-08
6.4565958989e-06
-3.63379976553e-08
6.46320423679e-06
-3.42162121205e-08
6.46984959673e-06
-3.21560413199e-08
6.47650736011e-06
-3.01544636664e-08
6.48313715526e-06
-2.81987498278e-08
6.48967500489e-06
-2.62756442862e-08
-2.44041425603e-08
6.49603714444e-06
5.56202650732e-06
-6.47291024586e-08
5.56966532576e-06
-6.3501164345e-08
5.57560107633e-06
-5.89508465522e-08
5.58137816319e-06
-5.79304791932e-08
5.58678294661e-06
-5.66084065301e-08
5.59192986593e-06
-5.46356556165e-08
5.59695427003e-06
-5.24258460845e-08
5.60191774696e-06
-5.01660558373e-08
5.60684881248e-06
-4.79014062187e-08
5.61176571402e-06
-4.56499220415e-08
5.61668046545e-06
-4.34296095699e-08
5.62159914236e-06
-4.12563195346e-08
5.62652319325e-06
-3.91399423643e-08
5.63145001854e-06
-3.70825471044e-08
5.63637016243e-06
-3.50743130634e-08
5.64125334452e-06
-3.30816715861e-08
5.64600477143e-06
-3.10268111844e-08
-2.8695138602e-08
5.65029607716e-06
4.8460862529e-06
-8.32075878853e-08
4.8477928373e-06
-6.52072574201e-08
4.84865254713e-06
-5.98100809402e-08
4.84823687051e-06
-5.7514195853e-08
4.84665625128e-06
-5.50271827705e-08
4.84434335007e-06
-5.23222683732e-08
4.84155589791e-06
-4.96379074728e-08
4.83844309479e-06
-4.70528045221e-08
4.83511781249e-06
-4.45757367831e-08
4.83167365373e-06
-4.22053768296e-08
4.82818631318e-06
-3.99418179682e-08
4.8247152667e-06
-3.77848560712e-08
4.82130767254e-06
-3.57319726448e-08
4.81800291148e-06
-3.37774185683e-08
4.81483792466e-06
-3.19089905997e-08
4.81184963613e-06
-3.00930896381e-08
4.80906559534e-06
-2.8242453283e-08
-2.55514582902e-08
4.80592224933e-06
4.11946868229e-06
4.05426146245e-06
3.99445143472e-06
3.93693729827e-06
3.88191016565e-06
3.82958795216e-06
3.77995009976e-06
3.73289734679e-06
3.68832166268e-06
3.64611635475e-06
3.60617460661e-06
3.56838981652e-06
3.53265791391e-06
3.49888056507e-06
3.46697163885e-06
3.43687862017e-06
3.4086362514e-06
3.3830848708e-06
6.2220710422e-08
-6.22161560915e-08
9.96232107427e-08
-3.73975176135e-08
9.81091876295e-08
1.51652610826e-09
6.01538522129e-08
3.79594221848e-08
-2.33746745729e-08
8.35300781462e-08
-1.48021879553e-07
1.24649916588e-07
-2.83727174687e-07
1.35705537236e-07
-4.27835230239e-07
1.44109948049e-07
-5.79654948542e-07
1.51819907383e-07
-7.38334988981e-07
1.58681956782e-07
-9.03008820828e-07
1.64674219212e-07
-1.07285815994e-06
1.69851358229e-07
-1.24714556882e-06
1.74287909945e-07
-1.425204532e-06
1.78061008358e-07
-1.60644785209e-06
1.81243813729e-07
-1.79035021819e-06
1.83904361225e-07
-1.97645431537e-06
1.86104439468e-07
-2.16435261242e-06
1.87900225198e-07
-2.35369398743e-06
1.89341742452e-07
-2.54416583875e-06
1.90473715833e-07
-2.73550060164e-06
1.91335087077e-07
-2.92745850839e-06
1.91959782217e-07
-3.11983428151e-06
1.92376203732e-07
-3.31244047005e-06
1.92608078728e-07
-3.50511372357e-06
1.92673836129e-07
-3.69769931091e-06
1.92587413822e-07
-3.89005641638e-06
1.92357674143e-07
-4.0820438125e-06
1.91989166781e-07
-4.27352459873e-06
1.91481474398e-07
-4.46435283323e-06
1.90829982771e-07
-4.65437746592e-06
1.90025303287e-07
-4.84342986073e-06
1.89054124398e-07
-5.03132774377e-06
1.87898663093e-07
-5.21786375767e-06
1.86537728057e-07
-5.40280945805e-06
1.8494643893e-07
-5.58590528966e-06
1.83097563331e-07
-5.76686593868e-06
1.8096148194e-07
-5.94537209564e-06
1.78507989074e-07
-6.12107770711e-06
1.75706572221e-07
-6.29360434585e-06
1.72528565458e-07
-6.4625509552e-06
1.68947651852e-07
-6.62749122526e-06
1.64942222867e-07
-6.78798604696e-06
1.60495868774e-07
-6.94358372556e-06
1.5559958951e-07
-7.0938345309e-06
1.50251784161e-07
-7.23829251501e-06
1.444598328e-07
-7.37653073047e-06
1.3823919824e-07
-7.50814300512e-06
1.31614141999e-07
-7.6327576677e-06
1.24615716984e-07
-7.75003712971e-06
1.17281492637e-07
-7.85968855871e-06
1.09652774254e-07
-7.96146026988e-06
1.01774075802e-07
-8.05514863995e-06
9.36901318898e-08
-8.14059168748e-06
8.54457423209e-08
-8.21767255619e-06
7.70828941681e-08
-8.28631179455e-06
6.86422547092e-08
-8.34647162225e-06
6.01622384717e-08
-8.39814811092e-06
5.16798232669e-08
-8.4413759911e-06
4.32304721327e-08
-8.47621840088e-06
3.48460378732e-08
-8.50277562745e-06
2.65601274208e-08
-8.5211814804e-06
1.84096969706e-08
-8.53160232894e-06
1.04237436823e-08
-8.53421907865e-06
2.62075001647e-09
-8.52927859213e-06
-4.93745977766e-09
-8.51716161294e-06
-1.2112769765e-08
-8.49835028484e-06
-1.88081952249e-08
-8.47334939172e-06
-2.49965782651e-08
-8.44266518355e-06
-3.06811649549e-08
-8.40677182067e-06
-3.58891241929e-08
-8.36609850126e-06
-4.06704151417e-08
-8.32100004408e-06
-4.5094197777e-08
-8.27174699543e-06
-4.92501127361e-08
-8.21849655915e-06
-5.32457439635e-08
-8.16128421777e-06
-5.72088311853e-08
-8.09999326108e-06
-6.12852379239e-08
-8.03434663255e-06
-6.56420714362e-08
-7.9638751275e-06
-7.04649983284e-08
-7.88791049411e-06
-7.59599316201e-08
-7.80555484235e-06
-8.23485314974e-08
-7.71568255099e-06
-8.98670490891e-08
-7.61692029221e-06
-9.87545804487e-08
-7.50767261512e-06
-1.09242564351e-07
-7.38613205267e-06
-1.21531679224e-07
-7.25035650495e-06
-1.35769109577e-07
-7.09833738525e-06
-1.52009390654e-07
-6.92814758486e-06
-1.70184458538e-07
-6.73807469636e-06
-1.90068528543e-07
-6.52681162207e-06
-2.11264862939e-07
-6.29361662705e-06
-2.3320438495e-07
-6.03844785641e-06
-2.55176779148e-07
-5.76205422482e-06
-2.76400198843e-07
-5.46597129532e-06
-2.96087849148e-07
-5.15246804656e-06
-3.13508804089e-07
-4.82443063765e-06
-3.28042343226e-07
-4.48520876196e-06
-3.39227624746e-07
-4.1384119026e-06
-3.4680143987e-07
-3.7877394819e-06
-3.50676836639e-07
-3.43681526445e-06
-3.5092610194e-07
-3.08900234762e-06
-3.47812580839e-07
-2.74734781886e-06
-3.41648873038e-07
-2.41442180965e-06
-3.32908993021e-07
-2.09238599138e-06
-3.22008771394e-07
-1.78289824411e-06
-3.09440913795e-07
-1.48729360544e-06
-2.9555460329e-07
-1.20640645121e-06
-2.80820777478e-07
-9.406389021e-07
-2.65705904812e-07
-6.90761824064e-07
-2.49792667863e-07
-4.58081301671e-07
-2.32592344386e-07
-2.21983938081e-07
-2.35991316401e-07
3.0593964385e-08
-2.52473644254e-07
2.77105890296e-07
-2.4642564983e-07
4.95678662793e-07
-2.1852793305e-07
6.8682501768e-07
-1.91103895204e-07
8.55863896625e-07
-1.69020378619e-07
1.00635295003e-06
-1.50466579791e-07
1.14059545389e-06
-1.34239247208e-07
1.26029413953e-06
-1.19692900529e-07
1.36677163875e-06
-1.06486660301e-07
1.46116838815e-06
-9.4393677905e-08
1.54445103693e-06
-8.32749614721e-08
1.61749736486e-06
-7.30154041443e-08
1.68106771377e-06
-6.35408013221e-08
1.73588037626e-06
-5.47754228128e-08
1.78257170223e-06
-4.66719893837e-08
1.82176185456e-06
-3.91703590753e-08
1.85399904613e-06
-3.22353440904e-08
1.87982277271e-06
-2.58195077366e-08
1.89971286747e-06
-1.99004885099e-08
1.91415539462e-06
-1.44490232956e-08
1.92360958778e-06
-9.47287458796e-09
1.92861593735e-06
-5.02072646983e-09
1.92988563386e-06
-1.29451602169e-09
1.9280671372e-06
1.79760266943e-09
1.92343979213e-06
4.59731264336e-09
1.9162038182e-06
7.20896553502e-09
1.90657376494e-06
9.59486931076e-09
1.89479504064e-06
1.17433002017e-08
1.88108400839e-06
1.36667279856e-08
1.86564983739e-06
1.53893062994e-08
1.84867704365e-06
1.69278662245e-08
1.83033776213e-06
1.83006668312e-08
1.81078337669e-06
1.95214859064e-08
1.7901525138e-06
2.06038063218e-08
1.76857053142e-06
2.15580538352e-08
1.74615454287e-06
2.23954514838e-08
1.72301076954e-06
2.31247437225e-08
1.69923837587e-06
2.37555078512e-08
1.67492671885e-06
2.42952557339e-08
1.65015914193e-06
2.47524399187e-08
1.62501035069e-06
2.51333609663e-08
1.59954995728e-06
2.54457248258e-08
1.57383958658e-06
2.5694993932e-08
1.54793672788e-06
2.58881647077e-08
1.5218909743e-06
2.60302646711e-08
1.49574852085e-06
2.61278516436e-08
1.46954829866e-06
2.61848942687e-08
1.44332663987e-06
2.6207499007e-08
1.41711171767e-06
2.62000869078e-08
1.39092936697e-06
2.61689051096e-08
1.36479759744e-06
2.61176114736e-08
1.33873203721e-06
2.60529508129e-08
1.31273921216e-06
2.59794266312e-08
1.28682368822e-06
2.5903840622e-08
1.26097944676e-06
2.58317259803e-08
1.23519677117e-06
2.57720697115e-08
1.20945193421e-06
2.57333868162e-08
1.18371418214e-06
2.5728358679e-08
1.15793527742e-06
2.57686184659e-08
1.13205405751e-06
2.58730099414e-08
1.10598062744e-06
2.60642044217e-08
1.07959769042e-06
2.63756377122e-08
1.05273877869e-06
2.68504212704e-08
1.02517606666e-06
2.75559221395e-08
9.96572849794e-07
2.85950767388e-08
9.66425533802e-07
3.01405245341e-08
9.33916532448e-07
3.25007627053e-08
8.97491183643e-07
3.64187543174e-08
8.54773436738e-07
4.27113823393e-08
7.0328777467e-08
7.84440443569e-07
-2.46729851732e-08
-3.7537571515e-08
-9.8825635679e-08
3.67597920056e-08
-2.05720623633e-07
1.08413430616e-07
-3.22274392002e-07
1.54514720043e-07
-4.35073593279e-07
1.96330072909e-07
-5.4412824893e-07
2.33705704776e-07
-6.69375283682e-07
2.60953139849e-07
-8.07529327271e-07
2.8226518033e-07
-9.55425266624e-07
2.99716480955e-07
-1.11102687825e-06
3.14284880329e-07
-1.27289976832e-06
3.2654781606e-07
-1.43994192894e-06
3.36894970288e-07
-1.61126708667e-06
3.45613833124e-07
-1.78613567033e-06
3.52931098813e-07
-1.96392496739e-06
3.5903385265e-07
-2.14410037063e-06
3.6408123848e-07
-2.32620617184e-06
3.68210889325e-07
-2.50984747029e-06
3.71542895554e-07
-2.69468725587e-06
3.74182108288e-07
-2.8804319616e-06
3.76219792131e-07
-3.06683093909e-06
3.77734617408e-07
-3.25366349842e-06
3.78793627692e-07
-3.44073938897e-06
3.79452727408e-07
-3.62788729101e-06
3.79757333646e-07
-3.81495547636e-06
3.79742709566e-07
-4.00180120424e-06
3.7943444799e-07
-4.18829135083e-06
3.78848588062e-07
-4.37429277374e-06
3.77991972971e-07
-4.55967267997e-06
3.76862260121e-07
-4.74428953478e-06
3.75448231414e-07
-4.92799303747e-06
3.7372977859e-07
-5.11061574031e-06
3.71678298332e-07
-5.29197290687e-06
3.69256884347e-07
-5.47185475505e-06
3.66421068106e-07
-5.65002665104e-06
3.63119438188e-07
-5.82622254444e-06
3.59294998013e-07
-6.00014633034e-06
3.54886466433e-07
-6.17146716515e-06
3.49830451776e-07
-6.33982283291e-06
3.44063542865e-07
-6.50481781973e-06
3.3752524524e-07
-6.66602946373e-06
3.30160653023e-07
-6.82300935624e-06
3.21923806948e-07
-6.97529259756e-06
3.12780452675e-07
-7.1224024255e-06
3.02711048758e-07
-7.26386189302e-06
2.9171252661e-07
-7.39920041036e-06
2.79799893904e-07
-7.52796615944e-06
2.67006190664e-07
-7.64973249755e-06
2.53382034335e-07
-7.76410872196e-06
2.38993251177e-07
-7.87074396478e-06
2.23918387689e-07
-7.96933452256e-06
2.08244883993e-07
-8.05962391219e-06
1.92065456628e-07
-8.14140567525e-06
1.75473791284e-07
-8.21451966454e-06
1.58561988743e-07
-8.27885348898e-06
1.4141895487e-07
-8.33433873347e-06
1.24130166744e-07
-8.38095018329e-06
1.06776294625e-07
-8.41870103277e-06
8.94336457507e-08
-8.44764083128e-06
7.21732198519e-08
-8.46786546122e-06
5.50740262798e-08
-8.47952050749e-06
3.82184363733e-08
-8.48278579595e-06
2.16785760481e-08
-8.4778854723e-06
5.5268777094e-09
-8.46516601196e-06
-1.00949145043e-08
-8.44521613788e-06
-2.4883681012e-08
-8.41867199153e-06
-3.86529230572e-08
-8.38605176433e-06
-5.14246381658e-08
-8.34783541627e-06
-6.32088996952e-08
-8.30447048375e-06
-7.40424081519e-08
-8.25636347088e-06
-8.39922796148e-08
-8.20387256881e-06
-9.31577950105e-08
-8.14729337752e-06
-1.01669563997e-07
-8.08684978798e-06
-1.09690128952e-07
-8.02267705489e-06
-1.17414390758e-07
-7.9548089993e-06
-1.25072678493e-07
-7.88315501914e-06
-1.32934157652e-07
-7.80748001446e-06
-1.41312046733e-07
-7.72737320064e-06
-1.50566223248e-07
-7.64222273431e-06
-1.61104902009e-07
-7.55118328817e-06
-1.73381714652e-07
-7.45315625053e-06
-1.87888172858e-07
-7.34676942586e-06
-2.05134834445e-07
-7.23038271995e-06
-2.25622814469e-07
-7.10210752549e-06
-2.49799049108e-07
-6.95987283087e-06
-2.77995912606e-07
-6.8015182747e-06
-3.10355370149e-07
-6.62494142456e-06
-3.46754050372e-07
-6.42827083422e-06
-3.86733971197e-07
-6.21007696361e-06
-4.29461858546e-07
-5.96955762612e-06
-4.73729984962e-07
-5.70670308508e-06