/*--------------------------------*- C++ -*----------------------------------*\
| =========                 |                                                 |
| \\      /  F ield         | OpenFOAM: The Open Source CFD Toolbox           |
|  \\    /   O peration     | Version:  v1806                                 |
|   \\  /    A nd           | Web:      www.OpenFOAM.com                      |
|    \\/     M anipulation  |                                                 |
\*---------------------------------------------------------------------------*/
FoamFile
{
    version     2.0;
    format      ascii;
    class       volScalarField;
    location    "17";
    object      rho;
}
// * * * * * * * * * * * * * * * * * * * * * * * * * * * * * * * * * * * * * //

dimensions      [0 0 0 0 0 0 0];


internalField   nonuniform List<scalar> 
12225
(
0.584907930269
0.64832626293
0.627885728119
0.62804047169
0.616060268271
0.61176178735
0.605806908131
0.601789068427
0.599673176039
0.600635186008
0.606143857732
0.614820665049
0.621820112741
0.633697328877
0.657281703477
0.688143442841
0.728162220843
0.761991380933
0.757558682926
0.697652642448
0.66483098206
0.669553348171
0.660381980074
0.658001016533
0.65425365126
0.651939561832
0.650681439569
0.651161916738
0.654742500257
0.66118851991
0.667940927477
0.67795290976
0.695776230994
0.718871295592
0.744287521358
0.746961037702
0.60661900418
0.67892516151
0.660369741233
0.662149222342
0.652370071501
0.649039085443
0.644532153734
0.641529180554
0.639485377995
0.638903603339
0.640478972971
0.644348874549
0.650018795064
0.65910569407
0.673984160189
0.692674190357
0.709976561711
0.705163969155
0.670371203118
0.691585089301
0.664497960429
0.670482797376
0.661620568252
0.659917417232
0.656742805145
0.654862743269
0.653616569682
0.653419311075
0.654597270986
0.657325818488
0.661752061911
0.668822651417
0.679449951403
0.69155001884
0.699416246729
0.689941375657
0.639441869469
0.690796390411
0.666012318245
0.672937626594
0.6649801854
0.664210113413
0.661938605836
0.660981596698
0.660681181443
0.661357545733
0.663143156799
0.666132920265
0.670557131292
0.676859722073
0.684980056251
0.692623700267
0.694791477175
0.684421505643
0.650279467259
0.694791734663
0.669220710635
0.67758430435
0.670177032061
0.670142689282
0.668422800641
0.667975112273
0.668121545338
0.669124330617
0.671032762639
0.673889190344
0.67785339725
0.683026739901
0.688820517732
0.692998365337
0.691842845353
0.682017884303
0.648026766117
0.696210241616
0.671805828624
0.681039672859
0.67431328815
0.674937963337
0.673739041562
0.673739305776
0.674241471163
0.675458324807
0.677387404934
0.68002444488
0.683399639833
0.68738033284
0.691144978083
0.692765990837
0.689764497336
0.680783544062
0.649832794006
0.697685020866
0.674021974319
0.684015808304
0.677854053974
0.679016032171
0.678214353035
0.678533066424
0.67923001696
0.680500158218
0.682316609544
0.684630224
0.687348114951
0.690188734408
0.692275489323
0.69209902942
0.688121393155
0.680002220538
0.650879388238
0.69847674951
0.675818662282
0.686340843523
0.680714210766
0.682334350067
0.681862193317
0.682402144111
0.683177324354
0.684390012376
0.686001646167
0.687912505653
0.689939476919
0.691725304975
0.692471707139
0.69105106501
0.686605275979
0.679220439857
0.651748717199
0.698814970988
0.677051403171
0.687957095906
0.68278013584
0.684776473601
0.684545907337
0.685213894051
0.685995230157
0.687099956324
0.688454187776
0.689909247279
0.691232067411
0.692066616245
0.691753818383
0.689501500741
0.684880244021
0.678181370436
0.651686408513
0.69889433819
0.677427281437
0.688679457619
0.683760454283
0.685971258621
0.685822312578
0.686515155824
0.68724262923
0.688186433689
0.689235629829
0.690236665447
0.690954559527
0.69107683714
0.6900855806
0.687450943586
0.683006273754
0.677067832915
0.64765725778
0.69877570105
0.675934034056
0.687767198354
0.682786880595
0.685094190618
0.684961538088
0.685651998509
0.686281598732
0.687061604042
0.687939088743
0.688739427574
0.689216972006
0.68907396567
0.687914016458
0.685374591668
0.681388244188
0.676262883809
0.644338384087
0.698090579862
0.674427412405
0.686671405713
0.68186901498
0.684347773971
0.684315416023
0.685082320694
0.685801175709
0.686661022498
0.687549009961
0.688285487247
0.688590621338
0.688248662093
0.68693495481
0.684434055594
0.680777956708
0.676237696663
0.640297370429
0.697233774229
0.67270668197
0.685489192439
0.680900621918
0.68373525203
0.684010830772
0.684999142864
0.685828492836
0.686690716024
0.687465917331
0.687959431219
0.687928144514
0.687222293384
0.68567071419
0.68314455698
0.679788659524
0.675755237493
0.635027823131
0.696294447839
0.670541708758
0.684052592479
0.679683196613
0.682938316365
0.683563563176
0.684813774549
0.685771894111
0.686594450251
0.687196339416
0.687373709452
0.686946592121
0.68589197623
0.684126382424
0.681624046634
0.678543917797
0.675030055884
0.629473411648
0.695287166649
0.668064303721
0.68229487037
0.678036993151
0.681652876788
0.682536722111
0.683978304125
0.684989703405
0.685761879558
0.686165724262
0.686084891481
0.685357071742
0.68408798645
0.682234385568
0.679848493258
0.677068193644
0.673993280781
0.624438732294
0.694362635231
0.665544897678
0.680358976022
0.676060682205
0.679889992616
0.680879381961
0.682377613044
0.683360119663
0.684012933902
0.684266028217
0.683992287533
0.68310829889
0.681748425945
0.679941705553
0.677719256591
0.675252591568
0.672538084467
0.619672452635
0.693650631315
0.663134843096
0.678423632285
0.673939237507
0.677833626004
0.678780112142
0.680235318068
0.681125592952
0.681658839984
0.681784159651
0.681393664691
0.680439272975
0.679087986175
0.677381028928
0.675344951347
0.673145728307
0.670747513237
0.617043939232
0.693549964025
0.661846582652
0.677318930249
0.672535207182
0.676281093435
0.676996945085
0.678243622412
0.678915563906
0.679242015195
0.679187817694
0.678667727561
0.677647987009
0.676310632205
0.674690110305
0.672800854402
0.67079719065
0.668634224254
0.622460828279
0.694200704307
0.663449710376
0.678053928329
0.672786759728
0.675853808978
0.675923136007
0.676508949258
0.676586036853
0.676383654184
0.675897545745
0.675059938577
0.673832973379
0.672384722015
0.670744682854
0.668917174669
0.667040853177
0.665080838902
0.626887509419
0.695313160963
0.665353736353
0.679327013277
0.673685948578
0.676212522263
0.675770749719
0.675878210279
0.675500013831
0.674922532723
0.674133481237
0.673089194549
0.671717952042
0.670211849158
0.668560804249
0.666788649989
0.664989983329
0.663155810104
0.629620205617
0.696279946159
0.66724315549
0.680673107878
0.674749325841
0.676802527232
0.675946197049
0.675638189811
0.674906144956
0.674030046822
0.672998877368
0.671791885641
0.670323879754
0.66876397415
0.667114615142
0.665374878814
0.66364561808
0.661882587769
0.635544377769
0.697923832836
0.669020149569
0.681969043832
0.675740322023
0.677340678312
0.676085185241
0.675398752407
0.674336569358
0.673169307546
0.67192917471
0.670551712648
0.66897079762
0.667333376374
0.665665033066
0.663915657246
0.662208502984
0.660492490823
0.633275853724
0.698437593755
0.67130144747
0.683591929692
0.677110973784
0.678253363038
0.676621097938
0.675563084157
0.674195635778
0.672782904377
0.671335621785
0.66981228202
0.668125690608
0.666427936311
0.664700875444
0.662932513886
0.661210409465
0.659526496553
0.652350219926
0.701029057854
0.672725563564
0.684459508512
0.677679187263
0.678389077779
0.676401996891
0.67504235662
0.67341122745
0.671775017766
0.67014695787
0.668507185297
0.666735218916
0.664977768811
0.663225958565
0.661423001266
0.659651113226
0.657920777605
0.621548984519
0.70017915944
0.676273441846
0.68703576501
0.680180275808
0.680472131737
0.678243356729
0.676606049798
0.674737679299
0.672871650512
0.671052873667
0.66925412188
0.667363853889
0.665490760962
0.66363228912
0.661750654504
0.659920880752
0.658285301346
0.702382591375
0.705182450667
0.67798055595
0.687531623134
0.680474118042
0.680230304557
0.677634904372
0.675659052311
0.67347734303
0.671302522757
0.669159637591
0.667183439396
0.665193046498
0.663227348894
0.661335881743
0.659422637224
0.65749102108
0.655378885715
0.569223935154
0.698592132865
0.686769637515
0.693560512993
0.686888337124
0.686413940109
0.683955351947
0.682152084301
0.680216566796
0.678292226101
0.676516326945
0.67486172321
0.673135025783
0.671420481601
0.669726276311
0.667901422282
0.665974491136
0.664432994446
0.829581550916
0.71940164781
0.693436674655
0.700057426721
0.693574134717
0.692502013108
0.689446912362
0.686708282135
0.683589729311
0.680221306823
0.676715825548
0.673433967981
0.670110968779
0.666652723449
0.663145439886
0.659575550872
0.655896447175
0.652329153159
0.649150105893
0.681590851601
0.677157452106
0.678756100602
0.67101583514
0.670018650953
0.667382906853
0.66534738377
0.663280969094
0.661468847602
0.660010752955
0.658650778581
0.657227535055
0.656133496218
0.655364753092
0.654722483096
0.654400067264
0.653639591312
0.500151174784
0.4997907883
0.499605619863
0.499624169753
0.499837944906
0.500209007339
0.500638343599
0.501092718759
0.501546038844
0.501979968971
0.502382355227
0.502745960023
0.503067128496
0.50334475041
0.503579515044
0.50377340035
0.503929032871
0.504049812028
0.504138903992
0.504199332571
0.504234423705
0.504246379806
0.504238475567
0.504211372413
0.504166938651
0.504104675391
0.50402616185
0.503931036958
0.503819877054
0.503691791319
0.503546981529
0.503384859787
0.503205770357
0.503008875627
0.502794351517
0.502562309485
0.502313874427
0.502048311907
0.50176680665
0.501469445759
0.501157628216
0.500832151548
0.500494736598
0.500147083916
0.499791343702
0.499430097205
0.499065961104
0.498702078366
0.498341710825
0.49798781169
0.497643228274
0.497309313163
0.496989202947
0.496687077779
0.496408283414
0.496157902284
0.495941311133
0.495763851643
0.495631018007
0.495548022309
0.495518900643
0.49554481448
0.495626652672
0.495767206315
0.495967450013
0.496224244437
0.496535543295
0.496899253228
0.497312036628
0.497771084967
0.49827208556
0.498811141166
0.499383446427
0.499984738372
0.500610323594
0.501256192976
0.501918351499
0.502592218472
0.503273961476
0.503960917696
0.504651006329
0.505340904768
0.506028531963
0.506711197971
0.507389705209
0.508061429494
0.508726366892
0.50939083038
0.510051143502
0.510710778233
0.511370431377
0.512030294006
0.512692393589
0.513329987155
0.513928184166
0.514524782188
0.515151489518
0.515793461768
0.516448712711
0.517111076228
0.517886070086
0.518752088883
0.518884792617
0.51891773877
0.519115206769
0.519532598272
0.520137451147
0.520449824855
0.520825423842
0.52116764318
0.521440072722
0.521680117862
0.521899341212
0.52210024147
0.522284579586
0.522455426708
0.522615739917
0.52276885695
0.522915787277
0.523055634015
0.523185099392
0.523302997607
0.523410687001
0.523509315008
0.523601767635
0.52368932924
0.523772769093
0.523852618606
0.523929278088
0.52400317978
0.524074731121
0.524144184134
0.524211758194
0.524277464823
0.524341325752
0.524403250589
0.524463196878
0.524521499028
0.524577623907
0.524631320054
0.524680690046
0.524727042709
0.524769515655
0.524806601044
0.524836614838
0.524857759889
0.524868941356
0.524869377266
0.52485838891
0.524835458056
0.52479951352
0.524749047213
0.524682346556
0.524597794429
0.524493627003
0.524368043462
0.524218995876
0.524044259371
0.523840874186
0.523605258515
0.523332037043
0.523015501827
0.522647562095
0.522216901189
0.521708020986
0.521103867988
0.520383395388
0.519529989056
0.518530315372
0.517361425564
0.516010320383
0.514480503036
0.512790795095
0.510981881091
0.509112980491
0.5071289899
0.505082679549
0.503048903405
0.501135140127
0.499616518792
0.500052239026
0.499814106355
0.499910710952
0.500197659811
0.500547701083
0.500906557626
0.501252172217
0.501574378316
0.501868752455
0.502132974277
0.502366419903
0.502568218229
0.502739057555
0.502879249845
0.502990186748
0.50307306042
0.503129825407
0.503162415272
0.503173445011
0.503164523283
0.5031383012
0.503096280133
0.503040869289
0.502972300466
0.502892001394
0.5027991272
0.5026945449
0.502577406559
0.502447512904
0.502303543597
0.502145341245
0.501971923112
0.501782726913
0.501576586509
0.501353868809
0.501113894985
0.500857011407
0.500582978946
0.500292350123
0.499985037928
0.499662060878
0.49932423122
0.498973065596
0.498610341999
0.498238332537
0.497859817738
0.49747816795
0.497096989382
0.496720895525
0.496355015777
0.496006906068
0.495681544689
0.495381765254
0.495110452387
0.494871425588
0.494668456357
0.494505273916
0.494387498772
0.494320989584
0.494307749387
0.494349160051
0.494447411886
0.494602148916
0.494809434029
0.495070101257
0.49538653383
0.495758682451
0.496186058833
0.49666759596
0.497202161255
0.497787729946
0.498422098343
0.499101879172
0.499823469722
0.500582743442
0.501375045614
0.502195278048
0.503038136648
0.503898128291
0.504771245179
0.505654375494
0.506543637342
0.507434759469
0.50832574181
0.50921804254
0.510106101474
0.510982866977
0.511857640714
0.512750976136
0.513644189387
0.514506601216
0.515371898648
0.516280500275
0.517202591351
0.518053541026
0.518828923262
0.519638218983
0.52029890323
0.520954942361
0.521645336058
0.522310295368
0.523107680652
0.523690847181
0.524321105968
0.524901099546
0.525456353212
0.525771953212
0.526013518473
0.526227409479
0.52643094789
0.526659730972
0.526912671995
0.5271648427
0.527415736438
0.527663292849
0.527908069155
0.528151460894
0.528395341506
0.528640414549
0.528883955005
0.529122121713
0.529353061596
0.52957667699
0.529794626737
0.530008812125
0.53022013483
0.530429270987
0.530636624448
0.530842654581
0.531047513242
0.531251263084
0.531453903422
0.531655538994
0.53185626852
0.532056446408
0.532256369255
0.532456664387
0.532658149122
0.532861512891
0.533066358244
0.533272348545
0.533480646681
0.533691618312
0.533904977913
0.534119864102
0.53433586071
0.534553385761
0.534773452998
0.534997313873
0.535226010499
0.535460686403
0.535702585141
0.535952959075
0.536212536117
0.536481211071
0.536758189494
0.537041513501
0.537328608982
0.537615903376
0.537900115065
0.53817621095
0.538438603723
0.53868182721
0.538901772084
0.539094643515
0.539257381091
0.539393611639
0.539495566183
0.539563981875
0.539600302646
0.539602899286
0.539564730301
0.539475919357
0.539331417733
0.539063403201
0.538765000952
0.538417955502
0.538028375268
0.537640112613
0.53722989279
0.500415282587
0.500339484892
0.500377223298
0.500496855179
0.500623469294
0.5007281708
0.500820200207
0.500906476424
0.500990952624
0.501073689182
0.501153889045
0.501229747399
0.501299484412
0.501361158067
0.501413363379
0.501454898723
0.501485289504
0.501504222819
0.501512124601
0.50150945414
0.501497142784
0.501475214578
0.501445233933
0.50140683686
0.501360419555
0.50130523611
0.501241479897
0.501167884853
0.501084017068
0.500988517865
0.500880814174
0.50075944764
0.500624050018
0.500473580407
0.500307701124
0.500125882908
0.49992857427
0.499715195303
0.499486300024
0.499242155685
0.498983667618
0.498711842675
0.498428236785
0.498134731068
0.497833664777
0.497527749703
0.497220258183
0.496914760115
0.496615275329
0.496326118157
0.496053434367
0.495803605136
0.495583528306
0.49539769081
0.495249582603
0.495141995252
0.495077257704
0.49505528176
0.495075173325
0.495138442003
0.495247749172
0.495405251215
0.495616255551
0.495884672728
0.496208905879
0.496589884319
0.497028830557
0.497525904677
0.498079599334
0.498687516831
0.499345948694
0.500050474332
0.500796010706
0.501577183127
0.502388524558
0.503224564905
0.5040800403
0.504949704398
0.505828611091
0.506711984238
0.507597606925
0.508482425271
0.509361861446
0.510232942406
0.511099261749
0.511962159665
0.512807076921
0.513630732949
0.514456591884
0.515293951541
0.516108497624
0.516872173761
0.517660343055
0.518448995339
0.519202528331
0.51992272968
0.520583569696
0.521087702265
0.521665878117
0.522433905106
0.523272411794
0.523865521702
0.524172802077
0.524497336909
0.524669691248
0.524889784231
0.525272624702
0.525820274239
0.526331118435
0.52678065331
0.527205899229
0.527597052302
0.527952079929
0.528282292891
0.528593367547
0.528890225008
0.529176649332
0.529455512682
0.52972786741
0.529991625022
0.530244457539
0.530485817545
0.530717046416
0.530940392182
0.531157005592
0.531367632093
0.531572767627
0.531772801735
0.53196806185
0.532159025595
0.532346359637
0.532530740523
0.532712621054
0.532892312856
0.533070126399
0.533246478328
0.533421984685
0.533597077919
0.5337718594
0.533945054283
0.534116467593
0.534287018564
0.534457901224
0.534628817687
0.53479831107
0.534965266328
0.535129226471
0.53529024463
0.535448247792
0.535603120266
0.535754709152
0.535903060457
0.536048066093
0.536189762939
0.536328403902
0.536464508923
0.536598796465
0.536732417999
0.536866544064
0.53700285726
0.537143022939
0.537288711383
0.537441589042
0.537603479736
0.537775687869
0.537959790284
0.538158445263
0.538372138606
0.538597673584
0.538832107256
0.539070445312
0.539302504231
0.539515708324
0.539683911238
0.539780941276
0.539789758427
0.539692646039
0.53948519152
0.539217527871
0.539041739072
0.500885350941
0.50077294087
0.500517237687
0.500381335192
0.500309037173
0.500252976443
0.500219427009
0.500208920501
0.500219658874
0.500248482219
0.500291917262
0.500345785398
0.500406644984
0.500470936439
0.500535903106
0.500599037937
0.500658626015
0.50071329763
0.500762554586
0.500805384497
0.500842156643
0.500872564275
0.500896783826
0.500914175964
0.500925126809
0.500928236386
0.500923181293
0.500908641725
0.500883818646
0.500847052793
0.500797445407
0.500733645188
0.500654780903
0.500559484265
0.500447805131
0.500318799256
0.500172521442
0.500008830318
0.49982830661
0.499631229495
0.499418792772
0.499192264228
0.498953568806
0.498705009234
0.498449366209
0.498189875227
0.497930334944
0.497674616899
0.497427211975
0.497192943367
0.496976464844
0.496781327044
0.496613229872
0.496477023607
0.496377190597
0.496317482676
0.496301341989
0.496330431592
0.496403363438
0.496517429834
0.496672005085
0.496868247169
0.497108885754
0.497399187998
0.49774544717
0.498151587107
0.498619627515
0.4991505826
0.499744094181
0.500398211284
0.501109468381
0.501872760879
0.502681569137
0.503528977433
0.504407646066
0.505309332507
0.506226725568
0.507154279391
0.508084916767
0.509011936567
0.509933133412
0.510849216782
0.511752111583
0.512632474089
0.513498522778
0.514358045567
0.515196755926
0.515981123864
0.516757231706
0.517535278782
0.518280873615
0.518976983095
0.519635530236
0.520277227472
0.520870506089
0.521465460409
0.522122302514
0.522833838937
0.523647837827
0.524420117648
0.524955399346
0.52518175566
0.525342018445
0.525544140148
0.525716435921
0.526031098344
0.526555926259
0.52721108795
0.527847157126
0.528422152043
0.528934524538
0.529380539236
0.529772640313
0.530126460382
0.530451428304
0.530754699256
0.531041313637
0.531314977017
0.531576849924
0.531825934735
0.532061178169
0.532283630661
0.532496308992
0.532701497178
0.532900344486
0.533093493563
0.533281528446
0.533465023348
0.533644596291
0.533820834533
0.533994568301
0.534166336526
0.534336340431
0.534504914964
0.534672489564
0.534839797265
0.535007405526
0.535175396043
0.535342920384
0.535508529456
0.535671805787
0.53583433781
0.535998007952
0.536162795871
0.536327570353
0.536491413485
0.536654074997
0.536815730596
0.536976642391
0.537137101574
0.537297319021
0.537457510223
0.537617558311
0.537777353188
0.537936788899
0.538095738967
0.538253926923
0.538410840138
0.538565817734
0.538718146976
0.538867401735
0.539013116559
0.539154884189
0.539292912631
0.539427846647
0.539561081106
0.53969603124
0.539834939373
0.539979673371
0.540133450619
0.54029806495
0.540471801807
0.540651053557
0.54082699915
0.540981223094
0.541106719876
0.541188941076
0.541230451956
0.541290098182
0.541495051881
0.501430003326
0.5007884236
0.500139719107
0.499898235191
0.49981169523
0.499754801316
0.499721057465
0.499708134604
0.499716557086
0.499744561525
0.499790563208
0.499851737956
0.49992522475
0.500007577352
0.500096029385
0.500187642561
0.500280493027
0.500372378828
0.500462214582
0.50054892006
0.500632018592
0.500710327511
0.50078420938
0.50085249755
0.500914748751
0.500969918274
0.501017409007
0.501055539457
0.501083381981
0.501099286067
0.501102225624
0.50109043862
0.501063266343
0.501019524325
0.500958642312
0.5008798755
0.500783539493
0.50066908384
0.500537115315
0.500388042461
0.50022300466
0.500043222903
0.499850617985
0.499647370675
0.499436229294
0.499220169707
0.499002808102
0.498787933172
0.498579595412
0.498382420288
0.498202554441
0.498044322057
0.49791303252
0.497813806821
0.497750671592
0.497727105684
0.497746924313
0.497812639633
0.497924709671
0.498084565236
0.498293330965
0.498551582975
0.498859684514
0.499216937196
0.499624441084
0.500084915953
0.500600855401
0.501174064081
0.501804568223
0.502491254206
0.503231350492
0.504020520495
0.504851876357
0.505719584439
0.506616914542
0.507535237848
0.508465790816
0.50940508591
0.510349316326
0.511285605697
0.512207594279
0.513125330546
0.514032384876
0.514910329887
0.515770669637
0.516627485528
0.517460234869
0.51824899712
0.518985148461
0.519703352188
0.520420594286
0.521084665791
0.521734517761
0.522353587318
0.522996010887
0.523747693328
0.524557477261
0.525346066477
0.526027683936
0.526466296903
0.526648683256
0.526704089768
0.526824382511
0.527020475358
0.527278788651
0.527681807261
0.52821089899
0.528799705523
0.529376689409
0.529910450095
0.530384896821
0.530797799196
0.531160600414
0.531485766142
0.531782103435
0.532056624536
0.532314588793
0.532559589754
0.532792794115
0.533013726145
0.533222241396
0.533420413223
0.533611399367
0.533797036705
0.533977920885
0.534154197382
0.534326016263
0.534493624424
0.534657397349
0.534817730722
0.534974911276
0.535129241294
0.535281174533
0.53543113955
0.535579736612
0.535727668931
0.535875263698
0.536022126854
0.536166619426
0.536307263496
0.536443772416
0.536578630509
0.536714161893
0.536850797624
0.536987818977
0.537124392803
0.537260254226
0.537395466641
0.537530259592
0.537664904228
0.537799565498
0.53793437705
0.53806949025
0.538205004399
0.538340991751
0.53847739247
0.538614180793
0.538751356881
0.538888790101
0.53902632476
0.539164089716
0.539302207892
0.539440880861
0.539580699589
0.539722239718
0.539866545259
0.540015920489
0.540171421006
0.540333312311
0.540503133575
0.540680407226
0.540862141502
0.541045390252
0.541223602266
0.541386520931
0.541531595795
0.541657045278
0.54178102386
0.541973702741
0.542344743496
0.501922798771
0.500141331909
0.49927798347
0.499267043789
0.499362660227
0.499405943826
0.499425516233
0.499440751913
0.499465088249
0.499504257914
0.499560760181
0.499633037674
0.499719524616
0.499817018436
0.49992323961
0.500035193561
0.500150998601
0.500268432488
0.500386409155
0.500503004081
0.500617921954
0.50073006977
0.500838795695
0.500943021737
0.501042552817
0.501135660466
0.501221559227
0.501298668941
0.501365859535
0.501421316783
0.501463873071
0.501492018267
0.501504746486
0.50150065915
0.501479648808
0.501440793054
0.501384135582
0.50130958899
0.501217872
0.501109420005
0.500985671646
0.500847989151
0.500698534593
0.500539597287
0.500374039026
0.500204819985
0.500035525867
0.499869545014
0.499710830566
0.499563894622
0.49943463986
0.499327320493
0.499247708804
0.499201046191
0.499192027181
0.499224814987
0.499303223687
0.499426611735
0.499593459155
0.499802849909
0.500054787721
0.500349385797
0.500688607791
0.501073988206
0.501510474036
0.502001590735
0.502550927805
0.503160731122
0.503830722745
0.504558066401
0.505340395268
0.506171897146
0.507043664678
0.507947168202
0.508878384673
0.509827501251
0.510780780415
0.511732726133
0.512687137926
0.51363462187
0.514550566399
0.515470432907
0.516377583891
0.517258612943
0.518102085624
0.518903717665
0.519685784569
0.520441824118
0.521171731118
0.521893444377
0.522564849417
0.523230192247
0.523965613946
0.524711689567
0.525474840514
0.526222262641
0.52688665368
0.527423370108
0.527808570369
0.528009022008
0.528092077365
0.528182831128
0.528356359409
0.528603698749
0.528930100387
0.529354795003
0.529843464826
0.530357239477
0.530860567411
0.531332268247
0.531758561393
0.532137838509
0.532476829158
0.532783479101
0.533064343731
0.533325064749
0.533570102826
0.53380211159
0.534021826955
0.534228660922
0.534422882754
0.53460695483
0.534783560177
0.534954168585
0.535119154048
0.53527855174
0.53543243001
0.535581041223
0.535724808834
0.535864285548
0.536000122581
0.536133185707
0.536264187249
0.536393766635
0.536522683201
0.536651723897
0.536781085804
0.536909723405
0.537035659045
0.537156983566
0.537273884864
0.537388972448
0.537504557149
0.537621322756
0.537738712925
0.537856092159
0.537973165852
0.538089936154
0.538206542314
0.538322978885
0.538439322647
0.538555636643
0.538672000214
0.538788572936
0.538905449187
0.53902274294
0.539140519443
0.539258876765
0.539377827037
0.539497426802
0.539617955975
0.539739691302
0.539863077905
0.539988918755
0.540118169523
0.540252101196
0.540392964752
0.540541939145
0.540699583827
0.540867435048
0.541044833038
0.541228974566
0.541417740307
0.541606215477
0.54178639188
0.541957819646
0.542122753662
0.542303334094
0.542566643916
0.542995896915
0.502183134877
0.498787682083
0.498186477899
0.498735254494
0.499065837901
0.499209639738
0.499282306875
0.499335520659
0.499394505975
0.499466518598
0.499555110417
0.499658823848
0.499776503686
0.49990502354
0.500042610126
0.500186322499
0.500334735887
0.500485386697
0.500637327619
0.500789131923
0.500940054588
0.501088560357
0.501234657175
0.501376861273
0.501514458996
0.501646256666
0.501771412735
0.501888144336
0.501995422126
0.50209151852
0.502175335758
0.502245133159
0.502300204721
0.502339421679
0.502362227564
0.502368012302
0.502357122586
0.502329248686
0.502285232543
0.502225732108
0.502152216015
0.502066088451
0.501969503554
0.501864592466
0.501754003652
0.501640154077
0.501526114541
0.501414653381
0.501308668695
0.501211616046
0.50113010962
0.501067730702
0.501030888255
0.501026862483
0.501062105094
0.501142546633
0.501271453119
0.501445588517
0.501663173186
0.501922244012
0.502221795453
0.502559273538
0.502934292091
0.503349457862
0.503812140337
0.504326447758
0.504898020366
0.505531254403
0.506225846056
0.506977724079
0.507783764721
0.508641110738
0.509536930818
0.510457080898
0.511398574888
0.512355491436
0.5133127773
0.514264556598
0.515220431349
0.51616317576
0.517084092232
0.517969137812
0.518814884042
0.519647579269
0.520457544996
0.521233783233
0.521975070746
0.522681840276
0.52339104964
0.524126595551
0.524844976786
0.525579955563
0.526321195866
0.527023432142
0.527682799484
0.52825352804
0.528708546652
0.529042289735
0.529275243026
0.529420386934
0.529544646253
0.529714679415
0.529947137112
0.530234437511
0.530583357332
0.530990362044
0.531428516895
0.531875395468
0.532310986405
0.532721689056
0.533098696885
0.533440616148
0.533750460149
0.534032649496
0.534291488243
0.534531219009
0.534755215829
0.53496549995
0.535162501255
0.535346018874
0.535517077371
0.53567827239
0.535832254644
0.535980507211
0.536123622104
0.536261823536
0.536395340678
0.536524510662
0.536649818617
0.536771851614
0.536891194346
0.537008335188
0.537123686439
0.537237805383
0.537351458658
0.537465355426
0.537579409399
0.537692197843
0.537801502518
0.537905482554
0.538004842187
0.538102141258
0.538199673392
0.538298105171
0.538397057771
0.538496111759
0.538595110253
0.538694181206
0.53879334555
0.538892681218
0.538992191466
0.539091936656
0.539191975549
0.539292358553
0.539393197285
0.539494635437
0.53959676913
0.53969970401
0.539803483579
0.539908261164
0.540014393228
0.540122276769
0.540232421875
0.540345805085
0.540463529134
0.540586913207
0.540718067802
0.540858206054
0.541008018407
0.541168965829
0.541340589033
0.541520546488
0.54170786115
0.541899436127
0.542090001635
0.542281635343
0.542480698927
0.542711096619
0.543032485684
0.543504395828
0.502088148244
0.496931600569
0.497201693915
0.498434450788
0.498900982328
0.499110476043
0.499238441209
0.499350463072
0.499468471739
0.499597078653
0.499739467083
0.499893136333
0.500057946912
0.500230906836
0.500411178359
0.500596074612
0.500784709482
0.50097495825
0.50116631353
0.501356849761
0.501546393836
0.501733603413
0.501917841363
0.502098038781
0.502273991977
0.502444021548
0.502607509082
0.502763014837
0.502909602887
0.503045658313
0.503170268092
0.503282147221
0.503380514324
0.503464283072
0.503533457021
0.503587361148
0.503626213366
0.503650148321
0.503660010975
0.50365640281
0.503640859819
0.503614686115
0.503579819775
0.50353802942
0.503491316323
0.503441331512
0.50338977575
0.503338052303
0.503287727543
0.503240583842
0.503201891244
0.503177772492
0.503176263981
0.503208976324
0.503287570316
0.503422271733
0.503613484547
0.50385436216
0.504140641682
0.504467067547
0.504826634408
0.505211756214
0.505617186397
0.506053291361
0.506528482402
0.507050632728
0.507627431879
0.508267659031
0.508974429679
0.509739387226
0.51055474265
0.511421098373
0.512327976646
0.513248734822
0.514197869719
0.515161280022
0.516116230353
0.517054898047
0.517965630436
0.518843630953
0.519710276628
0.520553868573
0.521363092537
0.522139250569
0.522879816225
0.523590228052
0.524293110631
0.525008405715
0.525738492199
0.526467115989
0.527162174897
0.527844797733
0.528477902024
0.529048736132
0.529555483129
0.529976417171
0.530307778043
0.530555324521
0.530746733297
0.53090717726
0.531082917328
0.531298939334
0.531556381476
0.53185433489
0.532194382791
0.532566055166
0.532951466017
0.533337563244
0.533712634826
0.534068226084
0.534398864753
0.534703010781
0.534981590361
0.535236844257
0.535471624763
0.535689112072
0.535891911288
0.536081563522
0.536258380748
0.536422441246
0.536575058979
0.53671864263
0.536855421471
0.53698668251
0.53711296581
0.537234450494
0.537351277393
0.537463669655
0.537571997201
0.537676737098
0.537778413355
0.537877530239
0.537974698762
0.538070670366
0.538166434461
0.538262690235
0.538359113429
0.538454031855
0.538545053483
0.538630750467
0.538712047514
0.538791374385
0.538870774473
0.53895084015
0.539031362264
0.539112055351
0.539192934592
0.539274089895
0.539355617975
0.539437550728
0.539519859611
0.539602577498
0.539685746952
0.539769463605
0.539853858373
0.539939108098