/*--------------------------------*- C++ -*----------------------------------*\
| =========                 |                                                 |
| \\      /  F ield         | OpenFOAM: The Open Source CFD Toolbox           |
|  \\    /   O peration     | Version:  v1806                                 |
|   \\  /    A nd           | Web:      www.OpenFOAM.com                      |
|    \\/     M anipulation  |                                                 |
\*---------------------------------------------------------------------------*/
FoamFile
{
    version     2.0;
    format      ascii;
    class       volScalarField;
    location    "17";
    object      sensitivity;
}
// * * * * * * * * * * * * * * * * * * * * * * * * * * * * * * * * * * * * * //

dimensions      [0 2 -3 0 0 0 0];


internalField   nonuniform List<scalar> 
12225
(
-2.28496214608
-9.06471742897
-6.80689003392
-7.55155167168
-7.23750515301
-7.34456549549
-7.34372214975
-7.50002222344
-7.76643119887
-8.17810277438
-8.67392410853
-9.11731749008
-9.32170789722
-9.23591538182
-9.41591609356
-11.3621611789
-16.0615140454
-18.8853451501
-20.4778900491
-9.58810431934
-10.9471731064
-10.8031642769
-11.2324300774
-11.5832474389
-12.0588231689
-12.6334790729
-13.331278744
-14.1213952664
-14.931758233
-15.6225119333
-16.0665773157
-16.3479738569
-17.1234945117
-19.6050468954
-23.6515396061
-23.9467974936
8.50301538221
-12.5999833269
-8.00585243575
-9.53283959758
-9.07497049013
-9.36530939076
-9.51029542157
-9.84117751548
-10.2510006085
-10.7398181495
-11.2194477865
-11.5714804673
-11.7042110023
-11.7740446161
-12.4540373202
-14.6841049321
-17.9295362201
-18.3118881099
-25.7562274853
-7.44028585338
-10.4459016918
-9.69208290221
-10.0616792902
-10.2212295049
-10.5221669373
-10.9146687768
-11.3977767572
-11.9300769068
-12.4207536235
-12.745717579
-12.8305679834
-12.8303594377
-13.2655789485
-14.6321820851
-16.1639538822
-15.5463204106
5.90913440761
-10.3735193196
-8.47919252621
-9.25738053316
-9.14146927947
-9.37538547383
-9.60131309777
-9.95937398943
-10.4048185541
-10.9186959342
-11.4236651669
-11.8274286136
-12.0967530722
-12.3825667532
-13.0271420973
-14.1392781626
-14.8966782519
-14.0134282239
-14.0649613138
-10.0396240985
-9.26837421029
-9.63546309221
-9.63471967794
-9.81391382248
-9.9980647563
-10.2729268015
-10.6021737988
-10.9679798484
-11.3109983769
-11.5768568476
-11.7782190146
-12.0650165167
-12.6468962307
-13.4324786162
-13.742930354
-12.9198108852
-6.02151694364
-9.5153599305
-9.14546221261
-9.45429616356
-9.52299182564
-9.7178821182
-9.93195032764
-10.2122458953
-10.5279597317
-10.8545135582
-11.1434999525
-11.3634566552
-11.547602126
-11.8171268751
-12.2733893848
-12.7533589784
-12.788844256
-12.0855905739
-8.59137737216
-9.76621005729
-9.19953274091
-9.51911997825
-9.57340486141
-9.74981113716
-9.94106619591
-10.1869941202
-10.4578175071
-10.7300146539
-10.966196399
-11.1514036035
-11.3223289683
-11.5590172858
-11.8849291252
-12.1343346137
-12.0193074351
-11.4300344345
-8.50301128104
-9.62123375289
-9.31888056735
-9.54382994158
-9.62727632245
-9.78158298669
-9.9568644938
-10.1689236467
-10.3961010135
-10.6166343247
-10.8049368058
-10.9572535369
-11.1052859093
-11.292000693
-11.4979251497
-11.5879144804
-11.4000739688
-10.9066497742
-8.81745604102
-9.58194643817
-9.4179695113
-9.58118788946
-9.67815310197
-9.81092999866
-9.96738712574
-10.1461602883
-10.3322666127
-10.5068724927
-10.6539165538
-10.7752044423
-10.8929210386
-11.0226736331
-11.1287414289
-11.1148813364
-10.8977433438
-10.4807436412
-9.08897962696
-9.5368784993
-9.52062325172
-9.61706389641
-9.72469451107
-9.83387593661
-9.97029230115
-10.1166370558
-10.2648600189
-10.3991094883
-10.5101898791
-10.6011216103
-10.6841275961
-10.7580903153
-10.7868342156
-10.708276872
-10.4838632363
-10.1271725671
-9.29579895126
-9.50587253127
-9.5911311498
-9.63449967896
-9.74544602686
-9.83305704358
-9.94976208011
-10.0677298035
-10.1843270302
-10.2861542524
-10.3678225373
-10.4314635473
-10.4818663031
-10.5108503855
-10.4885986749
-10.3762875587
-10.1573015462
-9.84572153017
-9.48814511347
-9.49520821116
-9.64930999326
-9.64915250873
-9.75807360837
-9.82564276563
-9.92278587825
-10.0145894729
-10.1023772181
-10.1750369242
-10.2296427123
-10.2664474658
-10.2856718097
-10.2768679667
-10.2177670773
-10.0858307831
-9.87603960264
-9.60165373291
-9.67064221651
-9.48913185481
-9.69791771255
-9.65627062477
-9.75797176112
-9.8035978473
-9.87836435172
-9.94267526041
-10.0012395218
-10.0447099458
-10.0712224065
-10.0799830315
-10.0684254486
-10.0268420396
-9.94066004101
-9.7982575003
-9.60134246592
-9.36117742812
-9.85110791578
-9.48449727352
-9.74039959251
-9.6589130516
-9.74787703787
-9.76983358064
-9.8196105903
-9.85561447521
-9.88448652631
-9.89851799598
-9.89662437637
-9.87707371389
-9.8370024029
-9.76929228638
-9.66527801266
-9.5201899327
-9.33833695109
-9.12934621778
-10.007727689
-9.49599162338
-9.77374796864
-9.66068957077
-9.73127802395
-9.72934997903
-9.75295775167
-9.76089475651
-9.76093824372
-9.74672464782
-9.71743341433
-9.67171150221
-9.60762286829
-9.52077239056
-9.40673475301
-9.26429371986
-9.09829905863
-8.91690922387
-10.0836049774
-9.51389598575
-9.78267212385
-9.6489828417
-9.69627415665
-9.67135380644
-9.66891763631
-9.65052755714
-9.6240066025
-9.58428308609
-9.53116264502
-9.46393244542
-9.38197696636
-9.2830275548
-9.16519634113
-9.02877673561
-8.87838558699
-8.72068698331
-10.112637272
-9.52784639722
-9.76624869549
-9.61957858862
-9.64019596995
-9.59436108645
-9.56734582353
-9.52558896941
-9.47616931679
-9.41550136242
-9.34385383377
-9.26134973492
-9.1683103789
-9.06385301782
-8.94720346543
-8.819227359
-8.68400433878
-8.54762885852
-10.1547978979
-9.55611855652
-9.73159964775
-9.57617871313
-9.57041374883
-9.50732084955
-9.45961942504
-9.39910228263
-9.33171105812
-9.25511032802
-9.16995895096
-9.07710266855
-8.97749088964
-8.87082431189
-8.75660969461
-8.63567919162
-8.51126014841
-8.38891799108
-9.87052026361
-9.45967290794
-9.70606725027
-9.55049920081
-9.53824076224
-9.4669172415
-9.41079924169
-9.34283129443
-9.26903142038
-9.18791987469
-9.10059991278
-9.00776044217
-8.91065548368
-8.80930434388
-8.70336585253
-8.59358587563
-8.48332607379
-8.37812167799
-10.8346608738
-9.72719934588
-9.6718530988
-9.51339602361
-9.48702473467
-9.41122452036
-9.34769779825
-9.27204555157
-9.19037503536
-9.10136259774
-9.00553699882
-8.90541826273
-8.80245504066
-8.69641220901
-8.58673545991
-8.47396583849
-8.36029926176
-8.25535770277
-7.75224529715
-9.08325060336
-9.83063627499
-9.65480996055
-9.65969044358
-9.57296259378
-9.50790511179
-9.42830756
-9.34701705746
-9.26082117209
-9.17254149517
-9.0807514297
-8.98676520206
-8.890573567
-8.79153049354
-8.68981505393
-8.58786116767
-8.47686965284
-16.3371078295
-10.2394161416
-9.5928923994
-9.44593224176
-9.41374619528
-9.34700926733
-9.28047590838
-9.20547452581
-9.12622345837
-9.04354662533
-8.95822978126
-8.87277142726
-8.78798248493
-8.70439206617
-8.62167257626
-8.54054071758
-8.46348815526
-8.42703899788
3.76990651976
-8.97222730011
-9.95917901219
-9.95324822675
-9.94544354534
-9.82976295594
-9.74597274357
-9.63625363351
-9.52475140757
-9.40409910982
-9.27631463779
-9.14216749916
-9.00331434465
-8.85819710138
-8.70661729421
-8.55073414682
-8.3945722679
-8.20370894842
-35.9012819182
-9.09992809617
-10.1276133919
-9.35411260462
-9.52618682046
-9.4430253738
-9.4007272339
-9.35457994753
-9.31465484221
-9.28305690035
-9.25905336898
-9.23880953672
-9.22210080984
-9.20809855012
-9.19492476664
-9.17990179971
-9.15911301972
-9.1743743829
31.5599069321
-12.7133174758
-8.69650645393
-10.440898555
-9.87578800178
-9.85506579732
-9.69922628067
-9.55736060715
-9.40538602544
-9.24665155259
-9.08168856801
-8.90849317485
-8.72628183251
-8.53643711302
-8.34300453916
-8.15572486172
-7.98902602435
-7.81120516334
-58.3388757833
-2.75189841848
-12.7121273407
-9.21663035308
-10.2946662614
-9.9439550912
-9.99556775479
-9.93484279852
-9.90488379691
-9.86890015452
-9.83432131079
-9.79731820415
-9.75949384977
-9.72408695759
-9.69682966047
-9.68357144159
-9.68105810438
-9.72439569154
32.2977800334
-17.4432322352
-7.37354113318
-10.6052566202
-9.43639691279
-9.6210489904
-9.39648932009
-9.2914114638
-9.1493781834
-9.0187812483
-8.88648920053
-8.75470453574
-8.62269143711
-8.49112791097
-8.36052200623
-8.2309014401
-8.09848725442
-7.90442129655
-35.0971500469
-6.65541618832
-12.8680986266
-10.7309683452
-11.3643901908
-11.1012392625
-11.1173391491
-11.041226325
-10.9884272079
-10.9247116646
-10.8617208311
-10.7940843553
-10.7239315617
-10.6492599471
-10.5642195431
-10.4609410953
-10.3237710372
-10.2152565272
-1.33255626937
-8.89841199737
-6.38963372997
-6.83716321202
-6.55357772391
-6.45834176287
-6.32128467696
-6.19056689302
-6.05931469355
-5.92919641885
-5.80256834587
-5.67997615163
-5.56370238356
-5.4519488765
-5.34026295111
-5.23025071741
-5.14847165402
-5.10183820318
0.0119288322109
0.018133318447
0.0263822396598
0.0240235954898
0.0162401180903
-0.0186589515742
-0.0536278433409
-0.0922218048718
-0.129817806954
-0.163266152091
-0.191833369518
-0.216352585605
-0.239039375084
-0.262133421302
-0.287970393977
-0.318068971201
-0.35357587998
-0.394822310673
-0.441732522638
-0.493805832691
-0.550272427576
-0.610232710104
-0.672591593667
-0.736406040974
-0.800509541726
-0.864097621039
-0.926219647603
-0.986267254704
-1.04342386099
-1.09729618423
-1.14734710117
-1.19337783263
-1.23506483665
-1.27235808221
-1.3051352951
-1.33339197422
-1.35716579917
-1.37644516344
-1.39128111476
-1.40161502081
-1.40750827512
-1.40882464223
-1.40560561585
-1.39766526603
-1.38504131579
-1.36757769081
-1.34527469483
-1.31809547311
-1.28606096949
-1.24921253362
-1.20760397008
-1.16141679815
-1.11061848499
-1.05547487503
-0.99609330828
-0.932757708822
-0.865591660447
-0.794917162201
-0.720930443326
-0.643975752761
-0.564319198467
-0.482325779048
-0.398545821149
-0.31437249919
-0.230834302248
-0.147349791515
-0.0636247527931
0.0205435653144
0.105151105808
0.190018360476
0.274857658887
0.359307610686
0.442963621511
0.525399406777
0.606175731953
0.684870783085
0.761025433657
0.834306206523
0.904395310544
0.971054898789
1.03404345059
1.09328665083
1.14883193419
1.20102064209
1.25027906815
1.29726609034
1.34270847771
1.38694193113
1.43028052781
1.47206992844
1.51103283976
1.54553206414
1.57286080325
1.59026553011
1.59564395132
1.58786631331
1.56602940479
1.52875973013
1.47490560374
1.40509467797
1.32135160513
1.22609153337
1.10927707748
0.959475274965
0.793274057199
0.625922286423
0.438370119991
0.270193451789
0.160253862665
-0.00748771110636
-0.147995864785
-0.11234526367
-0.135550043723
-0.169886233631
-0.201897638666
-0.233002813906
-0.262221950648
-0.289512469993
-0.315053427407
-0.339202428772
-0.362306664332
-0.384573600901
-0.405971094753
-0.426389659306
-0.445678392753
-0.463747686419
-0.480421104862
-0.495516891604
-0.508725612623
-0.519720298529
-0.528145479158
-0.533696623478
-0.536384065601
-0.536747610365
-0.534846652646
-0.531223963186
-0.52628365963
-0.520321434693
-0.51335547082
-0.505445351984
-0.496858358596
-0.487983958856
-0.47912336966
-0.470375300801
-0.461689192403
-0.453054212313
-0.444459287847
-0.435969187416
-0.427610321051
-0.419435407325
-0.411399378113
-0.403536096741
-0.395811985913
-0.388335641021
-0.381084641522
-0.374174212029
-0.367551069715
-0.361366101187
-0.355562428964
-0.350301663954
-0.345483243041
-0.341379917642
-0.338080511111
-0.336143548169
-0.335881825024
-0.337344248129
-0.34028905773
-0.344813037522
-0.349458723178
-0.351907993666
-0.350167019004
-0.342534839605
-0.338307838576
-0.332103774847
-0.322959205415
-0.321868856553
-0.348374717166
-0.381897096654
-0.406874957478
-0.230248875349
0.0193441822412
-0.00247046545785
-0.0146544119521
-0.0110787062767
-0.00654406051177
-0.00419147350322
-0.00340867479182
-0.00118023443179
0.00445406523018
0.0139193994973
0.026435656478
0.0408978749919
0.0560599446651
0.0711676140405
0.0856954374491
0.0995718823983
0.112847458777
0.125732608452
0.138458895359
0.151222551981
0.164224509897
0.177493224949
0.191187767216
0.205305997371
0.220010832788
0.235304784688
0.251443748632
0.268569867045
0.287097031483
0.3073209637
0.329764143361
0.35482854813
0.383072594654
0.414975435172
0.451034002225
0.491684691867
0.537328084113
0.588332260167
0.644948897512
0.707443008376
0.775911005088
0.850471465566
0.931054962828
1.01761669215
1.10992905099
1.20775824283
1.31073736903
1.41847550692
1.53049949301
1.64621993754
1.76513718013
1.88664480509
2.01021255177
2.13520211913
2.26106037206
2.38712994137
2.51289150137
2.63775437622
2.76122369595
2.88277353887
3.00197407015
3.11858988747
3.23297408165
3.34629176225
3.457771518
3.56503417426
3.66641040477
3.76085571418
3.8475190987
3.92569829011
3.99480835743
4.05440568766
4.10419660265
4.14403808769
4.17388754746
4.19383093447
4.20402157374
4.20469571874
4.19604919972
4.17815187518
4.1507917711
4.11348718856
4.06535262155
4.00516487484
3.93136829683
3.842284341
3.73631657276
3.61243712207
3.47004662203
3.30981085189
3.13392497439
2.94557221933
2.74911808387
2.54876524496
2.34750902048
2.14742022803
1.95088534237
1.76190528278
1.58373117896
1.4162823377
1.24976724345
1.07230224594
0.898795136266
0.745537839351
0.581972139381
0.402961746935
0.269422968095
0.152340412436
-0.132793247398
-0.27669401966
-0.277122131151
-0.347199852989
-0.445062399811
-0.550213980555
-0.648928189559
-0.742800302034
-0.830413435669
-0.91131908581
-0.985456734874
-1.05304578059
-1.11440071169
-1.16972359288
-1.21906197974
-1.26241333236
-1.29990301443
-1.3317757339
-1.35838704759
-1.38004135515
-1.39709872063
-1.40988401879
-1.41870520262
-1.42388215184
-1.4256370443
-1.42396561167
-1.41983587883
-1.41368046969
-1.40574338299
-1.39584790674
-1.38390151869
-1.36997404332
-1.35437889937
-1.33758509041
-1.31990955242
-1.3014416429
-1.28215993492
-1.26211478739
-1.24141513488
-1.22022009606
-1.19865123552
-1.17684725156
-1.15494339228
-1.1331381927
-1.11156857645
-1.09039277789
-1.06967852302
-1.04958831165
-1.03015985368
-1.01146179377
-0.993338287141
-0.975692264466
-0.958249299254
-0.941012504327
-0.923878433365
-0.907000291184
-0.890418169465
-0.874488802834
-0.86025524992
-0.848166276957
-0.837533916913
-0.826372936491
-0.814062174574
-0.799360030325
-0.783095549826
-0.749110258544
-0.713812471721
-0.69340023207
-0.73040126206
-0.801572550713
-0.909531714035
-1.01419550965
-0.00294303705836
0.0144337732806
0.0272887269517
0.0343400388215
0.03951598035
0.0452551256121
0.0548696400112
0.0714449718667
0.0963215025119
0.12859023311
0.165953946071
0.206083728729
0.246991602105
0.287438599711
0.326600107443
0.364101126102
0.399738078341
0.433482516876
0.465414610766
0.495634663347
0.524362233901
0.551768604945
0.5781464528
0.60368837242
0.628729456156
0.653459117934
0.678188666314
0.703096259392
0.728477644887
0.754485449261
0.781349910377
0.809190355909
0.838164263821
0.868319458662
0.899733451626
0.932427216788
0.966381141386
1.00159132414
1.03800988081
1.07561060517
1.11429774125
1.15402319178
1.19464809971
1.23607992675
1.27813270551
1.32064883937
1.36341961611
1.40620775889
1.44878753824
1.49091743372
1.53235617865
1.57284195277
1.61221608234
1.65022871717
1.68668739
1.72135946473
1.75408392045
1.7846723764
1.8129736186
1.83882359672
1.86203911523
1.88237711231
1.89834215908
1.91130595539
1.92316036879
1.93538842204
1.94874932623
1.96376477329
1.98103424457
2.00117740566
2.02470595286
2.0519910537
2.08320705528
2.11835083141
2.15724037477
2.1995027382
2.24461541419
2.29193334143
2.34065802957
2.38981159908
2.43819647326
2.48439459202
2.52674225554
2.56335630887
2.59206639883
2.61043476007
2.61587279138
2.60538227255
2.57622785335
2.52623474499
2.45364882616
2.35710470654
2.23585994877
2.09140900546
1.92801740345
1.75200316801
1.57135603522
1.39395624027
1.22134143539
1.04985504532
0.882784239704
0.737339437943
0.623141080707
0.507155190961
0.389064359192
0.33973498234
0.246099871328
-0.00210724549659
-0.157117773155
-0.204075806355
-0.311028822519
-0.455776110108
-0.57838015933
-0.679363210671
-0.758874642086
-0.825478786062
-0.882459752158
-0.932233524587
-0.976542944331
-1.01672969172
-1.05374818665
-1.08812563198
-1.12006303992
-1.14960651467
-1.17683830457
-1.20189525871
-1.22491847236
-1.24604671727
-1.26538616
-1.28299291172
-1.29890487795
-1.31316004191
-1.32574199898
-1.33666200965
-1.34584875502
-1.35335266427
-1.35916497404
-1.36343633313
-1.36640350143
-1.36830458647
-1.36949287558
-1.37039566033
-1.3711870048
-1.37175510059
-1.37183005293
-1.37115323083
-1.36948562461
-1.36662052823
-1.36233054258
-1.35641340686
-1.34865936722
-1.33892944988
-1.32709484914
-1.31316251412
-1.29716800412
-1.27929102006
-1.2596609227
-1.23854944564
-1.21617826303
-1.19293922826
-1.16906883262
-1.14505099554
-1.12126883214
-1.09835662607
-1.07690471153
-1.05766479905
-1.0415378748
-1.02926905101
-1.02051217078
-1.01466927301
-1.01105935637
-1.00707306289
-1.00204370069
-0.98455262735
-0.95857601863
-0.933831517316
-0.918550080585
-0.921053907607
-0.972818054975
-1.05864304339
-0.00111475773419
0.0345354461208
0.0603014212545
0.0730917875138
0.0836540453523
0.0928336972539
0.103879757474
0.121783101538
0.148904993651
0.184368638562
0.225634421526
0.270262192964
0.31640727916
0.363010941245
0.409469141354
0.45551912386
0.50105168559
0.546019942173
0.590453715403
0.634361076124
0.677838908065
0.720904825723
0.763698341149
0.806281806301
0.848821705532
0.891414642617
0.934267568022
0.977522381951
1.02140368011
1.06608175555
1.11178204868
1.15864682444
1.20684594067
1.25649134696
1.30765839908
1.36036408575
1.41461106185
1.47034103714
1.52744703758
1.58580876625
1.64524072287
1.70555230611
1.76648862019
1.82779981566
1.88919343107
1.95038261333
2.0110716787
2.07100226339
2.1299344069
2.18762972394
2.24395741532
2.29878977173
2.35205503404
2.40371346122
2.45380891671
2.5023639591
2.54948541306
2.59528124908
2.63988440606
2.68345695709
2.72626456944
2.76870091322
2.81175712548
2.85325770555
2.89169997459
2.92600498044
2.95563574257
2.97998156725
2.99845330413
3.01064538664
3.01633326705
3.01550845683
3.00836724652
2.995302293
2.97684481792
2.95366896084
2.92650756584
2.89609181849
2.86307803327
2.82795901486
2.79097946728
2.75209223769
2.71091681005
2.66673945083
2.61855030237
2.56515939822
2.50541187787
2.4382182097
2.3623304776
2.27632153579
2.17812374215
2.06499086888
1.93469262731
1.78702216456
1.62426272392
1.44947248748
1.26519153068
1.07278307424
0.874503839821
0.68240432926
0.518717331514
0.386572072079
0.267397944038
0.162707287427
0.139650324459
0.155094046327
0.0179354983192
-0.114556425367
-0.166873402355
-0.2715009294
-0.454651751833
-0.626485357898
-0.764445028809
-0.877605151329
-0.971250995084
-1.05367584183
-1.12804429046
-1.19600137086
-1.25832168874
-1.31539720756
-1.3673424123
-1.41405753292
-1.45529287467
-1.49087707295
-1.52082022727
-1.54535585576
-1.56487764201
-1.57986460156
-1.59076457629
-1.59802165827
-1.60204673031
-1.60317578634
-1.60164840535
-1.59764801374
-1.59137824236
-1.58319439209
-1.57352421852
-1.56289881116
-1.55140426536
-1.53920441049
-1.52666843898
-1.5142016669
-1.50200241818
-1.49001643463
-1.47809753517
-1.46613046011
-1.45406108163
-1.44185518737
-1.4294693294
-1.41684238768
-1.40389846891
-1.39056898168
-1.37679597532
-1.36254788173
-1.34779132417
-1.33255988708
-1.31690361854
-1.30092920364
-1.28470676644
-1.26837870539
-1.2520409309
-1.23600174109
-1.22054003346
-1.2061108218
-1.19320065309
-1.18230780188
-1.17401692162
-1.16886248749
-1.16654501416
-1.16794366864
-1.17337057751
-1.1806948782
-1.19035131916
-1.19326770362
-1.19011334923
-1.18119085654
-1.1334215628
-1.06479496104
-1.02400878725
-0.982742800204
-0.0281502400616
0.1015211383
0.144981303521
0.135784000434
0.126554968141
0.120903871952
0.121271932672
0.131867735028
0.153843696539
0.185139884201
0.222657469525
0.263822349754
0.30687784994
0.350826458658
0.395139601297
0.439572477156
0.484058758475
0.528578122985
0.573212037944
0.61798738976
0.663023839903
0.708372734273
0.754163161763
0.800447509271
0.847362581559
0.894978585813
0.94342088227
0.992772655732
1.04315790269
1.09465676594
1.14735783171
1.20131815915
1.25657351142
1.31308932397
1.37083231164
1.42969662164
1.48953608049
1.55015977767
1.61134607439
1.67281625692
1.73425414475
1.79530385934
1.85556967039
1.9146280357
1.97203354785
2.02733560269
2.08010290671
2.12990441514
2.17637313438
2.21919653799
2.25809789124
2.29286030015
2.32335135456
2.34945851568
2.37113347063
2.38835260661
2.40113303882
2.40949326911
2.41347545465
2.41315060172
2.40861344269
2.39939666221
2.3872365285
2.3751090909
2.36412354919
2.35546751806
2.34981100545
2.34752332438
2.34869234679
2.3531422505
2.36045186694
2.37002548541
2.38111680593
2.39294024306
2.40473058087
2.41578964537
2.42551927078
2.43342465727
2.43904256322
2.44187592699
2.44126751363
2.43628287173
2.42567207056
2.40789205808
2.38116713002
2.34377208155
2.29412534444
2.23102415947
2.15367416886
2.06147415463
1.95422981505
1.83207938176
1.69576598971
1.54613910719
1.38291955272
1.20488090175
1.01082219889
0.805576286901
0.601430544666
0.413454127333
0.247761316382
0.0793727977897
-0.0556565858452
-0.0958429308126
-0.0717086230293
-0.120935739181
-0.223905639901
-0.273649005527
-0.335201145316
-0.483216177903
-0.666749555296
-0.822315043242
-0.946907562007
-1.0474644273
-1.12823118846
-1.19521433029
-1.25158280445
-1.29960458157
-1.34100357558
-1.37718763103
-1.40921924103
-1.43781834166
-1.46341938313
-1.48635793895
-1.5069545595
-1.52551544834
-1.54229525237
-1.55745438461
-1.57108907181
-1.58314792067
-1.59347532424
-1.60188710389
-1.60829628543
-1.61267755852
-1.61516138833
-1.6159846734
-1.61515696073
-1.61275175885
-1.60891925626
-1.6039271824
-1.59822592662
-1.59226322019
-1.58626160517
-1.58022472488
-1.57403453821
-1.56755086631
-1.56062825621
-1.55312647607
-1.54489347565
-1.53578058148
-1.5256319609
-1.51432834144
-1.50179015122
-1.48802804205
-1.47307584526
-1.45705695399
-1.4401341843
-1.42257172862
-1.40462014371
-1.38659627581
-1.36877579791
-1.35159792397
-1.33543079128
-1.32076650576
-1.30814882904
-1.29808268458
-1.29114601098
-1.28777184856
-1.28758868333
-1.29189605905
-1.30166782693
-1.31494724751
-1.33316192184
-1.34768315427
-1.35997554182
-1.36647073048
-1.31472910406
-1.21304072805
-1.11946259225
-0.987726726085
-0.0619589028574
0.298070974416
0.298748837105
0.213490133498
0.16706593395
0.14455448952
0.137317755724
0.142970203442
0.160041009072
0.185783172697
0.217487837845
0.253237410689
0.291802426913
0.332447176203
0.374732812651
0.418369484494
0.463199003646
0.509073462369
0.555935843911
0.603700516102
0.652368272483
0.701890103611
0.752305059865
0.80361397324
0.855875730587
0.909126258683
0.963448525774
1.01890663588
1.07557823137
1.13352626917
1.1928036243
1.25341310403
1.31533808423
1.37850840379
1.44279992747
1.50801850211
1.57395073427
1.64029251199
1.70671433154
1.7728236735
1.83820651022
1.90239467441
1.9649131456
2.0252546585
2.08293652584
2.13747700789
2.18845501397
2.23550232661
2.27833255115
2.31673336264
2.3506104822
2.37995276457
2.40480153363
2.42532623923
2.44173375572
2.45429272917
2.46331501505
2.46905891795
2.47214832621
2.47302550512
2.47229827294
2.47078710657
2.46815150046
2.46235081787
2.45274127004
2.43926659336
2.42200149849
2.4013069028
2.37777514164
2.35218010567
2.32536984472
2.29818983823
2.27140468995
2.24563575585
2.22131059489
2.19869204506
2.17786978742
2.15877319843
2.14117816894
2.12470289757
2.10874960643
2.09240634304
2.07439897997
2.05300692933
2.02609835341
1.99115205634
1.94559839512
1.88705692038
1.81363521078
1.72482082779
1.62096763623
1.50326695046
1.37283178356
1.22878725721
1.07006659013
0.897477265168
0.713992755587
0.528995433596
0.347294089634
0.15600227583
-0.0340760838653
-0.216812689281
-0.285112561257
-0.280485273303
-0.308265712627
-0.383362314276
-0.448617832972
-0.500046782193
-0.594111037803
-0.742056973599
-0.895171128871
-1.02438209419
-1.13245854175
-1.22361212892
-1.30074325206
-1.36787916195
-1.42758385017
-1.48166892729
-1.53133665427
-1.57726099737
-1.6196648005
-1.65836125754
-1.69299746301
-1.72322630838
-1.74884441107
-1.76979263396
-1.78616730586
-1.79817409801
-1.80611564763
-1.81032730956
-1.81123327609
-1.80933553086
-1.80509862165
-1.79890370732
-1.79111682847
-1.78203764731
-1.77189460098
-1.7609931581
-1.74945810521
-1.73752375504
-1.72551267795
-1.71370711798
-1.70220162551
-1.69093276761
-1.67975095742
-1.66850637188
-1.65706075639
-1.64529679498
-1.63310092467
-1.62037215622
-1.60702009046
-1.59299049238
-1.57826486302
-1.56288846371
-1.54693985101
-1.53054980181
-1.51387269082
-1.49712095945
-1.48050850174
-1.46427027207
-1.44862171737
-1.43391687952
-1.42051349805
-1.4088529417
-1.39946061187
-1.39275009795
-1.3892765296
-1.38941330341
-1.39265766324
-1.39996545583
-1.41240926253
-1.42827581216
-1.45023984593
-1.4696663237
-1.49052707651
-1.51150041183
-1.48451759628
-1.40264330809
-1.32039236335
-1.17198524954
-0.0400861656715
0.651429655156
0.478836139109
0.280026691284
0.206025172743
0.17690322514
0.167839072902
0.168972201803
0.179273683531
0.196784669397
0.219871458597
0.247406669169
0.278573386377
0.312799198228
0.349653044629
0.388785185322
0.429936728959
0.472869110545
0.517424490148
0.563435243747
0.610810290647
0.659450004805
0.709309892459
0.760332226178
0.812509702051
0.865825833035
0.92028739208
0.975899472173
1.03267360362
1.09060369794
1.14966827641
1.20982033017
1.2709755821
1.33298369162
1.39567794692
1.45880717492
1.52208582243
1.58515585249
1.64764067866
1.70908484584
1.76902642628
1.82694450205
1.88232632415
1.93462699941
1.98334108311
2.02797879809
2.0681315885
2.10344099191
2.13365929577
2.15865150818
2.17837131404
2.1928758816
2.20231099307
2.20693853168
2.20707419194
2.20308446962
2.19521663926
2.18399843843
2.16970552228
2.152749238
2.1332039819
2.11200373196
2.09148074096
2.07030617367
2.04906108788
2.02779299085
2.00641708927
1.98480888957
1.96285685801
1.94051568791
1.91784198924
1.89501506874
1.87231136216
1.85009243326
1.82873586224
1.80857873085
1.7898853242
1.77281774363
1.75738527401
1.74341881755
1.73046169703
1.71760378457
1.70329741512
1.68527500488
1.66065240249
1.62638271892
1.57976719966
1.51889047493
1.44272783667
1.35101462628
1.24385646957
1.12358544978
0.990442761771
0.845239053675
0.690068054562
0.533825261971
0.371931128032
0.199830918281
0.0155988247438
-0.19899059931
-0.366311551486
-0.453501617616
-0.467590782727
-0.477158075428
-0.53197462296
-0.609744884278
-0.679784076374
-0.757562166144
-0.863718754536
-0.989922776313
-1.10998638061
-1.21418565501
-1.30496878277
-1.38394071565
-1.45205554644
-1.51106946931
-1.56227114457
-1.60673175536
-1.64533788979
-1.6787735484
-1.7075436245
-1.73199688424
-1.75246484083
-1.76933991272
-1.78308150352
-1.79417753567
-1.80308903579
-1.81021566264
-1.81583900157
-1.82016805001
-1.82330212341
-1.82521500443
-1.82579676935
-1.82497007789
-1.82290548684
-1.8195916782
-1.81499856451
-1.80928515112
-1.80260825194
-1.7952066332
-1.78737449647
-1.7793436964
-1.77121589232
-1.76295391216
-1.7544638389
-1.74564660974
-1.73641493264
-1.72668542526
-1.71636878716
-1.7053717174
-1.6936114054
-1.6810319335
-1.66761388355
-1.65338543577
-1.63843716849
-1.62292068063
-1.60702145638
-1.59095215939
-1.57493605768
-1.55922013783
-1.54405963648
-1.52982024913
-1.51691997356
-1.50583898524
-1.49717017893
-1.49128993395
-1.48877101653
-1.48987458605
-1.49393927754
-1.50111561185
-1.51208572736
-1.52529845885
-1.5447387892
-1.56173778879
-1.5830076333
-1.61287587205
-1.62074663302
-1.58999014816
-1.56324862414
-1.45495849593
0.0823598533754
1.10512909856
0.626438291352
0.333632194966
0.258480253267
0.227584393019
0.214402690638
0.205862683453
0.206202591677
0.213811499574
0.227723658687
0.247005674113
0.270770258021
0.298358876703
0.329190208128
0.36280070888
0.398806978076
0.43688810191
0.476792018858
0.518311029181
0.561294540214
0.605610401248
0.651170062619
0.697898170425
0.745734797827
0.794630996428
0.844545008198
0.895433493464
0.947245162414
0.999918956146
1.05337684025
1.10750005038
1.16215525256
1.21715579631
1.27228443168
1.32725895846
1.38178872298
1.43550367361
1.48803007899
1.53893463708
1.58779188955
1.63413396595
1.67752084861
1.71750107927
1.75368313919
1.7857151926
1.81334350981
1.83639808503
1.85481025763
1.86862764129
1.8780016397
1.88316049421
1.8844747439
1.88242906116
1.87758281779
1.87043237444
1.86131245143
1.85053417818
1.83820840206
1.82446981859
1.80920193843
1.79303129814
1.7724957025
1.74800283911
1.71992452437
1.68853672115
1.65445890807
1.61853483352
1.58170461349
1.54486981892
1.50879157084
1.47406260928
1.44113757331
1.41036726068
1.38202980376
1.35638544015
1.33369298516
1.31422798855
1.29826304658
1.28599700116
1.27738691011
1.27172782269
1.26724012207
1.26070237927
1.24760702967
1.22299402904
1.18279647566
1.12465744175
1.04749757371
0.950761832202
0.833724039644
0.702293890125
0.560785501422
0.414084348204
0.259807854208
0.106997714863
-0.0611708471169
-0.249570732997
-0.428170757205
-0.574683395352
-0.650865570391
-0.660748885576
-0.652625451315
-0.678835641754
-0.75093080201
-0.840766930062
-0.928143898658
-1.02015412616
-1.12033988365
-1.2224295318
-1.31682893272
-1.40148196805
-1.47762364585
-1.54559068201
-1.60549432178
-1.65813837085
-1.7044114282
-1.74530257721
-1.78172478271
-1.81442700727
-1.84386450166
-1.87028231306
-1.89377562928
-1.91439690583
-1.93215641404
-1.94706675404
-1.95912273947
-1.96833976712
-1.97475081574
-1.97842432672
-1.97946511715
-1.97801688545
-1.97429020989
-1.96862912582
-1.96156492667
-1.95314887846
-1.94376067219
-1.9335814673
-1.92281250748
-1.91168085184
-1.90043394992
-1.88925986688
-1.87823625256
-1.86731442702
-1.85639284012
-1.84535540118
-1.83409941906
-1.82252533804
-1.81053799627
-1.79804503408
-1.78497514634
-1.77128858059
-1.75698906789
-1.74212795151
-1.72681694712
-1.7112252802
-1.69555999601
-1.68004591769
-1.66490887178
-1.6503921553
-1.63674804902
-1.62433178345
-1.61358067333
-1.60499968972
-1.59920427945
-1.59651718693
-1.59748381138