/*--------------------------------*- C++ -*----------------------------------*\
| =========                 |                                                 |
| \\      /  F ield         | OpenFOAM: The Open Source CFD Toolbox           |
|  \\    /   O peration     | Version:  v1806                                 |
|   \\  /    A nd           | Web:      www.OpenFOAM.com                      |
|    \\/     M anipulation  |                                                 |
\*---------------------------------------------------------------------------*/
FoamFile
{
    version     2.0;
    format      ascii;
    class       volVectorField;
    location    "17";
    object      Ua;
}
// * * * * * * * * * * * * * * * * * * * * * * * * * * * * * * * * * * * * * //

dimensions      [0 1 -1 0 0 0 0];


internalField   nonuniform List<vector> 
12225
(
(0.0328108108006 50.2788535097 0)
(0.931004300493 12.1536681115 0)
(0.70396331581 11.9405026939 0)
(0.808797776536 11.8072032171 0)
(0.792749980192 11.6613512467 0)
(0.826698093633 11.603955406 0)
(0.847940612249 11.573955463 0)
(0.889291204851 11.5797843932 0)
(0.946330530114 11.567903926 0)
(1.02527214846 11.48468897 0)
(1.12000456467 11.2722515073 0)
(1.21257726771 10.8922586075 0)
(1.27487565193 10.3600687928 0)
(1.29822612073 9.77308035774 0)
(1.36412455387 9.25978948662 0)
(1.70764467309 8.74066420913 0)
(2.51805176098 7.47428359716 0)
(3.09356176276 3.96817292678 0)
(2.46037066645 -43.5986651738 0)
(1.0483000217 -7.86813961019 0)
(1.18252401483 -8.02228264742 0)
(1.17128162239 -7.84143712198 0)
(1.21780843924 -7.75002553125 0)
(1.257993068 -7.63404882008 0)
(1.31154885476 -7.49132916756 0)
(1.37665295445 -7.31285111281 0)
(1.4558634411 -7.08922838587 0)
(1.54638314981 -6.82322179047 0)
(1.64131190569 -6.52108798596 0)
(1.72596796728 -6.19383569265 0)
(1.78583240431 -5.85013080461 0)
(1.83060071204 -5.48278459472 0)
(1.93388899682 -5.04724253166 0)
(2.23236152421 -4.47128553276 0)
(2.71759565568 -3.75340367669 0)
(2.7809303844 -3.1091162735 0)
(-1.05581849052 32.4321664148 0)
(1.27635446532 3.93146471916 0)
(0.79964384627 3.90098540411 0)
(0.956113553106 3.74744945221 0)
(0.907148537119 3.60235930003 0)
(0.936479893436 3.45338156217 0)
(0.951173956607 3.28926685848 0)
(0.98549127789 3.11834227412 0)
(1.02846477242 2.93341602642 0)
(1.08030293525 2.73015452577 0)
(1.13229240697 2.50000202542 0)
(1.17248922149 2.23353321636 0)
(1.1914054209 1.92653121647 0)
(1.20546179164 1.58607421069 0)
(1.28522440568 1.22581568815 0)
(1.53044255659 0.820683857378 0)
(1.88884031106 0.222784233429 0)
(1.94786009979 -0.728281574464 0)
(2.77117788298 -23.3017568698 0)
(0.782347020841 -2.29985563432 0)
(1.083343462 -1.7545913106 0)
(1.00726052723 -1.80618771628 0)
(1.04261695728 -1.64372214178 0)
(1.05796777857 -1.53759118821 0)
(1.08734857392 -1.40257531632 0)
(1.12646168934 -1.26870437597 0)
(1.17505578103 -1.12992481328 0)
(1.2290593276 -0.991895910121 0)
(1.27933072828 -0.855519677378 0)
(1.31328289463 -0.722402705801 0)
(1.32328040783 -0.587072891183 0)
(1.32530574923 -0.436646895209 0)
(1.37324077827 -0.268811481338 0)
(1.51917004269 -0.14977747904 0)
(1.68511446562 -0.261354790797 0)
(1.62853824265 -0.718819375735 0)
(-0.66943684342 15.7012381568 0)
(1.06704959736 1.37108624048 0)
(0.868416435845 0.768509500859 0)
(0.94838084815 0.825738703626 0)
(0.934920817675 0.716120786537 0)
(0.958603604193 0.650935391225 0)
(0.98143747467 0.571750768306 0)
(1.01825938033 0.487964978772 0)
(1.06442513768 0.392046851289 0)
(1.11811945745 0.281713056669 0)
(1.17151510892 0.157435696354 0)
(1.21519872378 0.0255348199185 0)
(1.24572689684 -0.0969444769042 0)
(1.27854573 -0.185002483734 0)
(1.3489400436 -0.226862952123 0)
(1.46841812891 -0.270474621681 0)
(1.55198317851 -0.428951103174 0)
(1.46481035528 -0.724030379307 0)
(1.4737680852 -7.57639594183 0)
(1.04398041394 -0.638844126221 0)
(0.957120120592 -0.389654557162 0)
(0.995916812234 -0.394790158297 0)
(0.993635888205 -0.315379152118 0)
(1.01136783086 -0.252697510372 0)
(1.02929996791 -0.183595834655 0)
(1.05694029711 -0.122684195495 0)
(1.09048159803 -0.0750518145194 0)
(1.12824064309 -0.0490529112569 0)
(1.16422602232 -0.0496506933303 0)
(1.19292023369 -0.0764162513647 0)
(1.21563752874 -0.119312993421 0)
(1.24778616805 -0.163250144788 0)
(1.31100106562 -0.206331311899 0)
(1.39590749544 -0.28488429007 0)
(1.43195461473 -0.449835713713 0)
(1.34977421579 -0.663991676211 0)
(0.612293840303 2.83343791719 0)
(0.98715245474 0.0829268045606 0)
(0.943299380278 0.0661733590933 0)
(0.97634098686 0.0141490247659 0)
(0.981792563304 -0.00540102547381 0)
(1.00171324385 -0.0251648728198 0)
(1.02330612553 -0.0339664561604 0)
(1.05205850779 -0.0407425962227 0)
(1.08469784269 -0.0480761166594 0)
(1.1187985041 -0.0617021242695 0)
(1.14943575386 -0.0849067819077 0)
(1.17340394486 -0.11747895082 0)
(1.1941189389 -0.153673586359 0)
(1.22405717106 -0.188354382586 0)
(1.27368753413 -0.230589418718 0)
(1.32613582729 -0.311002245987 0)
(1.33261751025 -0.449744312743 0)
(1.2619334376 -0.602773242896 0)
(0.886511137331 -0.5052951165 0)
(1.01451310909 -0.061739134048 0)
(0.950350325828 -0.0399132842151 0)
(0.984547593864 -0.0523494979241 0)
(0.988505984229 -0.0465608758292 0)
(1.00654597351 -0.0457197808352 0)
(1.02582673027 -0.0432154499133 0)
(1.05109818028 -0.0450905463225 0)
(1.07918045135 -0.0529516211082 0)
(1.10773017465 -0.0697089098851 0)
(1.1329203016 -0.0959161040937 0)
(1.15320863736 -0.12925208416 0)
(1.17234498774 -0.164621448515 0)
(1.19855494384 -0.20044944932 0)
(1.23422512943 -0.247029050512 0)
(1.26213299303 -0.32408414298 0)
(1.25219501706 -0.43473154948 0)
(1.19264121279 -0.544721792872 0)
(0.87603925448 0.213902822007 0)
(0.999971583388 -0.0717964540285 0)
(0.963428015273 -0.0306746010729 0)
(0.98806274207 -0.0548802469633 0)
(0.995159845627 -0.0514931279985 0)
(1.01105681115 -0.0546959099177 0)
(1.02879582152 -0.0552130063003 0)
(1.05065451786 -0.0597968825365 0)
(1.0742766377 -0.0697211445165 0)
(1.09749052465 -0.0873666717487 0)
(1.11766847445 -0.112703056544 0)
(1.13440626584 -0.143562642078 0)
(1.15093181532 -0.176721690294 0)
(1.17163946539 -0.212979257708 0)
(1.19445553668 -0.260782834059 0)
(1.20528702019 -0.330234804362 0)
(1.18717048118 -0.416857721446 0)
(1.13703076163 -0.497605744849 0)
(0.908894940338 0.122116305699 0)
(0.996160639192 -0.0603649423866 0)
(0.974283452721 -0.0320641368958 0)
(0.99264704406 -0.0514245915475 0)
(1.0012536137 -0.051015276176 0)
(1.01502571632 -0.056262727631 0)
(1.0308996448 -0.0602199079501 0)
(1.04937093834 -0.0680237191877 0)
(1.0687647484 -0.0806114907512 0)
(1.08720156827 -0.0995019878271 0)
(1.10301932699 -0.124284127029 0)
(1.11637517612 -0.153275337124 0)
(1.12951263667 -0.184863881648 0)
(1.14400074713 -0.220872321349 0)
(1.15607825786 -0.26703843204 0)
(1.15567971037 -0.327163865625 0)
(1.13404401704 -0.394899074104 0)
(1.09144077305 -0.455807843098 0)
(0.936949002956 0.128386158995 0)
(0.991674583201 -0.0601579784339 0)
(0.985292210982 -0.036012854493 0)
(0.996862750206 -0.0527467937483 0)
(1.00664587618 -0.0541775688585 0)
(1.0180375422 -0.0609031495002 0)
(1.0318736622 -0.0673736954328 0)
(1.04700521015 -0.0774737236102 0)
(1.06246428107 -0.0917875759853 0)
(1.07666524201 -0.111167764803 0)
(1.08864185147 -0.13506502633 0)
(1.09867526652 -0.16233965656 0)
(1.10798353733 -0.19240358326 0)
(1.11641077896 -0.227076359969 0)
(1.12014971979 -0.269544778256 0)
(1.11268821626 -0.320188170664 0)
(1.08995877267 -0.373278685131 0)
(1.05333280584 -0.42006393687 0)
(0.957602584307 0.130737936217 0)
(0.988541526557 -0.0556741318704 0)
(0.992542583503 -0.0390739274618 0)
(0.99876566987 -0.0524797986064 0)
(1.0089030306 -0.0559710663552 0)
(1.0180882655 -0.0637437479502 0)
(1.02989265558 -0.0721667845621 0)
(1.04208032361 -0.0838662189997 0)
(1.05422538924 -0.0992552987868 0)
(1.06499590856 -0.118740817354 0)
(1.07382827015 -0.141800859327 0)
(1.08090828343 -0.167731862019 0)
(1.08668545299 -0.196475620634 0)
(1.09027000857 -0.229326915595 0)
(1.08851919709 -0.267688664087 0)
(1.07734431455 -0.310471832677 0)
(1.05497511063 -0.353184710298 0)
(1.02285660873 -0.390449400413 0)
(0.976847142916 0.137589365916 0)
(0.987390708883 -0.0516324987804 0)
(0.998463307424 -0.0412066930915 0)
(1.00029589294 -0.0521121938921 0)
(1.01027631554 -0.0572176188346 0)
(1.01742252187 -0.0657166191114 0)
(1.02721856797 -0.0754319619639 0)
(1.03669748489 -0.0880428554329 0)
(1.04584722698 -0.103832738577 0)
(1.05356428344 -0.122951692718 0)
(1.05952651277 -0.1449917354 0)
(1.06372509295 -0.169594206481 0)
(1.0661294677 -0.196768670497 0)
(1.0656254185 -0.227227496542 0)
(1.05985346684 -0.261245299504 0)
(1.046432999 -0.297345743032 0)
(1.02482300764 -0.332270821822 0)
(0.996388403779 -0.362601746455 0)
(0.994934460598 0.128171198655 0)
(0.986679315215 -0.0520816681557 0)
(1.00333617559 -0.0468584877215 0)
(1.00101718035 -0.0560140889391 0)
(1.01030994047 -0.0624547643141 0)
(1.01525102064 -0.0714205118042 0)
(1.02277913522 -0.0819481509517 0)
(1.0294286477 -0.0948761867657 0)
(1.03553081849 -0.110429663174 0)
(1.04016157889 -0.128581763507 0)
(1.04310670807 -0.14909630854 0)
(1.04424628775 -0.171771916095 0)
(1.04326798931 -0.19655947471 0)
(1.03914190687 -0.223606928488 0)
(1.03032864758 -0.252565449536 0)
(1.01559314721 -0.28203537614 0)
(0.995121213479 -0.309870398807 0)
(0.970055419573 -0.334000303122 0)
(1.01252362681 0.137759675687 0)
(0.986075965333 -0.0491840882998 0)
(1.00744409349 -0.0491356152671 0)
(1.00117517562 -0.057223446535 0)
(1.00920284081 -0.0649172673521 0)
(1.01176280938 -0.0743356963033 0)
(1.01674685641 -0.0854011009866 0)
(1.02047446655 -0.098363874433 0)
(1.02346674029 -0.11339512813 0)
(1.02495993731 -0.13038932617 0)
(1.02482684169 -0.149187716673 0)
(1.02284931215 -0.169655493881 0)
(1.01869630364 -0.191619614086 0)
(1.01162748198 -0.214867308003 0)
(1.00072930572 -0.238821807104 0)
(0.985497138031 -0.262396477757 0)
(0.966394375954 -0.284217930522 0)
(0.944396377894 -0.303161093819 0)
(1.02758796755 0.126964616313 0)
(0.987117975372 -0.0475743973726 0)
(1.01050643439 -0.0523071420514 0)
(1.00113248392 -0.0595616185684 0)
(1.00727926865 -0.0680694890853 0)
(1.00741274776 -0.077665214578 0)
(1.00969784105 -0.0887568502059 0)
(1.01049821789 -0.10129164023 0)
(1.01043851504 -0.115337979232 0)
(1.00889982894 -0.130775151586 0)
(1.00577415909 -0.147445794837 0)
(1.00090041517 -0.165245701705 0)
(0.994047192602 -0.183862614548 0)
(0.984779769086 -0.202997380656 0)
(0.972631073276 -0.222097644979 0)
(0.957480860716 -0.240420675397 0)
(0.939849434542 -0.257162885093 0)
(0.920552081241 -0.271703065528 0)
(1.03442558276 0.123946115609 0)
(0.988814746887 -0.0434947297612 0)
(1.0109777069 -0.0514974605644 0)
(0.999582507985 -0.0583012755585 0)
(1.00329263057 -0.0673340118397 0)
(1.00104604369 -0.0768947622906 0)
(1.00059805636 -0.0877241520881 0)
(0.998607676026 -0.099524847068 0)
(0.995698481553 -0.112336048502 0)
(0.991384332201 -0.125995105128 0)
(0.985634249242 -0.14036254153 0)
(0.978352565795 -0.155287878647 0)
(0.969460931853 -0.17048291421 0)
(0.958749999062 -0.185636501464 0)
(0.946030083774 -0.200376775062 0)
(0.931335442868 -0.214231364126 0)
(0.915171812696 -0.226787113007 0)
(0.898180770437 -0.237694996643 0)
(1.03651383925 0.0900587415774 0)
(0.990124800204 -0.0468988383967 0)
(1.00880779055 -0.0558685298723 0)
(0.996135510736 -0.0622030855389 0)
(0.997013983777 -0.07098739515 0)
(0.992556539903 -0.0798968102011 0)
(0.989483983189 -0.0897450383648 0)
(0.984977572285 -0.100141097851 0)
(0.979577046898 -0.111113460408 0)
(0.972954851715 -0.122487461623 0)
(0.965132966268 -0.134147507981 0)
(0.956107463838 -0.145951772255 0)
(0.94590510949 -0.157660885693 0)
(0.934466647158 -0.16905814925 0)
(0.921721178178 -0.179913766127 0)
(0.907763489055 -0.189984653768 0)
(0.893044535503 -0.199058202654 0)
(0.878140095982 -0.206987042435 0)
(1.0403061935 0.162679812929 0)
(0.992963550451 0.00178821565498 0)
(1.00484196727 -0.00844818710259 0)
(0.99121841298 -0.0167195968345 0)
(0.989229320905 -0.0260890318756 0)
(0.982857282056 -0.0353756765535 0)
(0.977491796156 -0.0450782045008 0)
(0.970883882056 -0.0548896145274 0)
(0.963452823547 -0.0648729781038 0)
(0.955005286013 -0.0748553224447 0)
(0.945608243596 -0.0848058898893 0)
(0.935338463484 -0.0946436266483 0)
(0.924292107038 -0.104223921907 0)
(0.912473464218 -0.113358190422 0)
(0.899841385877 -0.121976925678 0)
(0.88648673423 -0.129944351696 0)
(0.872772392946 -0.137214236487 0)
(0.859216493463 -0.143701064829 0)
(1.01229161821 -0.234870554127 0)
(0.983047912923 -0.150342336122 0)
(1.00244552465 -0.154085657713 0)
(0.98858832816 -0.156325163722 0)
(0.985793805308 -0.159553698159 0)
(0.978397764369 -0.162743864518 0)
(0.971995366342 -0.166107244376 0)
(0.964446440173 -0.169639873823 0)
(0.956193277216 -0.173252075417 0)
(0.947131311819 -0.176934970504 0)
(0.937378325193 -0.180558845751 0)
(0.926997768075 -0.184076864456 0)
(0.916116017539 -0.187347866839 0)
(0.904768106454 -0.19039388947 0)
(0.892927046264 -0.193098661644 0)
(0.880673174756 -0.195447721445 0)
(0.868379046824 -0.19736147022 0)
(0.856559432889 -0.198877981466 0)
(1.1121311181 1.09202607771 0)
(1.01098792033 0.334527826343 0)
(0.999080516408 0.319511828599 0)
(0.984640621419 0.298770467515 0)
(0.98015596795 0.282211655586 0)
(0.972023451284 0.264480203848 0)
(0.964586219651 0.247120457391 0)
(0.955979057111 0.229629069696 0)
(0.946656062578 0.212430951023 0)
(0.936541372501 0.195508788051 0)
(0.925694237585 0.179023577644 0)
(0.91437277589 0.16286300381 0)
(0.902718726713 0.147292870002 0)
(0.890745345716 0.132418505556 0)
(0.878398206157 0.118293237696 0)
(0.865740508873 0.104886447393 0)
(0.853018397993 0.092234790584 0)
(0.841166513247 0.0803003560452 0)
(0.795102925554 -2.88867889826 0)
(0.943601924007 -0.830648132498 0)
(1.01503585884 -0.810007741549 0)
(0.99871940235 -0.785410719932 0)
(0.997464785938 -0.763812199694 0)
(0.988244199541 -0.74041243753 0)
(0.980722081938 -0.717392240934 0)
(0.971802379137 -0.694449243678 0)
(0.96263226786 -0.671715434028 0)
(0.952931559815 -0.649089395916 0)
(0.942987915687 -0.626648948974 0)
(0.932651811139 -0.604694762492 0)
(0.922045464043 -0.583448631279 0)
(0.911199646985 -0.562911269949 0)
(0.900051143902 -0.54316691427 0)
(0.888620994597 -0.52426820189 0)
(0.87718121285 -0.506370748307 0)
(0.864783352318 -0.48959122458 0)
(1.68336858288 6.7079417741 0)
(1.06579789703 1.33166428203 0)
(0.992634345512 1.25431109768 0)
(0.979016890806 1.20286775492 0)
(0.973652243891 1.15610535397 0)
(0.966076378468 1.10632894884 0)
(0.957952420858 1.05788188279 0)
(0.949028982067 1.00895754198 0)
(0.939593936336 0.960371506425 0)
(0.929793650424 0.912179218245 0)
(0.919723038277 0.864842717922 0)
(0.909634445399 0.819072318677 0)
(0.899605684087 0.775325588484 0)
(0.889720805298 0.733438456241 0)
(0.879953957735 0.693638445214 0)
(0.870371768219 0.656424252727 0)
(0.861252227859 0.622102323796 0)
(0.856251721747 0.590920140653 0)
(-0.39988674216 -13.0512780475 0)
(0.9297042452 -1.80780150358 0)
(1.02598462547 -1.61426719057 0)
(1.02675843916 -1.58494535197 0)
(1.02393493987 -1.52110887121 0)
(1.01150767501 -1.46415067093 0)
(1.00189738468 -1.40923734371 0)
(0.989765094762 -1.35620674652 0)
(0.977419346799 -1.30526552622 0)
(0.964142585962 -1.25608130863 0)
(0.950140422726 -1.20873342282 0)
(0.935484068052 -1.16374242573 0)
(0.920330701632 -1.1211508866 0)
(0.904550964741 -1.08059181396 0)
(0.888125344758 -1.042402084 0)
(0.871275699961 -1.0071331862 0)
(0.854432930316 -0.975081096722 0)
(0.834053078396 -0.946630682948 0)
(3.73091524182 22.7551848201 0)
(0.950612286865 2.20010881032 0)
(1.05005908267 1.69548844979 0)
(0.971632953383 1.73952294711 0)
(0.987132236368 1.64700368732 0)
(0.977638991333 1.59035892092 0)
(0.971780503537 1.53027402746 0)
(0.965614449098 1.4754477904 0)
(0.960031518658 1.42465192819 0)
(0.955299563744 1.37810772218 0)
(0.951345709492 1.33582264172 0)
(0.94777483221 1.29720756194 0)
(0.944545490347 1.26139376556 0)
(0.941601754739 1.22744370423 0)
(0.938753802682 1.1946853657 0)
(0.935723223621 1.16263152018 0)
(0.93213678116 1.13117138508 0)
(0.932195433424 1.10064920733 0)
(-3.30419996786 -35.2588981502 0)
(1.31228094968 -3.04092625295 0)
(0.892069909038 -2.11835807727 0)
(1.07264653121 -2.28199541705 0)
(1.01232755093 -2.13720123742 0)
(1.00945968879 -2.09001749434 0)
(0.992330762959 -2.02542823248 0)
(0.976787686404 -1.97339127752 0)
(0.960203488037 -1.92544084916 0)
(0.942956305496 -1.88279970516 0)
(0.925110597308 -1.84436567788 0)
(0.906459613209 -1.80923671179 0)
(0.886908978006 -1.77670199952 0)
(0.866623948912 -1.74601279823 0)
(0.846022914415 -1.71585350397 0)
(0.82609629579 -1.68453623081 0)
(0.808324434209 -1.65029254417 0)
(0.789457305127 -1.61227864492 0)
(6.18595055569 47.0697732368 0)
(0.298541648054 3.79349165034 0)
(1.32225383174 2.96721737966 0)
(0.963174553961 3.10623211339 0)
(1.07184361702 2.93929693219 0)
(1.03455357025 2.87717443861 0)
(1.03801301654 2.790050787 0)
(1.03004534095 2.71771431103 0)
(1.02518063636 2.64712356071 0)
(1.01968929046 2.58119774385 0)
(1.01433645282 2.51854367428 0)
(1.00876553759 2.45916368419 0)
(1.00311685623 2.40308136022 0)
(0.997734899161 2.35032364701 0)
(0.99321434473 2.30084269391 0)
(0.990129755023 2.25433868245 0)
(0.988154724558 2.2097904803 0)
(0.990772517093 2.16516981922 0)
(-3.47576639935 -56.0973682134 0)
(1.79026124706 -4.75069169784 0)
(0.74498972008 -4.67186364146 0)
(1.0795546682 -4.46918282581 0)
(0.956917663584 -4.31682686342 0)
(0.975335930104 -4.17588253492 0)
(0.951389156393 -4.03966589166 0)
(0.939918902367 -3.9129654951 0)
(0.924674484708 -3.79156519184 0)
(0.910645330889 -3.67675330982 0)
(0.896509349405 -3.56748824247 0)
(0.882482135623 -3.46374077622 0)
(0.868450644367 -3.36513180776 0)
(0.854494680077 -3.27155524294 0)
(0.840665099396 -3.18381976986 0)
(0.826944146663 -3.10381688967 0)
(0.812972189235 -3.03422029478 0)
(0.792855160768 -2.97829995311 0)
(4.04595871829 63.4370049741 0)
(0.728159670077 7.06282845062 0)
(1.36778254726 7.5381061311 0)
(1.14564269082 6.99277364421 0)
(1.20930920887 6.79052623486 0)
(1.18075189716 6.50433152555 0)
(1.1809141649 6.2608322191 0)
(1.17173269259 6.01962295473 0)
(1.16503390462 5.79135551995 0)
(1.15723709697 5.57177449887 0)
(1.14954816234 5.36124159797 0)
(1.1414740224 5.15930298719 0)
(1.13317341256 4.96626118552 0)
(1.12441012131 4.78214368092 0)
(1.11458071391 4.60678384383 0)
(1.10283718408 4.43956577688 0)
(1.08750027074 4.28085755589 0)
(1.0748418068 4.13538755742 0)
(-0.0505343071109 -64.0969213327 0)
(0.917210465587 -9.81407948992 0)
(0.658387819295 -9.94528751677 0)
(0.719203855136 -9.33907037836 0)
(0.697812760716 -9.0159130126 0)
(0.69807122701 -8.62521157823 0)
(0.692871778759 -8.27640994308 0)
(0.687929649403 -7.93482777908 0)
(0.682293317392 -7.61179464729 0)
(0.676195397556 -7.30354714766 0)
(0.669934793546 -7.01027457004 0)
(0.663569406964 -6.72989201502 0)
(0.657384974856 -6.46082891168 0)
(0.651252162682 -6.2000990793 0)
(0.644650832891 -5.94550699703 0)
(0.637783014713 -5.69613076192 0)
(0.634088973307 -5.4482304376 0)
(0.635047735919 -5.18258929516 0)
(-0.230354376241 0.0451443758349 1.88457325656e-18)
(-0.24733167921 0.0216413169461 0)
(-0.294514507172 -0.00934571414456 0)
(-0.314402164136 -0.0370249450809 0)
(-0.316352783388 -0.0495364304907 0)
(-0.313208304961 -0.0491444867869 -1.30523898932e-18)
(-0.315665150568 -0.0492102058433 0)
(-0.308037536815 -0.0328040880325 0)
(-0.292313626052 -0.00414193590803 4.16244635685e-19)
(-0.270937341453 0.0313471275165 0)
(-0.24800171256 0.0692523013331 -2.75267483902e-19)
(-0.226569508988 0.106448665363 0)
(-0.208987108576 0.141142811912 -2.02252308635e-19)
(-0.196135470757 0.172541426363 -1.77760489504e-19)
(-0.18834584982 0.20051335693 0)
(-0.185120344639 0.225341715603 1.42173964437e-19)
(-0.185851093508 0.247425058302 1.28883581147e-19)
(-0.189649536976 0.267274983366 1.17679042809e-19)
(-0.195704860585 0.285266782513 0)
(-0.203244201407 0.30181389701 0)
(-0.21160855825 0.317160124687 0)
(-0.220261061603 0.331576636148 0)
(-0.228739074752 0.345161688189 0)
(-0.236741509494 0.358064596206 0)
(-0.243971323924 0.370277664184 -7.16043952138e-20)
(-0.250306983232 0.381833355923 -6.76721576603e-20)
(-0.255614436721 0.392657064599 0)
(-0.259881201088 0.402705293484 6.09329189294e-20)
(-0.263045537022 0.411842318985 5.80311518173e-20)
(-0.265164765751 0.419953034481 5.53904271917e-20)
(-0.266253136912 0.426875282886 0)
(-0.266402037414 0.432461460776 0)
(-0.265661015333 0.436545119129 -4.87557170724e-20)
(-0.264131489792 0.43897234041 0)
(-0.261884516829 0.439603180132 0)
(-0.259005060064 0.438296593368 -4.36149401672e-20)
(-0.255573593728 0.434948201035 0)
(-0.251650132733 0.429453743175 0)
(-0.247297183022 0.42173963441 0)
(-0.242548838591 0.411731575091 0)
(-0.237453967713 0.399385439302 0)
(-0.232020529957 0.384654487718 7.27986653852e-20)
(-0.226282357143 0.36750978344 0)
(-0.220230297493 0.347923131663 0)
(-0.213888262719 0.325867987267 6.7828240042e-20)
(-0.207244375423 0.301329680378 6.64397030008e-20)
(-0.200308167906 0.274271654396 0)
(-0.193078721479 0.244681488026 0)
(-0.185560205629 0.212517687631 6.29908066793e-20)
(-0.177755339464 0.177760387967 0)
(-0.169665254133 0.140347993824 -6.12314065562e-20)
(-0.161304891619 0.100254951098 0)
(-0.152656200512 0.0574012198237 5.98584030193e-20)
(-0.14373940285 0.0117289032687 0)
(-0.134549824775 -0.0368513478616 5.88379714838e-20)
(-0.125103871304 -0.0884256527116 5.84501766875e-20)
(-0.115393979091 -0.143114172098 0)
(-0.105436765221 -0.201040302124 0)
(-0.0952301769452 -0.262348822216 0)
(-0.0847897121181 -0.32719701216 5.76401008448e-20)
(-0.0741189896286 -0.395754792294 0)
(-0.0632327354925 -0.468199349178 0)
(-0.0521673036065 -0.544656802979 0)
(-0.0410647914005 -0.625066630938 0)
(-0.0300222397898 -0.708485318925 0)
(-0.0189421521321 -0.79352129791 0)
(-0.00777255914864 -0.879317249056 0)
(0.003526937216 -0.96509607099 -5.89306102572e-20)
(0.014969112285 -1.05012255916 0)
(0.0265435665506 -1.13370133623 -5.97290181779e-20)
(0.0382259572451 -1.21515398349 -6.01889741917e-20)
(0.0499833725071 -1.29384319123 0)
(0.0617793033555 -1.36915020959 6.12144830778e-20)
(0.0735777376675 -1.44050787763 0)
(0.0853455704341 -1.50736968419 -6.23668531516e-20)
(0.0970580487266 -1.56924986923 0)
(0.108692891812 -1.62567839464 6.36475621087e-20)
(0.120253431325 -1.67625385589 -6.43444692299e-20)
(0.131755613054 -1.72061366703 0)
(0.143238087288 -1.75846956765 0)
(0.154752173552 -1.78957332667 0)
(0.166385561059 -1.81375755222 0)
(0.178256958498 -1.83092127838 -6.87807451709e-20)
(0.19054103288 -1.84107369697 6.99792339051e-20)
(0.203440973851 -1.84432318691 -1.42685766181e-19)
(0.217210289515 -1.84091230929 -1.45819446344e-19)
(0.232134168776 -1.8312317154 -1.49451010909e-19)
(0.248464881965 -1.81585351527 0)
(0.266486289405 -1.79550048736 0)
(0.286373400112 -1.77130847755 0)
(0.308235309444 -1.74454091304 -1.71387810376e-19)
(0.332159688264 -1.71679833519 0)
(0.358053616395 -1.68969826009 0)
(0.385780111752 -1.66473794157 -2.0034076752e-19)
(0.4152651424 -1.6431600022 0)
(0.446575379022 -1.62602931883 2.29341265279e-19)
(0.479750532216 -1.61417528822 0)
(0.514569876654 -1.6078039793 -2.70099428676e-19)
(0.55058061228 -1.60553713075 0)
(0.587525836174 -1.60401659658 0)
(0.625474170883 -1.59811082585 0)
(0.665019434734 -1.58419339419 -4.14749040646e-19)
(0.701148159084 -1.560241463 0)
(0.724487800868 -1.51884025731 -5.48529775968e-19)
(0.739994557866 -1.45871798114 -6.45499393101e-19)
(0.759813264223 -1.40561748003 0)
(0.769928510431 -1.39020338066 0)
(0.806431877925 -1.35997431233 0)
(0.993038364752 -1.16229916086 -1.67895167498e-18)
(1.09069507225 -0.897902992144 0)
(0.7832839094 -0.329011412175 0)
(0.582855299447 0.484956418274 -2.84074040548e-18)
(0.47613149055 0.816846902487 -1.85064895896e-18)
(0.422894964281 1.07328617477 0)
(0.38430676126 1.28170187851 1.17596458738e-18)
(0.357780892388 1.45723628099 1.0205651017e-18)
(0.338222735771 1.60760553954 -9.12976806016e-19)
(0.323292483477 1.73769199583 0)
(0.311707712656 1.85061921036 0)
(0.302781309942 1.94865499153 0)
(0.296088011756 2.03324095148 6.93024981758e-19)
(0.291272520637 2.10542765316 0)
(0.287966551082 2.16583424923 6.40632465974e-19)
(0.285850292486 2.21504028509 0)
(0.284663900854 2.25342834684 0)
(0.284220197821 2.28146822894 0)
(0.284324365077 2.29963079031 -5.84669624031e-19)
(0.284790745739 2.30821932918 -5.77185176708e-19)
(0.28539707555 2.30766838266 0)
(0.285923134664 2.29863269985 0)
(0.286166689907 2.28174003163 0)
(0.285968926261 2.25781713039 0)
(0.285270825874 2.22773920159 0)
(0.284143138069 2.19249710158 0)
(0.282448233839 2.15669365871 -1.12934368378e-18)
(0.280375729455 2.1210832438 0)
(0.278083117707 2.08606478656 0)
(0.275666731058 2.05196030021 0)
(0.273078588896 2.01902482638 1.15214688685e-18)
(0.270292315073 1.98773198802 1.16148181293e-18)
(0.267402954991 1.95829950455 -1.17205382926e-18)
(0.264580143673 1.93094927082 -1.18378063671e-18)
(0.261956662378 1.9057025089 0)
(0.259559827779 1.88277110193 0)
(0.257337570355 1.86230382529 0)
(0.255260357652 1.84468294942 -1.24191661179e-18)
(0.253301546688 1.83013135364 0)
(0.251478618296 1.81909813788 0)
(0.249790956263 1.81181423046 1.29700679253e-18)
(0.24825696961 1.80869835109 0)
(0.246840909478 1.80979803094 1.33888779365e-18)
(0.245554809249 1.81530245351 0)
(0.244372049438 1.82490556513 1.38448933007e-18)
(0.24335857739 1.83845104315 0)
(0.242503864916 1.85514842842 0)
(0.241888884364 1.87439991198 0)
(0.241484915107 1.8948671351 0)
(0.24140069287 1.91557131608 0)
(0.241618348651 1.93476359622 0)
(0.242275353321 1.95134358216 0)
(0.243322670237 1.96329750542 0)
(0.24497344879 1.96934737531 1.61001605058e-18)
(0.247329848181 1.96723916408 0)
(0.2508640656 1.95588946815 0)
(0.255896716704 1.93303915953 1.66902774069e-18)
(0.262557099066 1.89792075462 0)
(0.270762903175 1.84790173168 0)
(0.280693764497 1.78352637122 1.69330897203e-18)
(0.291210564475 1.70463167066 0)
(0.300321976742 1.61351889165 0)
(0.306191820379 1.5083642534 1.65496550411e-18)
(0.307064489947 1.39319397036 -1.62182304747e-18)
(0.311333586693 1.26702256643 1.57555039457e-18)
(0.3140846095 1.14337764537 0)
(0.314467132236 0.994376424402 0)
(0.323739661473 0.798302166605 2.66194168277e-18)
(0.363670184809 0.55291744954 0)
(0.415141842278 0.383305200635 -2.08651978955e-18)
(0.460539289001 0.268037222365 -1.69294332679e-18)
(0.285325702226 0.360280452203 0)
(-0.151552024278 0.1560292502 -5.8522500706e-18)
(-0.117233776213 0.105270071578 0)
(-0.0779981490051 0.0270428695649 2.05784598109e-18)
(-0.0573590253463 -0.0125979774987 -1.29162762747e-18)
(-0.0442955303392 -0.0306168376843 -9.31346513776e-19)
(-0.0387913679916 -0.0393156863368 3.68378641126e-19)
(-0.0375969634183 -0.0479512432372 6.17562193774e-19)
(-0.0341923178009 -0.0567149558981 0)
(-0.026940442576 -0.0649433155352 -2.27837285865e-19)
(-0.0173732282648 -0.073091572744 3.99907056278e-19)
(-0.00762185006745 -0.0819779433454 5.3198373354e-19)
(0.000930668671892 -0.0923174509803 -3.18320421879e-19)
(0.00754205866889 -0.104460533936 4.31274855971e-19)
(0.0122613180351 -0.118343020635 1.30512279569e-19)
(0.0153505959005 -0.133703016133 0)
(0.0173132205044 -0.150056419658 -1.10259132518e-19)
(0.0185480707866 -0.167003207211 -1.02131486234e-19)
(0.0194334141829 -0.184054483 -9.50140666691e-20)
(0.0202103954642 -0.200925312895 1.7935908023e-19)
(0.0210509331643 -0.217272172184 0)
(0.0220476611322 -0.232956741179 1.5847008646e-19)
(0.0232191238237 -0.247768811664 0)
(0.0245954104638 -0.261670433255 -1.41693081039e-19)
(0.0261589548994 -0.274544989643 0)
(0.0279277020548 -0.286402185352 1.90814475275e-19)
(0.0298783795843 -0.297184683309 -6.21806572606e-20)
(0.0320522308083 -0.306912290682 -1.165981261e-19)
(0.0344600603095 -0.315550612393 -1.66247570413e-19)
(0.0371746943507 -0.323111073596 -5.23385388345e-20)
(0.0402325884825 -0.329575275928 -5.02357024035e-20)
(0.0437167902551 -0.334937508094 0)
(0.0476731254462 -0.339181574721 -9.53938006844e-20)
(0.0521765185458 -0.342282586203 4.4865487486e-20)
(0.0572757481898 -0.344223474911 0)
(0.0630199221996 -0.344966229418 0)
(0.0694404897015 -0.34448865581 4.06220958613e-20)
(0.0765618255536 -0.342745488184 0)
(0.084400356196 -0.339707132089 0)
(0.0929532810814 -0.335326411078 0)
(0.102222171883 -0.329566614307 0)
(0.11218312031 -0.322381664746 0)
(0.122821119319 -0.313725982242 7.37637118271e-20)
(0.134095145847 -0.303556731625 1.39899804755e-19)
(0.145975771153 -0.291817446211 0)
(0.158410328132 -0.278468540866 6.96292211489e-20)
(0.171354466331 -0.263439536996 -6.38343668517e-20)
(0.184749536366 -0.246689774529 0)
(0.198542900178 -0.228135121496 0)
(0.212675521323 -0.207726082324 -1.87758805897e-19)
(0.227080564078 -0.185363335634 -1.25277329247e-19)
(0.241709221772 -0.160982016649 5.96344775302e-20)
(0.256504362347 -0.134468723659 1.22903456327e-19)
(0.271422943924 -0.105736893287 6.33675804425e-20)
(0.286411517787 -0.0746653738417 0)
(0.301430794577 -0.0411430287438 -1.78532061827e-19)
(0.3164296305 -0.00503678080214 -5.7691044203e-20)
(0.33137642717 0.0337868874778 0)
(0.34623095677 0.0754734117623 1.1969799887e-19)
(0.360965835337 0.120184154061 -1.19675135649e-19)
(0.37555007698 0.168083552516 -5.75066642921e-20)
(0.389961525074 0.21936446298 0)
(0.404200733111 0.2742088327 0)
(0.418339784894 0.332832837947 0)
(0.432555182783 0.394827614242 1.21399398326e-19)
(0.446774772069 0.458777056256 0)
(0.460706687656 0.523562501669 -1.22399365432e-19)
(0.474173162338 0.588526195186 0)
(0.487064300643 0.652966595279 -6.42007586493e-20)
(0.499290885671 0.716207815242 0)
(0.510776079537 0.777583737042 -6.50958641848e-20)
(0.521449889733 0.836498445942 -6.56176762657e-20)
(0.531252192461 0.8923851172 0)
(0.540133585909 0.944756956804 -6.22143634935e-20)
(0.548056903773 0.99314731957 0)
(0.55499132601 1.03715637882 6.35041971277e-20)
(0.560918902595 1.07638139591 0)
(0.565828581376 1.11045774905 -6.49207044054e-20)