/*--------------------------------*- C++ -*----------------------------------*\
| =========                 |                                                 |
| \\      /  F ield         | OpenFOAM: The Open Source CFD Toolbox           |
|  \\    /   O peration     | Version:  v1806                                 |
|   \\  /    A nd           | Web:      www.OpenFOAM.com                      |
|    \\/     M anipulation  |                                                 |
\*---------------------------------------------------------------------------*/
FoamFile
{
    version     2.0;
    format      ascii;
    class       surfaceScalarField;
    location    "5";
    object      phi;
}
// * * * * * * * * * * * * * * * * * * * * * * * * * * * * * * * * * * * * * //

dimensions      [0 3 -1 0 0 0 0];
oriented        oriented;


internalField   nonuniform List<scalar> 
24170
(
3.07290662476e-06
1.15496000041e-07
2.98644827728e-06
8.64550488618e-08
2.90623590569e-06
8.02091121539e-08
2.82946829669e-06
7.67650770318e-08
2.75617906346e-06
7.32864397684e-08
2.68635835527e-06
6.98187279485e-08
2.61988713367e-06
6.64687013441e-08
2.5566008566e-06
6.32845261566e-08
2.49631278885e-06
6.02859713604e-08
2.4388273583e-06
5.74839041014e-08
2.38393981823e-06
5.48857036401e-08
2.33143705429e-06
5.25013206557e-08
2.28109143837e-06
5.03440389118e-08
2.23265346396e-06
4.84366305299e-08
2.18582979222e-06
4.68222748397e-08
2.14021881467e-06
4.56097723714e-08
2.0949526209e-06
4.52651475901e-08
4.57156514107e-08
2.04923623666e-06
3.4312958222e-06
1.01444965365e-07
3.42660157473e-06
9.11453861044e-08
3.41968263939e-06
8.71243281516e-08
3.41010880461e-06
8.63357828309e-08
3.39830210382e-06
8.50899832361e-08
3.38478664029e-06
8.33316773378e-08
3.36995075248e-06
8.1301833253e-08
3.35407980444e-06
7.91532903566e-08
3.33738321111e-06
7.69802893684e-08
3.32001390456e-06
7.48513260634e-08
3.30207527807e-06
7.28223618946e-08
3.28362682118e-06
7.09480653618e-08
3.2646822387e-06
6.92869263526e-08
3.24520431757e-06
6.79130050488e-08
3.22508750562e-06
6.69375898855e-08
3.20413644661e-06
6.65594803086e-08
3.182248597e-06
6.71518098762e-08
6.83974704826e-08
3.15956580804e-06
3.68016344461e-06
8.37956643718e-08
3.68481270401e-06
8.64935858426e-08
3.68773940702e-06
8.41951436599e-08
3.68967621285e-06
8.43971101093e-08
3.69054811003e-06
8.42161154153e-08
3.69048466886e-06
8.33937062925e-08
3.68960137184e-06
8.2183428176e-08
3.68797737582e-06
8.07760617594e-08
3.68566369064e-06
7.92926071234e-08
3.6826923779e-06
7.78215963947e-08
3.6790773064e-06
7.64362689628e-08
3.67481538416e-06
7.5209030652e-08
3.66988272383e-06
7.42186144405e-08
3.66423118502e-06
7.35636872523e-08
3.65778533385e-06
7.33826093192e-08
3.65046310662e-06
7.38809953127e-08
3.64225850704e-06
7.5355881112e-08
7.7469374112e-08
3.63318630107e-06
3.93998689311e-06
6.91929467437e-08
3.94624835464e-06
8.02284167052e-08
3.95023932101e-06
8.02006823469e-08
3.95353744576e-06
8.10960372612e-08
3.95615587676e-06
8.15948549733e-08
3.95816830249e-06
8.13789029872e-08
3.95965858304e-06
8.06907416926e-08
3.96068127315e-06
7.97513347153e-08
3.96126351737e-06
7.87083878001e-08
3.9614140221e-06
7.76693507742e-08
3.96112600042e-06
7.67226025324e-08
3.96038019661e-06
7.59533145599e-08
3.95914439872e-06
7.54529698183e-08
3.95737465685e-06
7.5332107449e-08
3.95502040571e-06
7.57356432254e-08
3.95204340374e-06
7.68569541286e-08
3.9484522383e-06
7.8946222682e-08
8.19402262491e-08
3.94398066701e-06
4.21891403881e-06
5.74036927851e-08
4.22569540188e-06
7.34449073357e-08
4.22997155042e-06
7.59224427063e-08
4.2334858473e-06
7.7580216688e-08
4.23640072614e-06
7.86783981661e-08
4.23877211386e-06
7.90063540336e-08
4.24067122569e-06
7.87902922271e-08
4.24215071858e-06
7.82708314026e-08
4.24323923411e-06
7.76187859564e-08
4.24394778312e-06
7.69599230374e-08
4.24427315068e-06
7.63963018025e-08
4.24420165996e-06
7.60240103707e-08
4.2437108542e-06
7.59429925424e-08
4.24277335816e-06
7.6268904697e-08
4.24136465884e-06
7.71436977731e-08
4.23947758098e-06
7.8743514265e-08
4.23713971334e-06
8.12837532881e-08
8.48768035729e-08
4.23420302084e-06
4.51856663088e-06
4.79202716857e-08
4.5254229168e-06
6.6585052121e-08
4.52992689502e-06
7.14152901219e-08
4.53357895381e-06
7.39253632678e-08
4.53665910504e-06
7.55957556195e-08
4.53921997226e-06
7.64432424288e-08
4.54131606497e-06
7.66921467975e-08
4.542992877e-06
7.65921414536e-08
4.54427801507e-06
7.63319761172e-08
4.54518412531e-06
7.60522363695e-08
4.54571228108e-06
7.5866766573e-08
4.54585565415e-06
7.58793231271e-08
4.54560285941e-06
7.61946125146e-08
4.54494314484e-06
7.69275258594e-08
4.54387552439e-06
7.82103880157e-08
4.54242275095e-06
8.01955642659e-08
4.54065207355e-06
8.30539452606e-08
8.69025012893e-08
4.53862593325e-06
4.84033981358e-06
4.02985755375e-08
4.84698269197e-06
5.99403622882e-08
4.85165892264e-06
6.67373768693e-08
4.8554428286e-06
7.01400527917e-08
4.85866947092e-06
7.2367874723e-08
4.8613997131e-06
7.37118982874e-08
4.86367400111e-06
7.44168351499e-08
4.86552913732e-06
7.47360593928e-08
4.86699029267e-06
7.4869971992e-08
4.86807135921e-06
7.49703527186e-08
4.8687776863e-06
7.51597064484e-08
4.86910981657e-06
7.55464926348e-08
4.86906775265e-06
7.62360295056e-08
4.86865712861e-06
7.73375472305e-08
4.86789882242e-06
7.89682090535e-08
4.86684256618e-06
8.12514552851e-08
4.86558601547e-06
8.4310330574e-08
8.82162012735e-08
4.86427212776e-06
5.18572005325e-06
3.41559619374e-08
5.19196803788e-06
5.3689272131e-08
5.19673691381e-06
6.19655750356e-08
5.20064241978e-06
6.62320109766e-08
5.20400739072e-06
6.90005695986e-08
5.20690212893e-06
7.08151524849e-08
5.20935700116e-06
7.1960064068e-08
5.21140017387e-06
7.26912754343e-08
5.21305371263e-06
7.32148897678e-08
5.21433272338e-06
7.36900657275e-08
5.215247109e-06
7.42441320521e-08
5.21580540226e-06
7.49871656657e-08
5.21601935165e-06
7.60210926135e-08
5.21591056029e-06
7.74455151491e-08
5.21551964924e-06
7.93583892995e-08
5.21491843566e-06
8.18522563822e-08
5.21422450825e-06
8.5003933685e-08
8.88325006675e-08
5.21360764933e-06
5.55630942018e-06
2.91827426529e-08
5.56206607387e-06
4.79311405024e-08
5.56684252417e-06
5.71876805257e-08
5.57085087514e-06
6.22223672073e-08
5.57434824036e-06
6.55020274094e-08
5.57740628696e-06
6.77560514158e-08
5.58004804302e-06
6.93173333645e-08
5.58229361075e-06
7.04448151379e-08
5.58416177208e-06
7.13459180171e-08
5.5856686775e-06
7.21824244926e-08
5.58682911095e-06
7.30830731168e-08
5.58765981621e-06
7.41558164234e-08
5.58818425511e-06
7.54960850774e-08
5.58843866111e-06
7.71905462103e-08
5.58848031817e-06
7.93163466528e-08
5.58839645159e-06
8.1935840114e-08
5.58831305735e-06
8.50868532146e-08
8.87491994253e-08
5.58839607081e-06
5.95383666223e-06
2.51189604277e-08
5.95907036653e-06
4.2694471542e-08
5.96377883694e-06
5.24764431848e-08
5.96786527935e-06
5.81333249084e-08
5.97148987687e-06
6.18751327439e-08
5.97471312983e-06
6.4530655124e-08
5.97755127329e-06
6.64773419888e-08
5.98001724511e-06
6.79771063451e-08
5.98212655297e-06
6.9235176565e-08
5.98389630783e-06
7.04114095678e-08
5.98534603461e-06
7.16322444922e-08
5.98650050872e-06
7.30003269104e-08
5.98739393209e-06
7.46018930248e-08
5.98807498333e-06
7.65087613811e-08
5.98861333503e-06
7.87774671533e-08
5.98910501638e-06
8.14437942057e-08
5.98967616673e-06
8.45153737417e-08
8.79456790851e-08
5.99047860997e-06
6.38016585964e-06
2.17641179623e-08
6.3848907317e-06
3.79682042069e-08
6.38947487588e-06
4.78906817401e-08
6.39361400312e-06
5.39926749335e-08
6.39736215322e-06
5.8125434928e-08
6.40075636668e-06
6.11350833028e-08
6.40380450636e-06
6.3427834833e-08
6.4065131889e-06
6.52672739964e-08
6.40889462971e-06
6.68526107622e-08
6.41096678176e-06
6.83383839196e-08
6.41275337584e-06
6.98447612094e-08
6.41428648383e-06
7.14666239728e-08
6.415609205e-06
7.32784306193e-08
6.41677976618e-06
7.53377220906e-08
6.417875577e-06
7.76812103208e-08
6.41899534836e-06
8.03237605846e-08
6.42025824154e-06
8.32517031478e-08
8.64073803459e-08
6.4217958157e-06
5.74324999855e-06
1.93457611603e-08
5.74688160828e-06
3.43343503943e-08
5.75063260373e-06
4.41375164404e-08
5.75415458326e-06
5.04687624091e-08
5.75741670847e-06
5.4861485914e-08
5.76042490657e-06
5.81253231924e-08
5.76317737725e-06
6.06739160115e-08
5.76567484128e-06
6.27685943267e-08
5.76792520748e-06
6.46013197893e-08
5.76994378492e-06
6.63190287369e-08
5.77175329073e-06
6.80346589577e-08
5.77338500236e-06
6.9834051461e-08
5.7748808594e-06
7.17828960804e-08
5.77629412533e-06
7.39239873913e-08
5.77769319855e-06
7.62825434861e-08
5.77915956474e-06
7.88572648171e-08
5.78078734865e-06
8.16241574771e-08
8.45179874661e-08
5.78267570427e-06
7.00054421675e-06
1.695627303e-08
7.00433302293e-06
3.05441984401e-08
7.00847304141e-06
3.99960872004e-08
7.01251671867e-06
4.64235387449e-08
7.01635668214e-06
5.1020166501e-08
7.0199673171e-06
5.4513266122e-08
7.02333435705e-06
5.73056872445e-08
7.0264524317e-06
5.96494477693e-08
7.02932756455e-06
6.17253137042e-08
7.03197706049e-06
6.3668760086e-08
7.03442880986e-06
6.55818008496e-08
7.03672296683e-06
6.75399492142e-08
7.0389101462e-06
6.95950913902e-08
7.0410555856e-06
7.17794463826e-08
7.04323577768e-06
7.41022993642e-08
7.04554090067e-06
7.65533467695e-08
7.04806636284e-06
7.90979305715e-08
8.1674166755e-08
7.05091065677e-06
8.5331923775e-06
1.46094432823e-08
8.53710141359e-06
2.66339827211e-08
8.54161874088e-06
3.54776045186e-08
8.54622725554e-06
4.18143762467e-08
8.55073650353e-06
4.65097721101e-08
8.55507692197e-06
5.01722875608e-08
8.55921395473e-06
5.31676596895e-08
8.5631328207e-06
5.57301607195e-08
8.56683548807e-06
5.80219467707e-08
8.57034005779e-06
6.01636846177e-08
8.57367913808e-06
6.22416494921e-08
8.57689961834e-06
6.43189973499e-08
8.58006135152e-06
6.64334338977e-08
8.58323626688e-06
6.86047743439e-08
8.58650814453e-06
7.08313572116e-08
8.58996714126e-06
7.30945720805e-08
8.59370843416e-06
7.53578010575e-08
7.7562583522e-08
8.59781903988e-06
1.04015339341e-05
1.22936992096e-08
1.04055618212e-05
2.26051640766e-08
1.04104669694e-05
3.05719082074e-08
1.04156998904e-05
3.65804584309e-08
1.04209951527e-05
4.12145022399e-08
1.0426229168e-05
4.49373526817e-08
1.04313404646e-05
4.80566324831e-08
1.04362983892e-05
5.07715720779e-08
1.04410991554e-05
5.32217912646e-08
1.04457570118e-05
5.55040449346e-08
1.04503087836e-05
5.76901510006e-08
1.04548025981e-05
5.98233813403e-08
1.04593050124e-05
6.19319634473e-08
1.04638881795e-05
6.40207373313e-08
1.04686373342e-05
6.60836649095e-08
1.04736360678e-05
6.80956640229e-08
1.04789702118e-05
7.00245995167e-08
7.18196797126e-08
1.04847134676e-05
1.26791302705e-05
9.95256426292e-09
1.26833434308e-05
1.8391140596e-08
1.26887126767e-05
2.52018218727e-08
1.26946891915e-05
3.06036875675e-08
1.27009466838e-05
3.4956195948e-08
1.27073079076e-05
3.85763017982e-08
1.27136740469e-05
4.16898284339e-08
1.27199959725e-05
4.44504226319e-08
1.27262543191e-05
4.69621118098e-08
1.2732460963e-05
4.92980875876e-08
1.27386431415e-05
5.15053677984e-08
1.27448531254e-05
5.36143756572e-08
1.27511467217e-05
5.5636060791e-08
1.27575983566e-05
5.75707964354e-08
1.2764275988e-05
5.94041767457e-08
1.2771258136e-05
6.11158373775e-08
1.27786051674e-05
6.26756469671e-08
6.40486845552e-08
1.27863787334e-05
1.54556626033e-05
7.4691716019e-09
1.54602385836e-05
1.38144927681e-08
1.54662779978e-05
1.91614595077e-08
1.54732413159e-05
2.36394928159e-08
1.5480757106e-05
2.7439565017e-08
1.54885944838e-05
3.07382078731e-08
1.54966150523e-05
3.36687407535e-08
1.55047406128e-05
3.63243813759e-08
1.5512934568e-05
3.8767804214e-08
1.55211910095e-05
4.10404205559e-08
1.55295289727e-05
4.31668081821e-08
1.55379832741e-05
4.51587831282e-08
1.55466021125e-05
4.70170692411e-08
1.55554375352e-05
4.87343452065e-08
1.55645456776e-05
5.02964679325e-08
1.55739753243e-05
5.16853806853e-08
1.55837716627e-05
5.28804475443e-08
5.38582330836e-08
1.55939606012e-05
1.88404734941e-05
4.63206834842e-09
1.88457723801e-05
8.51434135176e-09
1.88529153565e-05
1.20169404069e-08
1.88613403421e-05
1.52128998347e-08
1.88706261074e-05
1.81523317016e-08
1.88804876851e-05
2.08750391152e-08
1.88907428258e-05
2.34125293473e-08
1.89012778543e-05
2.57878155139e-08
1.891202977e-05
2.80152059717e-08
1.89229671377e-05
3.01012100939e-08
1.89340879317e-05
3.20456534142e-08
1.89454017794e-05
3.38429845253e-08
1.89569355225e-05
3.54835351747e-08
1.89687131324e-05
3.69549264369e-08
1.89807674958e-05
3.82432006812e-08
1.89931169946e-05
3.93342226553e-08
1.90057851921e-05
4.02147816546e-08
4.08717946786e-08
1.90187697498e-05
2.29669485366e-05
1.01901049684e-09
2.29736895485e-05
1.77092182023e-09
2.29827945767e-05
2.90954045411e-09
2.29935762917e-05
4.42863426019e-09
2.3005524891e-05
6.2014245656e-09
2.30182915131e-05
8.10599127859e-09
2.30316467872e-05
1.00553571224e-08
2.30454358463e-05
1.19962896843e-08
2.30595618732e-05
1.38879318174e-08
2.30739585599e-05
1.57019165891e-08
2.30885935891e-05
1.74100972629e-08
2.31034419956e-05
1.89916514764e-08
2.31185011101e-05
2.04246932134e-08
2.31337592817e-05
2.16938534723e-08
2.31492207282e-05
2.27830785027e-08
2.31648690298e-05
2.3682841489e-08
2.31807028134e-05
2.43839824229e-08
2.48824068814e-08
2.319668844e-05
1.68138313757e-05
-2.10943024438e-09
1.68195316058e-05
-3.93254558157e-09
1.68270430411e-05
-4.60358376706e-09
1.68357493469e-05
-4.2820697278e-09
1.68452610597e-05
-3.31078690512e-09
1.68553283278e-05
-1.9667890203e-09
1.68658013343e-05
-4.16778158518e-10
1.68765613768e-05
1.23030410369e-09
1.68875437062e-05
2.907895974e-09
1.68986821925e-05
4.55742337622e-09
1.69099536687e-05
6.14172042643e-09
1.69213167104e-05
7.62253601102e-09
1.69327672909e-05
8.97824888137e-09
1.69442715552e-05
1.01836744003e-08
1.69558312362e-05
1.12282439891e-08
1.69674116503e-05
1.20971050438e-08
1.69790129765e-05
1.27887397718e-08
1.32967234715e-08
1.69905946352e-05
1.46379194095e-05
-5.46218742025e-09
1.46438550278e-05
-9.87036767383e-09
1.4651363777e-05
-1.21152174003e-08
1.46597810902e-05
-1.27014895202e-08
1.46687687278e-05
-1.23027181109e-08
1.4678150947e-05
-1.13503165576e-08
1.46878080205e-05
-1.00791979036e-08
1.46976624864e-05
-8.62380172565e-09
1.47076464891e-05
-7.08112817657e-09
1.47177235626e-05
-5.51867156276e-09
1.47278530409e-05
-3.9924944784e-09
1.47380184901e-05
-2.54107397778e-09
1.47481893572e-05
-1.19725470803e-09
1.47583578188e-05
1.78798224798e-11
1.47684958044e-05
1.08615817452e-09
1.47785984715e-05
1.99836007004e-09
1.47886369379e-05
2.74692822963e-09
3.33156401099e-09
1.47986076237e-05
1.27439443967e-05
-9.27626675615e-09
1.2750346702e-05
-1.62744057401e-08
1.27579562619e-05
-1.97270271267e-08
1.27661066548e-05
-2.08543704407e-08
1.27745766538e-05
-2.07751305522e-08
1.27832697017e-05
-2.00468386477e-08
1.2792116153e-05
-1.89275258923e-08
1.28010588367e-05
-1.75696672265e-08
1.28100572304e-05
-1.60812962381e-08
1.28190798691e-05
-1.45436494324e-08
1.28281025663e-05
-1.30173617386e-08
1.28371057364e-05
-1.15457628605e-08
1.28460695339e-05
-1.01635106685e-08
1.28549789991e-05
-8.89214673627e-09
1.28638154787e-05
-7.75193462631e-09
1.28725656246e-05
-6.7513570567e-09
1.28812134592e-05
-5.90055600651e-09
-5.19962686967e-09
1.28897442561e-05
1.10955027177e-05
-1.38510782548e-08
1.11025507298e-05
-2.33238329409e-08
1.11102465739e-05
-2.74242134905e-08
1.11180721153e-05
-2.86817147773e-08
1.11259881309e-05
-2.86931884476e-08
1.11339807102e-05
-2.8041763423e-08
1.11420172879e-05
-2.6966207435e-08
1.11500674135e-05
-2.56217600022e-08
1.11581098807e-05
-2.41252849039e-08
1.1166126962e-05
-2.25633881124e-08
1.11741063927e-05
-2.09975388295e-08
1.118203024e-05
-1.94737535951e-08
1.11898890814e-05
-1.80221581601e-08
1.11976611954e-05
-1.66692190403e-08
1.12053403486e-05
-1.54288157486e-08
1.12129036502e-05
-1.43182605425e-08
1.1220351408e-05
-1.33449013273e-08
-1.25206709945e-08
1.12276694793e-05
9.66094963024e-06
-1.95872665981e-08
9.66873421406e-06
-3.1109478695e-08
9.67638901212e-06
-3.50802912495e-08
9.68379049593e-06
-3.6084604922e-08
9.69111023503e-06
-3.60145131325e-08
9.6983908516e-06
-3.53238145652e-08
9.70562615418e-06
-3.42029812918e-08
9.71280966012e-06
-3.28066266229e-08
9.71993839133e-06
-3.12552615253e-08
9.72700871473e-06
-2.96349453223e-08
9.73401473623e-06
-2.80054003391e-08
9.74094804418e-06
-2.64085543931e-08
9.74779640781e-06
-2.48737943696e-08
9.75454802081e-06
-2.34215044966e-08
9.76118590953e-06
-2.20687170094e-08
9.7676958412e-06
-2.08281872012e-08
9.77406306869e-06
-1.97124206037e-08
-1.87339669516e-08
9.78027599693e-06
8.41277244837e-06
-2.7008162505e-08
8.42122229535e-06
-3.95602767347e-08
8.42861805586e-06
-4.24769579659e-08
8.4354984181e-06
-4.29664379082e-08
8.4421926634e-06
-4.27098691415e-08
8.44876008752e-06
-4.18925094562e-08
8.45521627141e-06
-4.06602467614e-08
8.46157780973e-06
-3.91690250841e-08
8.46785813029e-06
-3.75363137291e-08
8.47406413031e-06
-3.58416199515e-08
8.48019632988e-06
-3.41389442759e-08
8.48625066729e-06
-3.24644691033e-08
8.49221787193e-06
-3.08427042157e-08
8.49808538477e-06
-2.92904374253e-08
8.50383653172e-06
-2.78207769889e-08
8.50945474993e-06
-2.64462622264e-08
8.51492747903e-06
-2.51878498018e-08
-2.40837239793e-08
8.5202779321e-06
7.32703871922e-06
-3.67634600361e-08
7.33584001317e-06
-4.83624279384e-08
7.34273340015e-06
-4.93715038472e-08
7.34903220019e-06
-4.9266279873e-08
7.35507865155e-06
-4.87575908161e-08
7.36092226329e-06
-4.77369481775e-08
7.36660361409e-06
-4.63424293867e-08
7.37216213775e-06
-4.47281529912e-08
7.37762552976e-06
-4.30000909645e-08
7.38300907914e-06
-4.12261710176e-08
7.38831960634e-06
-3.94501479188e-08
7.3935574127e-06
-3.77036101565e-08
7.39871573891e-06
-3.60021617519e-08
7.4037828668e-06
-3.43584136856e-08
7.40873973644e-06
-3.27781228703e-08
7.4135570279e-06
-3.12639881976e-08
7.41819301231e-06
-2.98253280754e-08
-2.84978644037e-08
7.42260451998e-06
6.38290173655e-06
-4.95999375852e-08
6.39143473599e-06
-5.6896208959e-08
6.39766775443e-06
-5.56051836619e-08
6.40340532452e-06
-5.50064690868e-08
6.40883367832e-06
-5.41857751801e-08
6.41399462469e-06
-5.28984970289e-08
6.41895457332e-06
-5.1302950964e-08
6.42376798677e-06
-4.9541956391e-08
6.42847044879e-06
-4.77029553704e-08
6.433082794e-06
-4.58386356785e-08
6.43761524782e-06
-4.39853900737e-08
6.44207453125e-06
-4.21623532749e-08
6.44645612967e-06
-4.03843989866e-08
6.45075296588e-06
-3.86557940481e-08
6.45494872504e-06
-3.69740220759e-08
6.45901041075e-06
-3.53260742719e-08
6.46288159479e-06
-3.36973257833e-08
-3.2111932438e-08
6.46649147013e-06
5.56207206165e-06
-6.620820013e-08
5.56921501004e-06
-6.40398175999e-08
5.57447630696e-06
-6.08679059951e-08
5.57930483345e-06
-5.98371448426e-08
5.58368437011e-06
-5.85656498862e-08
5.58769108618e-06
-5.69053923424e-08
5.59141545706e-06
-5.50277717339e-08
5.5949208563e-06
-5.30476407729e-08
5.59824831946e-06
-5.10303809924e-08
5.60142351062e-06
-4.90158049988e-08
5.60446511417e-06
-4.70282296149e-08
5.60738585877e-06
-4.50832477221e-08
5.61019160727e-06
-4.31899586262e-08
5.61288547983e-06
-4.13499394578e-08
5.61546438843e-06
-3.95529086513e-08
5.61790312887e-06
-3.77644646268e-08
5.6201061851e-06
-3.5903380428e-08
-3.3756360255e-08
5.62174918559e-06
4.84555048182e-06
-8.41522083593e-08
4.84695418882e-06
-6.54443729756e-08
4.84692067018e-06
-6.08359748816e-08
4.84551743994e-06
-5.84362853472e-08
4.8429034422e-06
-5.5952072048e-08
4.83939293723e-06
-5.33951133918e-08
4.83522771574e-06
-5.08629979789e-08
4.83058261865e-06
-4.84027803163e-08
4.82558734738e-06
-4.60356107698e-08
4.82034057986e-06
-4.37708263002e-08
4.81492099268e-06
-4.16102809918e-08
4.8093908989e-06
-3.955308186e-08
4.80379865916e-06
-3.75975343873e-08
4.79818605392e-06
-3.57374625721e-08
4.79259342653e-06
-3.3960028105e-08
4.78706130862e-06
-3.22329817949e-08
4.78162159597e-06
-3.04651875991e-08
-2.78665989782e-08
4.77572888668e-06
4.11852396479e-06
4.05307947419e-06
3.9922432695e-06
3.93380694043e-06
3.87785484912e-06
3.82445968383e-06
3.77359665179e-06
3.72519383482e-06
3.6791579833e-06
3.63538686137e-06
3.59377657693e-06
3.55422354835e-06
3.51662598363e-06
3.48088855075e-06
3.44692850293e-06
3.41469516302e-06
3.38422925645e-06
3.35636286385e-06
1.77578299155e-08
-1.78182110241e-08
-3.75773975455e-09
2.14447738616e-08
-7.97120619006e-08
7.59335947837e-08
-1.83288052276e-07
1.03546069323e-07
-3.01382681778e-07
1.18090810682e-07
-4.2919563431e-07
1.27794525736e-07
-5.64174290883e-07
1.34980754273e-07
-7.04623409543e-07
1.40434806928e-07
-8.49169248787e-07
1.44549022428e-07
-9.96757925996e-07
1.47575832662e-07
-1.14645381823e-06
1.49699249429e-07
-1.29752763049e-06
1.51061953371e-07
-1.44930675305e-06
1.51782685772e-07
-1.60127801867e-06
1.51960946614e-07
-1.7529585376e-06
1.51684769765e-07
-1.90399707348e-06
1.51030061551e-07
-2.05405742757e-06
1.50065846135e-07
-2.20291639732e-06
1.48851912832e-07
-2.35035482128e-06
1.47443532159e-07
-2.49624990226e-06
1.45888307132e-07
-2.64047557518e-06
1.44230494032e-07
-2.78299088174e-06
1.42507892777e-07
-2.92374405985e-06
1.40756341269e-07
-3.06275819649e-06
1.39005929901e-07
-3.20004156275e-06
1.3728563888e-07
-3.33566939566e-06
1.35619786206e-07
-3.46969882911e-06
1.3403232256e-07
-3.60224901332e-06
1.32542750526e-07
-3.73341688326e-06
1.31170769314e-07
-3.86335543008e-06
1.29931830886e-07
-3.99219211851e-06
1.28841090227e-07
-4.12010601492e-06
1.27908215046e-07
-4.24724298523e-06
1.27141725001e-07
-4.37379018212e-06
1.26542828746e-07
-4.49989247734e-06
1.26109037511e-07
-4.6257235357e-06
1.25827732786e-07
-4.75139654509e-06
1.25680247156e-07
-4.8770345121e-06
1.25634712119e-07
-5.00267845016e-06
1.25651052588e-07
-5.12835583962e-06
1.25674150685e-07
-5.25398887409e-06
1.25640203246e-07
-5.37946195461e-06
1.25470644901e-07
-5.50453452553e-06
1.25080491216e-07
-5.62890848316e-06
1.24373340225e-07
-5.75215078757e-06
1.23251655867e-07
-5.87376261003e-06
1.21613694767e-07
-5.99311576401e-06
1.19363944065e-07
-6.10952104683e-06
1.16409909266e-07
-6.22217952112e-06
1.12670654671e-07
-6.33024925768e-06
1.0807700366e-07
-6.43281601673e-06
1.02580425219e-07
-6.52895106823e-06
9.61453444185e-08
-6.61769179336e-06
8.87557106397e-08
-6.69808836497e-06
8.04105750545e-08
-6.76919310638e-06
7.11221146407e-08
-6.83010830597e-06
6.09328064078e-08
-6.87998163769e-06
4.98922685176e-08
-6.91799808444e-06
3.80367099805e-08
-6.94337092046e-06
2.53922501931e-08
-6.95529654204e-06
1.19474595288e-08
-6.95296967929e-06
-2.30760976713e-09
-6.93570654809e-06
-1.72409560721e-08
-6.90299943807e-06
-3.2689905858e-08
-6.85438892665e-06
-4.85888408646e-08
-6.78949251685e-06
-6.4880919549e-08
-6.70798459943e-06
-8.14871210364e-08
-6.60967228043e-06
-9.82992660118e-08
-6.49449342615e-06
-1.15160065033e-07
-6.3626131772e-06
-1.31871080187e-07
-6.21441401299e-06
-1.48183964385e-07
-6.05058466938e-06
-1.6382456848e-07
-5.87207526136e-06
-1.78497334787e-07
-5.6801514592e-06
-1.91922762192e-07
-5.47629811043e-06
-2.03842263859e-07
-5.2622445903e-06
-2.14052990694e-07
-5.03982855206e-06
-2.22403226778e-07
-4.81100655213e-06
-2.28820193546e-07
-4.57771295064e-06
-2.33281847923e-07
-4.34188202116e-06
-2.35834808148e-07
-4.10529984404e-06
-2.36574308695e-07
-3.86965780665e-06
-2.35649801608e-07
-3.63645142256e-06
-2.33204061622e-07
-3.40704788095e-06
-2.29420486297e-07
-3.18254837493e-06
-2.24503474262e-07
-2.96390115176e-06
-2.18670225342e-07
-2.75183911263e-06
-2.12078994074e-07
-2.54699976305e-06
-2.04882285904e-07
-2.34982059474e-06
-1.97235445165e-07
-2.16051269869e-06
-1.89393468107e-07
-1.97915960695e-06
-1.81490359198e-07
-1.80583289107e-06
-1.73470268271e-07
-1.64035526833e-06
-1.65633429431e-07
-1.48243397165e-06
-1.58072794212e-07
-1.33211767029e-06
-1.50483341624e-07
-1.18883039098e-06
-1.43449852461e-07
-1.05133951373e-06
-1.37668672025e-07
-9.19835091366e-07
-1.3166902961e-07
-7.9495646068e-07
-1.25056935072e-07
-6.75884371638e-07
-1.19237688429e-07
-5.61520925691e-07
-1.14543352983e-07
-4.52318518874e-07
-1.09381071909e-07
-3.471979428e-07
-1.05296504426e-07
-2.43707196253e-07
-1.03621171912e-07
-1.42721813386e-07
-1.01075018733e-07
-4.63031664485e-08
-9.64759037599e-08
4.19134405334e-08
-8.82533246208e-08
1.14777912019e-07
-7.28781144706e-08
1.74762004298e-07
-5.99850025374e-08
2.28659615211e-07
-5.39011003781e-08
2.78060159213e-07
-4.940235901e-08
3.23589371427e-07
-4.5540559454e-08
3.65763157378e-07
-4.21849940662e-08
4.05036701386e-07
-3.92947527206e-08
4.41832531706e-07
-3.68164589657e-08
4.76516200763e-07
-3.47127621971e-08
5.09432284753e-07
-3.29431929309e-08
5.40880013004e-07
-3.14815423512e-08
5.71142500929e-07
-3.02965530867e-08
6.00468856634e-07
-2.93663165932e-08
6.2909668328e-07
-2.8662883337e-08
6.57230918961e-07
-2.81638519752e-08
6.85056330954e-07
-2.78437113096e-08
7.12723598909e-07
-2.76820855406e-08
7.40369004839e-07
-2.76561781137e-08
7.68102916166e-07
-2.77481350411e-08
7.96026481982e-07
-2.79365451805e-08
8.24215451457e-07
-2.82046775739e-08
8.52735716441e-07
-2.85335158336e-08
8.81629786188e-07
-2.89085413076e-08
9.10931710331e-07
-2.93132069678e-08
9.40654764428e-07
-2.97350117955e-08
9.70805464719e-07
-3.01593714642e-08
1.00137154606e-06
-3.05756422046e-08
1.03233571235e-06
-3.09709501353e-08
1.06366361456e-06
-3.13364568347e-08
1.09531767182e-06
-3.16608265889e-08
1.12724469623e-06
-3.19369406914e-08
1.15938921048e-06
-3.21550430718e-08
1.1916831936e-06
-3.23097448271e-08
1.22405921506e-06
-3.23927185078e-08
1.25644059929e-06
-3.23990322595e-08
1.28874832451e-06
-3.23220479249e-08
1.32089406088e-06
-3.21575594494e-08
1.35278665292e-06
-3.19008351616e-08
1.384329136e-06
-3.15493023654e-08
1.41542430022e-06
-3.1099476209e-08
1.44597060101e-06
-3.05499948786e-08
1.47586822926e-06
-2.98994803644e-08
1.50501558373e-06
-2.91491970599e-08
1.53331514919e-06
-2.83001266083e-08
1.5606702899e-06
-2.73561792411e-08
1.58699110574e-06
-2.63209326716e-08
1.61219054409e-06
-2.52002744429e-08
1.63619053474e-06
-2.40000002865e-08
1.6589182629e-06
-2.27284673896e-08
1.68031220508e-06
-2.13937675724e-08
1.70031764387e-06
-2.00058950666e-08
1.71889183359e-06
-1.85735938155e-08
1.7359984964e-06
-1.71066072949e-08
1.75161256164e-06
-1.56128453788e-08
1.76571343488e-06
-1.41001440965e-08
1.77828876731e-06
-1.2573335362e-08
1.78932654156e-06
-1.10362118054e-08
1.79881875341e-06
-9.48922300625e-09
1.80675470463e-06
-7.93328632373e-09
1.81312765571e-06
-6.36862584619e-09
1.81793401901e-06
-4.80222255384e-09
1.82119636902e-06
-3.25630410885e-09
1.82299864875e-06
-1.79634746813e-09
1.82353663428e-06
-5.30003451034e-10
1.82280509624e-06
7.39279459989e-10
1.82045769127e-06
2.35707936166e-09
1.81597489223e-06
4.49185339853e-09
1.8085604281e-06
7.4251905989e-09
1.79706199362e-06
1.15080025586e-08
1.77988984935e-06
1.71828437942e-08
1.75474613848e-06
2.51525340072e-08
1.71824496043e-06
3.65114978912e-08
1.66483743499e-06
5.34183223591e-08
7.31536249349e-08
1.59169941743e-06
-9.57637733904e-08
7.79204399704e-08
-2.17222411853e-07
1.42883650001e-07
-3.24869761319e-07
1.83572624139e-07
-4.37181036213e-07
2.15844318804e-07
-5.58728447157e-07
2.3963418195e-07
-6.88407184074e-07
2.57462839419e-07
-8.24431786371e-07
2.71003407696e-07
-9.65267388486e-07
2.81261129171e-07
-1.10962135819e-06
2.88902029422e-07
-1.25645715164e-06
2.94402806162e-07
-1.40488306286e-06
2.98124559775e-07
-1.55418383623e-06
3.00354503921e-07
-1.70373115549e-06
3.01329941594e-07
-1.85302956959e-06
3.01252288768e-07
-2.00163983861e-06
3.00295947818e-07
-2.14922890587e-06
2.98613619266e-07
-2.29550115731e-06
2.96340229932e-07
-2.44024855144e-06
2.93595284282e-07
-2.58328753836e-06
2.90485168317e-07
-2.72450733222e-06
2.8710441745e-07
-2.86381174474e-06
2.83537413205e-07
-3.00116659541e-06
2.79859242908e-07
-3.13654575965e-06
2.761372581e-07
-3.26997593562e-06
2.72431786638e-07
-3.40148643507e-06
2.68797539571e-07
-3.53115417236e-06
2.65283853833e-07
-3.65905635847e-06
2.6193598678e-07
-3.78531282351e-06
2.5879524553e-07
-3.91004017798e-06
2.55899579226e-07
-4.03339435412e-06
2.53282691791e-07
-4.15552553608e-06
2.50973934161e-07
-4.27661712403e-06
2.48996615176e-07
-4.39683996625e-06
2.47366588252e-07
-4.51638867716e-06
2.46089240629e-07
-4.63543399071e-06
2.45157153535e-07
-4.75415432359e-06
2.44546441828e-07
-4.87268496512e-06
2.4421398756e-07
-4.99114543032e-06
2.44093828683e-07
-5.10958670671e-06
2.44095460779e-07
-5.22801540918e-06
2.44101923396e-07
-5.34634215078e-06
2.43970473362e-07
-5.46440477798e-06
2.4353347961e-07
-5.58192229244e-06
2.42602659454e-07
-5.69852021316e-06
2.40973427797e-07
-5.81369539135e-06
2.38433238553e-07
-5.9268474158e-06
2.34770378997e-07
-6.03725880626e-06
2.29783662813e-07
-6.1441313272e-06
2.23289465843e-07
-6.24657750234e-06
2.15127067511e-07
-6.34366382604e-06
2.05172946654e-07
-6.43441683603e-06
1.93345419066e-07
-6.51786212266e-06
1.79602793136e-07
-6.59304116794e-06
1.6394901381e-07
-6.65904299058e-06
1.46427462247e-07
-6.71502675179e-06
1.27122601661e-07
-6.76021342465e-06
1.06137445633e-07
-6.7938871377e-06
8.35846468462e-08
-6.81541383686e-06
5.95832061056e-08
-6.82422241423e-06
3.42206867856e-08
-6.8198166647e-06
7.56279582831e-09
-6.80193803552e-06
-2.01662307789e-08
-6.77037281533e-06
-4.87853559265e-08
-6.72471299244e-06
-7.83304953218e-08
-6.66448941839e-06
-1.08792318482e-07
-6.58922092999e-06
-1.40131388709e-07
-6.49844015767e-06
-1.72248987627e-07
-6.391761101e-06
-2.04962205382e-07
-6.2689250761e-06
-2.37979848991e-07
-6.12988322533e-06
-2.70900399289e-07
-5.97483889124e-06
-3.03216177705e-07
-5.80431334702e-06
-3.34342002709e-07
-5.61915128006e-06
-3.63651014375e-07
-5.42053497645e-06
-3.90534085023e-07
-5.20992721433e-06
-4.14444000963e-07
-4.9890404201e-06
-4.34935526472e-07
-4.75974796231e-06
-4.51688397698e-07
-4.5240294385e-06
-4.64534751168e-07
-4.28386937862e-06
-4.73437488385e-07
-4.04123126333e-06
-4.78472633815e-07
-3.79796799732e-06
-4.79836344265e-07
-3.55580975309e-06
-4.77812369567e-07
-3.31630085642e-06
-4.72717803038e-07
-3.08081129609e-06
-4.64920629376e-07
-2.8505302486e-06
-4.54794799434e-07
-2.62649296575e-06
-4.42724642727e-07
-2.40941792956e-06
-4.29176492202e-07
-2.19983568668e-06
-4.14503109105e-07
-1.99826699712e-06
-3.98856349003e-07
-1.80486725186e-06
-3.82896048395e-07