/*--------------------------------*- C++ -*----------------------------------*\
| =========                 |                                                 |
| \\      /  F ield         | OpenFOAM: The Open Source CFD Toolbox           |
|  \\    /   O peration     | Version:  v1806                                 |
|   \\  /    A nd           | Web:      www.OpenFOAM.com                      |
|    \\/     M anipulation  |                                                 |
\*---------------------------------------------------------------------------*/
FoamFile
{
    version     2.0;
    format      ascii;
    class       surfaceScalarField;
    location    "5";
    object      phia;
}
// * * * * * * * * * * * * * * * * * * * * * * * * * * * * * * * * * * * * * //

dimensions      [0 3 -1 0 0 0 0];
oriented        oriented;


internalField   nonuniform List<scalar> 
24170
(
5.50274188626e-08
2.65371172051e-07
1.79892096083e-07
-1.21697723332e-07
1.33689823053e-07
4.93822965411e-08
1.15823607328e-07
1.84149459477e-08
1.18325284997e-07
2.09425874034e-10
1.19831030789e-07
-1.29901245023e-09
1.31366408586e-07
-8.96459770296e-09
1.48388543243e-07
-1.67419416524e-08
1.74382695879e-07
-2.40120195823e-08
2.04555902688e-07
-2.99954346701e-08
2.37633581169e-07
-3.1556538594e-08
2.71054992994e-07
-3.31194356462e-08
3.11319722152e-07
-3.91587843774e-08
3.59048117996e-07
-4.71460861504e-08
4.10594133686e-07
-5.05946611113e-08
4.71381394494e-07
-6.04385110424e-08
5.74771266382e-07
-1.03842534592e-07
-5.0228381898e-07
1.07651466699e-06
7.80943566852e-07
-1.62980123331e-07
2.90870193973e-07
3.77565445531e-07
2.96458482351e-07
5.1001714676e-08
2.92011961664e-07
2.67320797005e-08
2.82209464597e-07
1.40350404102e-08
2.78195466197e-07
4.40440886934e-09
2.79092722445e-07
-7.47277578675e-09
2.82033935361e-07
-1.90954912807e-08
2.89783529985e-07
-3.07993253271e-08
3.02468680604e-07
-4.29599282932e-08
3.22661790597e-07
-5.17680213658e-08
3.51029643482e-07
-6.23001353363e-08
3.86941318952e-07
-7.58483296594e-08
4.29241830657e-07
-9.05768087905e-08
4.82032198526e-07
-1.04539733025e-07
5.52807004745e-07
-1.3269719085e-07
6.71937624213e-07
-2.25036667002e-07
-6.46948991656e-07
8.15203962412e-07
-3.70007423178e-09
2.06809022195e-07
2.88224496176e-07
8.61874290111e-08
2.70967858013e-07
6.94083119112e-08
2.52351304842e-07
4.51868551037e-08
2.4419089691e-07
2.35535335963e-08
2.37679235362e-07
1.09148687995e-08
2.36346707568e-07
-4.635678665e-09
2.38249178089e-07
-2.06893594109e-08
2.46178329236e-07
-3.74772982652e-08
2.59025842759e-07
-5.53980378492e-08
2.78918461216e-07
-7.05586297738e-08
3.05227040588e-07
-8.79686481346e-08
3.36941972359e-07
-1.06566779462e-07
3.73162895827e-07
-1.25934289444e-07
4.18173821866e-07
-1.48600437942e-07
4.79839782529e-07
-1.93726677637e-07
5.76245002289e-07
-3.21240553865e-07
-6.63302698911e-07
5.93707525333e-07
4.03548421804e-07
2.04425345935e-07
3.39518589443e-07
1.57336572639e-07
3.38196414299e-07
7.6760764557e-08
3.2518935667e-07
6.2062880689e-08
3.17417048911e-07
3.48344204253e-08
3.1246037047e-07
1.78622601794e-08
3.1178226864e-07
-1.94910939668e-09
3.14251503472e-07
-2.2251129885e-08
3.21146719755e-07
-4.36054283969e-08
3.31389765974e-07
-6.55655880608e-08
3.46459567326e-07
-8.56651223822e-08
3.65417483825e-07
-1.07372552903e-07
3.88322205611e-07
-1.3001253744e-07
4.15571999751e-07
-1.53857107231e-07
4.51098815097e-07
-1.84835264372e-07
5.00864784678e-07
-2.44348016541e-07
5.58879845002e-07
-3.80330848384e-07
-6.26409409391e-07
5.21022893723e-07
3.71589598663e-07
2.52618273633e-07
3.84838600507e-07
1.4404412123e-07
3.75384020547e-07
8.66953121821e-08
3.68093926956e-07
6.91357758131e-08
3.63080163198e-07
4.05986396906e-08
3.60642279378e-07
2.03456084222e-08
3.61530391236e-07
-1.89764415453e-09
3.64952124757e-07
-2.53297201876e-08
3.71665820522e-07
-4.94916710923e-08
3.80972588992e-07
-7.43924549209e-08
3.94038518189e-07
-9.79252350294e-08
4.10204501825e-07
-1.22871008734e-07
4.29733620291e-07
-1.48723779365e-07
4.53695875489e-07
-1.77009363843e-07
4.84899572793e-07
-2.15231758574e-07
5.24058116162e-07
-2.82951455149e-07
5.51509423977e-07
-4.07520826609e-07
-5.75005577793e-07
5.01284216288e-07
4.3662187403e-07
2.72758858657e-07
4.3419537109e-07
1.51728667211e-07
4.26378774214e-07
9.90489690377e-08
4.2155587423e-07
7.74895855496e-08
4.17885162053e-07
4.71584803685e-08
4.16522588631e-07
2.38289629233e-08
4.1765513498e-07
-1.34411651048e-09
4.20858664893e-07
-2.73705815007e-08
4.26404605614e-07
-5.43031652635e-08
4.34059205296e-07
-8.15891880255e-08
4.44566636112e-07
-1.08273236891e-07
4.57674063905e-07
-1.35943288722e-07
4.73645643317e-07
-1.64782325282e-07
4.93676669924e-07
-1.97112039414e-07
5.18935619896e-07
-2.40604663811e-07
5.45342778244e-07
-3.09535367624e-07
5.51342635839e-07
-4.13836454432e-07
-5.2779184574e-07
5.03104137854e-07
4.83697139916e-07
2.71205247973e-07
4.81893133904e-07
1.53233185025e-07
4.76064571239e-07
1.04966255333e-07
4.73620603971e-07
8.00000896425e-08
4.71676727759e-07
4.94463034173e-08
4.71594351993e-07
2.42215000553e-08
4.73299071912e-07
-2.52853080946e-09
4.76508130425e-07
-3.00807604742e-08
4.81316431555e-07
-5.85820492804e-08
4.87676522847e-07
-8.73633805593e-08
4.96088701938e-07
-1.16088686833e-07
5.06491985723e-07
-1.45706048937e-07
5.19207646988e-07
-1.76816152655e-07
5.35006730543e-07
-2.12181542486e-07
5.53270777233e-07
-2.58178773983e-07
5.6724112812e-07
-3.23075383795e-07
5.59635669573e-07
-4.06470933678e-07
-4.83193158192e-07
5.17311185092e-07
5.30614952549e-07
2.62322787443e-07
5.29312583146e-07
1.57923600801e-07
5.26391690135e-07
1.1122909022e-07
5.2580315943e-07
8.33583834e-08
5.25448217899e-07
5.22408067402e-08
5.26459940089e-07
2.503166043e-08
5.28713761343e-07
-3.18656221744e-09
5.31955429752e-07
-3.22475714202e-08
5.36258310524e-07
-6.19370142805e-08
5.41552498516e-07
-9.20895625609e-08
5.48231684566e-07
-1.22267030489e-07
5.56280455405e-07
-1.53398561452e-07
5.65942815284e-07
-1.86091684032e-07
5.77272530763e-07
-2.23158073742e-07
5.88277513461e-07
-2.68807640722e-07
5.91807786442e-07
-3.26547820334e-07
5.77009333069e-07
-3.90739771355e-07
-4.45313320002e-07
5.39077860274e-07
5.76445476051e-07
2.39480410997e-07
5.76763579002e-07
1.57290542204e-07
5.77298052227e-07
1.10761082551e-07
5.7827804573e-07
8.26017743702e-08
5.79417024362e-07
5.14793779227e-08
5.81415563921e-07
2.34544499106e-08
5.84158593115e-07
-5.4239221521e-09
5.87477912114e-07
-3.50330038579e-08
5.91332558428e-07
-6.52472018938e-08
5.95726600408e-07
-9.5899442046e-08
6.00881163033e-07
-1.26906805879e-07
6.06818376545e-07
-1.58753517912e-07
6.13469882411e-07
-1.92128308102e-07
6.20300212132e-07
-2.29319689256e-07
6.24572851206e-07
-2.72494009491e-07
6.20403848459e-07
-3.21917757128e-07
6.01296899064e-07
-3.71592111609e-07
-4.09474206685e-07
5.67958418465e-07
6.22827776691e-07
2.14536246074e-07
6.24635517412e-07
1.58313562741e-07
6.28974701052e-07
1.09173877461e-07
6.31373889678e-07
8.28030878743e-08
6.34015095967e-07
5.1009624197e-08
6.36933294337e-07
2.24359420852e-08
6.40153469675e-07
-7.20631490837e-09
6.43538749121e-07
-3.7174902239e-08
6.47000392146e-07
-6.78469821763e-08
6.50525156509e-07
-9.88420823929e-08
6.54279159638e-07
-1.3022179937e-07
6.58186859936e-07
-1.6214135155e-07
6.6180747463e-07
-1.9548370122e-07
6.64304289674e-07
-2.31374097422e-07
6.62794153109e-07
-2.70802176687e-07
6.53039853528e-07
-3.12136308434e-07
6.32490926539e-07
-3.49912298317e-07
-3.78401853656e-07
6.0180186356e-07
6.70475172527e-07
1.80683841172e-07
6.72989548414e-07
1.55736001428e-07
6.8037123088e-07
1.02364461404e-07
6.84357470185e-07
7.95274680969e-08
6.88529693681e-07
4.77411258455e-08
6.92393844677e-07
1.93570004126e-08
6.96254144616e-07
-1.0192394034e-08
6.99791519531e-07
-4.00327185049e-08
7.02983007088e-07
-7.04029761145e-08
7.05695517564e-07
-1.01172869309e-07
7.08178017188e-07
-1.32238020033e-07
7.10047778868e-07
-1.63949492798e-07
7.10836251262e-07
-1.95847509667e-07
7.09307953286e-07
-2.29789513e-07
7.03187409049e-07
-2.64478827584e-07
6.89788016924e-07
-2.98784507716e-07
6.68007095435e-07
-3.28359956006e-07
-3.48822862621e-07
6.40173585787e-07
5.99996438774e-07
1.56580122172e-07
6.05655191598e-07
1.51485222351e-07
6.1202303591e-07
9.76102810269e-08
6.16839811743e-07
7.61258522324e-08
6.21203028974e-07
4.48389499974e-08
6.25177080426e-07
1.64788450736e-08
6.2883259934e-07
-1.2736103954e-08
6.31895701515e-07
-4.23213441856e-08
6.34341140252e-07
-7.22111950054e-08
6.36092980854e-07
-1.02588661109e-07
6.37236571375e-07
-1.33344951774e-07
6.37670508525e-07
-1.63135001888e-07
6.36115903395e-07
-1.94538481202e-07
6.324731901e-07
-2.25070094506e-07
6.24476234344e-07
-2.56656462773e-07
6.11379120257e-07
-2.85160227471e-07
5.9319218924e-07
-3.09019565937e-07
-3.2534778217e-07
5.70842443544e-07
7.24272493819e-07
1.3129181603e-07
7.33860546009e-07
1.42306713667e-07
7.41691595777e-07
9.04492945134e-08
7.48410219367e-07
7.05059511693e-08
7.54179515161e-07
3.98940736119e-08
7.5929882323e-07
1.24534485477e-08
7.6370377239e-07
-1.64653431603e-08
7.6729834696e-07
-4.51522582979e-08
7.69802360003e-07
-7.44642381167e-08
7.71152457473e-07
-1.03942120404e-07
7.71973962502e-07
-1.32596623869e-07
7.70584323088e-07
-1.61752549582e-07
7.67517137257e-07
-1.8979169764e-07
7.60502061355e-07
-2.18249415425e-07
7.49762380996e-07
-2.4448592071e-07
7.33376802122e-07
-2.68537315471e-07
7.12921886003e-07
-2.86796537396e-07
-2.99869459893e-07
6.88295105692e-07
8.75420662317e-07
1.09453753209e-07
8.87337001964e-07
1.30682849494e-07
8.97088907154e-07
8.13157357796e-08
9.05233401795e-07
6.23680089938e-08
9.12510446293e-07
3.3545859266e-08
9.18454204571e-07
6.59423637734e-09
9.23517635663e-07
-2.06118299335e-08
9.26973206508e-07
-4.86613883624e-08
9.29036384889e-07
-7.61846072257e-08
9.29946253303e-07
-1.04026666382e-07
9.29253250701e-07
-1.30796625824e-07
9.26512525969e-07
-1.57482446217e-07
9.20344988271e-07
-1.82866566621e-07
9.10754516438e-07
-2.07482199185e-07
8.9621254264e-07
-2.2957904933e-07
8.77525354016e-07
-2.48504554255e-07
8.54130369886e-07
-2.6278021175e-07
-2.71830365418e-07
8.28491685762e-07
1.05525311629e-06
9.39343072306e-08
1.07154701124e-06
1.1472838369e-07
1.0830667395e-06
6.96676996925e-08
1.0937412677e-06
5.25374373481e-08
1.10209022013e-06
2.4706660282e-08
1.10952570606e-06
2.39133259522e-10
1.11451447665e-06
-2.6192602029e-08
1.11826976652e-06
-5.14548544494e-08
1.11931201514e-06
-7.76776979664e-08
1.11957544989e-06
-1.02177213279e-07
1.11666474054e-06
-1.27371173662e-07
1.11195398074e-06
-1.50168373978e-07
1.10216739156e-06
-1.73343609442e-07
1.08957156075e-06
-1.9321678292e-07
1.07139258812e-06
-2.11896995608e-07
1.05010648951e-06
-2.25953852187e-07
1.02458816008e-06
-2.37192506386e-07
-2.43347106739e-07
9.96376595857e-07
1.27086224622e-06
9.09509292795e-08
1.29173559333e-06
9.41565503005e-08
1.30552073268e-06
5.65270639176e-08
1.31800051772e-06
3.98589233952e-08
1.32852067525e-06
1.51284824818e-08
1.33616189504e-06
-7.85026790121e-09
1.3422944056e-06
-3.11892068653e-08
1.34471195633e-06
-5.46636021834e-08
1.34610606775e-06
-7.7197804234e-08
1.34340990102e-06
-9.97716565424e-08
1.3400253551e-06
-1.20763295239e-07
1.3303949395e-06
-1.41558917852e-07
1.31937710944e-06
-1.59867192543e-07
1.30143297574e-06
-1.77036962919e-07
1.28216860372e-06
-1.90726961602e-07
1.25625814361e-06
-2.02208874394e-07
1.23055127463e-06
-2.09474561825e-07
-2.14408662125e-07
1.19921061409e-06
1.53356791999e-06
1.0318661483e-07
1.55607300394e-06
7.21383400868e-08
1.57150653101e-06
4.18307989221e-08
1.58620435232e-06
2.59389314251e-08
1.59763690693e-06
4.36700899126e-09
1.60630765518e-06
-1.5765673342e-08
1.61173952277e-06
-3.62117138368e-08
1.61410030469e-06
-5.63752611798e-08
1.61311157744e-06
-7.58349349193e-08
1.60948514147e-06
-9.476178991e-08
1.60166292266e-06
-1.12595030564e-07
1.59049294609e-06
-1.29297459192e-07
1.57444193816e-06
-1.44118566391e-07
1.55522475679e-06
-1.57127407038e-07
1.5312920318e-06
-1.67600485367e-07
1.50523694288e-06
-1.75671223853e-07
1.47535774403e-06
-1.80869949146e-07
-1.83707683006e-07
1.44561257496e-06
1.84770988134e-06
1.39844596407e-07
1.8743790251e-06
4.65967130786e-08
1.89063621177e-06
2.67205008369e-08
1.90722449747e-06
1.08860422348e-08
1.91922057075e-06
-6.63260280657e-09
1.92833527038e-06
-2.34146287916e-08
1.93288021578e-06
-4.02649392778e-08
1.93437450564e-06
-5.6590711747e-08
1.93093095259e-06
-7.23395715686e-08
1.92488855516e-06
-8.72936240788e-08
1.91330653581e-06
-1.01250891629e-07
1.89922669159e-06
-1.138465217e-07
1.87932827936e-06
-1.24858096468e-07
1.85759924064e-06
-1.34122152235e-07
1.83043739078e-06
-1.41443523942e-07
1.80286076309e-06
-1.46741288364e-07
1.77040989724e-06
-1.49987447369e-07
-1.51325918224e-07
1.73989778348e-06
2.23324732134e-06
2.04290927602e-07
2.26643697004e-06
1.47761714334e-08
2.28344626007e-06
1.19730379066e-08
2.30029285377e-06
-4.43318579115e-09
2.31171298838e-06
-1.62064071066e-08
2.31938609226e-06
-2.97011627e-08
2.32206324906e-06
-4.16546606736e-08
2.32092209668e-06
-5.40822722365e-08
2.31428447484e-06
-6.51703916379e-08
2.30461826216e-06
-7.62694469162e-08
2.28915152454e-06
-8.58258093192e-08
2.27149127094e-06
-9.4769913183e-08
2.24805673659e-06
-1.01938702179e-07
2.22348608365e-06
-1.08172273771e-07
2.19362809743e-06
-1.12609935609e-07
2.16433780742e-06
-1.15882853669e-07
2.1300970595e-06
-1.17526273234e-07
-1.18051599584e-07
2.09887623301e-06
1.65184282352e-06
2.33015888583e-07
1.6667430506e-06
2.20723401335e-09
1.67524456171e-06
2.39363530229e-09
1.68538728639e-06
-1.13219037054e-08
1.68923735875e-06
-2.11986510251e-08
1.69404661649e-06
-3.02774392165e-08
1.69151541967e-06
-4.08316670174e-08
1.69031011961e-06
-4.88830842746e-08
1.68148894061e-06
-5.85932973933e-08
1.67463938036e-06
-6.57716608442e-08
1.66043051886e-06
-7.39755027435e-08
1.64863713791e-06
-7.95217045685e-08
1.62982318841e-06
-8.55839446868e-08
1.61393289079e-06
-8.90806866309e-08
1.5917776624e-06
-9.27674754731e-08
1.57306658684e-06
-9.41144544489e-08
1.54871936126e-06
-9.55798918924e-08
-9.49926381478e-08
1.52861174986e-06
1.45036160876e-06
2.47830677898e-07
1.46006342769e-06
-7.58547616058e-09
1.46847238952e-06
-3.1576156822e-09
1.47320955087e-06
-1.654757173e-08
1.47702599194e-06
-2.25857409135e-08
1.47649401216e-06
-3.07697517412e-08
1.47566976365e-06
-3.69339327905e-08
1.46973576271e-06
-4.42891231245e-08
1.46390306291e-06
-5.03730169177e-08
1.45368778592e-06
-5.67887069213e-08
1.44387221309e-06
-6.20208429551e-08
1.42997438085e-06
-6.69826451083e-08
1.41703545163e-06
-7.06555154444e-08
1.40035877531e-06
-7.37616005185e-08
1.38504961507e-06
-7.55920416074e-08
1.36633872678e-06
-7.69423947467e-08
1.34972659404e-06
-7.70987791406e-08
-7.71158801099e-08
1.32987610704e-06
1.27058748167e-06
2.49876081136e-07
1.28138421171e-06
-1.74444575297e-08
1.28612714169e-06
-9.71990212703e-09
1.29039699403e-06
-1.94985902062e-08
1.29150581064e-06
-2.35001890722e-08
1.29134830018e-06
-2.82750731829e-08
1.28790626892e-06
-3.35268436638e-08
1.28287335717e-06
-3.83747080161e-08
1.27586471374e-06
-4.3064812186e-08
1.26708954012e-06
-4.78479389432e-08
1.25735080283e-06
-5.16278427708e-08
1.24587150588e-06
-5.55332779944e-08
1.23417518637e-06
-5.78719809356e-08
1.22068930217e-06
-6.04312821512e-08
1.20715319427e-06
-6.12702522881e-08
1.19234959832e-06
-6.23252675403e-08
1.17739799592e-06
-6.20800212864e-08
-6.19027295695e-08
1.16261536992e-06
1.11760420725e-06
2.44100778859e-07
1.12489507331e-06
-2.41253958157e-08
1.12887955636e-06
-1.06089108454e-08
1.13146846645e-06
-2.22994877978e-08
1.13204151226e-06
-2.27261161498e-08
1.13027097255e-06
-2.63582787462e-08
1.12676011547e-06
-2.91156703374e-08
1.12155414901e-06
-3.24485398973e-08
1.11448648108e-06
-3.60503793966e-08
1.10701149154e-06
-3.91144474512e-08
1.09749428791e-06
-4.25549768505e-08
1.08852506997e-06
-4.47655644303e-08
1.07724086439e-06
-4.73749227364e-08
1.06721628428e-06
-4.8281363614e-08
1.05445123777e-06
-4.96450418067e-08
1.04316169552e-06
-4.96043960333e-08
1.02966273664e-06
-4.97772857449e-08
-4.89418329003e-08
1.01803209432e-06
9.78974253604e-07
2.28350011202e-07
9.88372386554e-07
-3.37110029338e-08
9.89705608607e-07
-1.44626969676e-08
9.93216305845e-07
-2.40986018359e-08
9.92581012255e-07
-2.10485900755e-08
9.90681032576e-07
-2.25501663798e-08
9.86745125058e-07
-2.44843896091e-08
9.81520561649e-07
-2.67735099977e-08
9.75289186391e-07
-2.91221210931e-08
9.67912151166e-07
-3.17932366498e-08
9.60147137351e-07
-3.40192187045e-08
9.51524390482e-07
-3.59321822121e-08
9.42990071805e-07
-3.7199140714e-08
9.33321121502e-07
-3.85468541817e-08
9.23490950079e-07
-3.91664953646e-08
9.13196096702e-07
-3.92349179143e-08
9.02559430832e-07
-3.92464291623e-08
-3.85277363129e-08
8.9254250676e-07
8.63647342599e-07
2.0781005059e-07
8.67131247313e-07
-3.58246688444e-08
8.68904503286e-07
-1.33542538088e-08
8.72310401944e-07
-2.63910707711e-08
8.70695571466e-07
-1.82244092855e-08
8.67944416401e-07
-1.92900509397e-08
8.64043416819e-07
-1.95163645937e-08
8.59085696369e-07
-2.10609315331e-08
8.53133790041e-07
-2.28394728511e-08
8.46737482161e-07
-2.46889488126e-08
8.39875876338e-07
-2.65309402189e-08
8.32613452317e-07
-2.76446784237e-08
8.24857960431e-07
-2.88801685863e-08
8.16840139849e-07
-2.98139468246e-08
8.08518582371e-07
-3.03427531334e-08
7.99559413267e-07
-3.04428287422e-08
7.91190715052e-07
-2.95932312911e-08
-2.65511401151e-08
7.78963871329e-07
6.85904301844e-07
2.53639630766e-07
7.63805543917e-07
-1.12998832664e-07
7.62586496185e-07
-1.20139134746e-08
7.67677090047e-07
-3.01449768606e-08
7.65369202732e-07
-1.35159486474e-08
7.6293968697e-07
-1.52795139163e-08
7.59367499621e-07
-1.50582870609e-08
7.55021057916e-07
-1.61085389918e-08
7.49930814267e-07
-1.72055769069e-08
7.44492836567e-07
-1.8723621841e-08
7.38854105724e-07
-2.02906198626e-08
7.32486687157e-07
-2.04569961864e-08
7.26022816537e-07
-2.14237946792e-08
7.19361466065e-07
-2.25014292388e-08
7.12589550995e-07
-2.31580819664e-08
7.05784059158e-07
-2.32042271621e-08
6.99274858323e-07
-2.25314095445e-08
-3.00236240632e-08
7.03925436797e-07
8.47553815385e-07
4.47820139039e-08
6.56868564598e-07
7.95814655459e-08
6.74501603049e-07
-2.81570498207e-08
6.76784900168e-07
-2.61108807105e-08
6.70875392717e-07
-9.35843217927e-09
6.66635426346e-07
-1.00471460828e-08
6.61628387524e-07
-9.07744576664e-09
6.56080671721e-07
-9.88282023966e-09
6.49933777861e-07
-1.05151687442e-08
6.43512287541e-07
-1.18866081701e-08
6.37665667745e-07
-1.25373193928e-08
6.30752442002e-07
-1.3543151891e-08
6.23962599086e-07
-1.40444276306e-08
6.17186878475e-07
-1.50818802011e-08
6.10646400023e-07
-1.62160399094e-08
6.04855021584e-07
-1.70885192953e-08
6.00320611122e-07
-1.74945433567e-08
1.01558030986e-08
5.62100200414e-07
-1.79469382115e-07
7.80333747181e-07
6.04428783012e-07
-7.02766864372e-07
5.99104388298e-07
-1.95604208255e-08
5.92114433756e-07
-1.43107591454e-08
5.90486008319e-07
-7.17096711484e-09
5.89100927672e-07
-8.04494763602e-09
5.88326167696e-07
-7.2968659433e-09
5.87384167193e-07
-8.25253571328e-09
5.86384038341e-07
-9.12413853429e-09
5.86029457942e-07
-1.01389508999e-08
5.85586468367e-07
-1.0994346572e-08
5.84431182804e-07
-1.18396344044e-08
5.8318346029e-07
-1.24312355444e-08
5.81926302162e-07
-1.32272964694e-08
5.8016566537e-07
-1.40770931904e-08
5.77271918448e-07
-1.41163641675e-08
5.69109676054e-07
-7.86026411407e-09
-3.51884411246e-08
6.15293530836e-07
1.44753383552e-06
-1.82884713012e-07
5.22203784486e-07
2.24469595132e-07
5.50943188081e-07
-4.46525423596e-08
5.59426035041e-07
-1.71654045067e-08
5.47515686453e-07
5.64418689827e-09
5.40511300335e-07
-2.91476565187e-10
5.31636183081e-07
2.64105390926e-09
5.22303977934e-07
1.81355453677e-09
5.12060039494e-07
1.83445302235e-09
5.02278922887e-07
1.04941132714e-09
4.93044936584e-07
-2.61443778756e-10
4.83444568555e-07
-1.66446401623e-09
4.73681424261e-07
-2.20044590707e-09
4.64401745001e-07
-3.34550916213e-09
4.56275637362e-07
-5.63509101455e-09
4.52728401414e-07
-1.00264852896e-08
4.6781004194e-07
-2.20432151009e-08
-7.92338735172e-09
4.42167102274e-07
2.37518679627e-07
4.62257175631e-07
4.18152947929e-07
4.01077705587e-07
4.06793090401e-07
4.06624540453e-07
4.09359630181e-07
4.11253242524e-07
4.13276509553e-07
4.14578766137e-07
4.14421149475e-07
4.12828174875e-07
4.10746267219e-07
4.07480637038e-07
4.01917050866e-07
3.92099958384e-07
3.70450220359e-07
3.62530154772e-07
8.25866154692e-08
-9.91626319594e-08
6.74731059009e-08
-4.18698097436e-10
7.71946796706e-09
5.16900514922e-08
-4.4460770162e-08
4.64247100757e-08
-7.78851882067e-08
2.99096190605e-08
-9.51917488147e-08
1.3996513124e-08
-9.88674426392e-08
1.53933409492e-09
-9.37904566938e-08
-7.37365718837e-09
-8.20243553584e-08
-1.33476706823e-08
-6.65695608349e-08
-1.7135738442e-08
-4.83685285598e-08
-1.9383994052e-08
-2.90242923277e-08
-2.05778275222e-08
-8.86402536696e-09
-2.10656712107e-08
1.13359985097e-08
-2.108844075e-08
3.14353953815e-08
-2.08227824357e-08
5.11623995542e-08
-2.03720717959e-08
7.03506746066e-08
-1.98286690928e-08
8.90889500696e-08
-1.92219218489e-08
1.07123840753e-07
-1.8611513779e-08
1.24723766207e-07
-1.79858989301e-08
1.41513611362e-07
-1.73813513752e-08
1.57954009615e-07
-1.67687187591e-08
1.73528768467e-07
-1.61901174304e-08
1.88800600301e-07
-1.55901395656e-08
2.03161618876e-07
-1.50155749672e-08
2.1722784932e-07
-1.44165953605e-08
2.30339508579e-07
-1.38450991696e-08
2.43199417211e-07
-1.32434579331e-08
2.55138258081e-07
-1.26749992713e-08
2.66819141235e-07
-1.2084335219e-08
2.7761043223e-07
-1.15359146691e-08
2.88172025623e-07
-1.09700743456e-08
2.9794825267e-07
-1.04540580996e-08
3.07467583378e-07
-9.92987264837e-09
3.16293305834e-07
-9.45502269915e-09
3.24875984837e-07
-8.98227028551e-09
3.32882228938e-07
-8.55937218119e-09
3.40661662687e-07
-8.13828798719e-09
3.47975526877e-07
-7.76358886029e-09
3.55065833296e-07
-7.39680212927e-09
3.61788054829e-07
-7.07017759517e-09
3.68284660462e-07
-6.75546792341e-09
3.74493918869e-07
-6.47609373275e-09
3.80476064215e-07
-6.21284488498e-09
3.86243567992e-07
-5.9791605318e-09
3.91792710246e-07
-5.76561653315e-09
3.97182771021e-07
-5.57578945709e-09
4.02391210178e-07
-5.40603295496e-09
4.07482456382e-07
-5.26002420097e-09
4.12433629535e-07
-5.13867465606e-09
4.17335593959e-07
-5.05620036426e-09
4.22176434344e-07
-5.02457180494e-09
4.27052907116e-07
-5.03713683742e-09
4.31952174301e-07
-5.08356502591e-09
4.36938532547e-07
-5.13975882837e-09
4.41921876228e-07
-5.18033969864e-09
4.4693444295e-07
-5.16324112835e-09
4.51796084735e-07
-5.06976153888e-09
4.5648386774e-07
-4.81257700963e-09
4.60518670824e-07
-4.25490133081e-09
4.64613497581e-07
-4.20483316576e-09
4.68777025941e-07
-4.36432278763e-09
4.73162313965e-07
-4.46628800915e-09
4.7753492335e-07
-4.54955429102e-09
4.82076921538e-07
-4.57890329669e-09
4.86508980422e-07
-4.60734060509e-09
4.910601729e-07
-4.59163383449e-09
4.95495363047e-07
-4.59947738955e-09
5.00059518353e-07
-4.5889764451e-09
5.04559344372e-07
-4.61531264178e-09
5.09219130943e-07
-4.63978105618e-09
5.1384145413e-07
-4.6962798538e-09
5.18694801837e-07
-4.72784077981e-09
5.23487793853e-07
-4.80654716824e-09
5.28464103032e-07
-4.84157502895e-09
5.3335799735e-07
-4.88059105503e-09
5.38391651304e-07
-4.87281551548e-09
5.43250057833e-07
-4.85088665385e-09
5.4822083583e-07
-4.72923652031e-09
5.52825163161e-07
-4.6039850304e-09
5.57432815937e-07
-4.36565610445e-09
5.61506874724e-07
-4.10796570675e-09
5.65496708749e-07
-3.66923558578e-09
5.68620997953e-07
-3.2217814045e-09
5.71527353553e-07
-2.57873262266e-09
5.73451887694e-07
-1.96793799663e-09
5.75003739526e-07
-1.04961229973e-09
5.7610437418e-07
-1.0549507019e-10
5.77274415092e-07
1.08195842125e-10
5.81459836442e-07
1.26866001728e-09
5.8523000044e-07
1.94325781842e-09
5.88944039205e-07
3.56914115571e-09
5.91575657849e-07
4.38870871407e-09
5.93055615689e-07
6.68149312945e-09
5.88321176585e-07
1.23492536434e-08
5.86973053255e-07
9.89762855699e-09
6.02379319155e-07
-8.05926090087e-09
6.38590306304e-07
-2.8120027037e-08
6.79507103874e-07
-3.39577753546e-08
6.99023876739e-07
-1.147818949e-08
6.62302149123e-07
4.44710900211e-08
6.34891989814e-07
3.56954779029e-08
8.17857326598e-07
-1.76466310143e-07
1.13673118361e-06
-3.13648919845e-07
1.39504636103e-06
-2.53480970971e-07
1.23019131503e-06
1.69317829882e-07
1.04091814326e-06
1.92537270858e-07
9.85340441957e-07
5.75307762955e-08
9.12962474286e-07
7.36656535084e-08
8.41232824794e-07
7.26071183434e-08
7.80347341138e-07
6.14547014932e-08
7.31596243079e-07
4.91353662413e-08
6.92786612348e-07
3.90220689524e-08
6.61659202247e-07
3.12678403269e-08
6.36366160652e-07
2.53355047138e-08
6.15568158669e-07
2.08282966269e-08
5.98222818935e-07
1.73122059707e-08
5.8365680549e-07
1.45962143213e-08
5.71228124282e-07
1.24463485677e-08
5.60548743829e-07
1.07688636289e-08
5.51209768374e-07
9.40906918783e-09
5.42988906726e-07
8.32867024276e-09
5.3563038905e-07
7.41987393313e-09
5.28999686125e-07
6.69408180928e-09
5.22921095222e-07
6.06610018215e-09
5.17338707227e-07
5.5713399748e-09
5.12118384442e-07
5.13903666571e-09
5.07237578929e-07
4.81656112987e-09
5.02575090463e-07
4.53504349241e-09
4.98131721041e-07
4.34424343446e-09
4.93797196403e-07
4.17156223094e-09
4.89597139868e-07
4.07287731646e-09
4.85426185259e-07
3.97124749948e-09
4.81328811817e-07
3.93252990602e-09
4.77200214867e-07
3.87553572724e-09
4.7310156073e-07
3.87666048586e-09
4.68912450861e-07
3.85969259836e-09
4.64646022575e-07
3.88974638486e-09
4.60172662446e-07
3.88393134892e-09
4.55588569043e-07
3.8825930832e-09
4.5091805787e-07
3.86559420569e-09
4.46257845992e-07
3.86374023396e-09
4.41568978691e-07
3.89496513217e-09
4.3683701609e-07
3.98327196228e-09
4.31950713026e-07
4.12084719915e-09
4.26886519233e-07
4.35250680038e-09
4.21479018982e-07
4.66804848973e-09
4.15667032507e-07
5.13147713319e-09
4.09204185674e-07
5.73013667121e-09
4.01979327261e-07
6.53763498031e-09
3.93680341684e-07
7.52677108999e-09
3.84173755392e-07
8.75991011926e-09
3.7313214163e-07
1.01838471117e-08
3.60453128467e-07
1.18286378347e-08
3.4586264768e-07
1.36157035413e-08
3.29352819106e-07
1.55245967925e-08
3.10796839596e-07
1.74444210328e-08
2.90347293529e-07
1.9304058866e-08
2.68096155539e-07
2.09854555645e-08
2.44372884411e-07
2.23903845242e-08
2.19484707901e-07
2.34482653268e-08
1.93925952554e-07
2.40092454628e-08
1.68248336502e-07
2.40431784536e-08
1.43026684487e-07
2.34302730397e-08
1.18916536717e-07
2.22673714871e-08
9.63618916617e-08
2.05077059614e-08
7.59981394054e-08
1.83122539686e-08
5.82349110646e-08
1.54659935666e-08
4.37572564079e-08
1.22374565801e-08
3.25674729825e-08
8.67413295697e-09
2.4908105998e-08
5.27742886497e-09
1.9966059904e-08
2.2762395926e-09
1.76037563707e-08
-8.57176177698e-11
1.78930729248e-08
-3.00888639443e-09
2.13849608933e-08
-5.90931135632e-09
2.54587316278e-08
-6.71086896066e-09
2.80157184073e-08
-4.80002434325e-09
2.42480050291e-08
1.3675445898e-09
5.14263299506e-09
1.70035667606e-08
4.04174122232e-08
-3.7475973714e-08
-2.06236482557e-08
-8.49586412304e-08
-7.27847017943e-08
4.74953616662e-08
-9.33451511968e-08
6.95146659971e-08
-9.95781154172e-08
5.00985225678e-08
-9.46279901335e-08
2.30766370943e-08
-8.25741009058e-08
3.7535079245e-11
-6.57928829791e-08
-1.67420368107e-08
-4.66500447909e-08
-2.80436371799e-08
-2.59409323554e-08
-3.52501263284e-08
-4.77611423937e-09
-3.95399019439e-08
1.66617976402e-08
-4.18010270233e-08
3.77966180304e-08
-4.26730814967e-08
5.85721786386e-08
-4.26204250073e-08
7.87092081278e-08
-4.19523149478e-08
9.81579968319e-08
-4.09017091519e-08
1.16843559865e-07
-3.96147475427e-08
1.34679619905e-07
-3.8209540648e-08
1.51750189534e-07
-3.6747649962e-08
1.67923746784e-07
-3.52869627429e-08
1.83412702547e-07
-3.38509801136e-08
1.98003819434e-07
-3.24731576318e-08
2.11997328002e-07
-3.11399031341e-08
2.25160676239e-07
-2.98711780257e-08
2.37847987506e-07
-2.86566268188e-08
2.49758303653e-07
-2.75034853885e-08
2.6129820436e-07
-2.6391799141e-08
2.72164465559e-07
-2.53356881099e-08
2.82778544447e-07
-2.43142665729e-08
2.92809491485e-07
-2.33425783924e-08
3.02649212629e-07
-2.24028720395e-08
3.12003400546e-07
-2.1510213286e-08
3.21209409704e-07
-2.06444479524e-08
3.30004273258e-07
-1.98225027219e-08
3.38659245152e-07
-1.9031670314e-08
3.46958628007e-07
-1.82848355398e-08
3.55116608461e-07
-1.75601359002e-08
3.62973022835e-07
-1.68777621715e-08
3.70677518235e-07
-1.62206268963e-08
3.78125120754e-07
-1.5597636296e-08
3.85404535122e-07
-1.4996647815e-08
3.92452993324e-07
-1.44276007946e-08
3.99307063216e-07
-1.38796381584e-08
4.05942541463e-07
-1.33591591709e-08
4.12353378093e-07
-1.28586951172e-08
4.18547055455e-07
-1.23815816518e-08
4.24493337788e-07
-1.1922710631e-08
4.30213951415e-07
-1.14832963837e-08
4.35668896569e-07
-1.10607814066e-08
4.40891993218e-07
-1.06528746918e-08
4.45834170111e-07
-1.02596145513e-08
4.50493571143e-07
-9.88450670653e-09
4.54827941241e-07
-9.53645021679e-09
4.58845855911e-07
-9.21972783173e-09
4.62515846217e-07
-8.93242986248e-09
4.65864168784e-07
-8.65715497524e-09
4.68860543449e-07
-8.36612270461e-09
4.71524504119e-07
-7.99726742647e-09
4.73701069801e-07
-7.4361994258e-09
4.75327961099e-07
-6.60461352247e-09
4.7641661532e-07
-5.52883567302e-09
4.76280725921e-07
-4.23043519638e-09
4.75470575645e-07
-3.73103084756e-09
4.74521093731e-07
-3.6378338556e-09
4.73565405202e-07
-3.74732963026e-09
4.72810867988e-07
-3.94099321643e-09
4.72251245676e-07
-4.18115856539e-09
4.7198764984e-07
-4.43472715605e-09
4.71964717122e-07
-4.70197474832e-09
4.72258826573e-07
-4.96734557764e-09
4.72794381238e-07
-5.24591511806e-09
4.73648714891e-07
-5.51405627576e-09
4.74724693321e-07
-5.79580412665e-09
4.76070565105e-07
-6.06964802578e-09
4.77621046399e-07
-6.31981068043e-09
4.79395558692e-07
-6.53960170144e-09
4.81256145706e-07
-6.72811689125e-09
4.83288258908e-07
-6.82471314444e-09
4.85349913127e-07
-6.84276830034e-09
4.87477205164e-07
-6.73566022864e-09
4.89451820313e-07
-6.51024121421e-09
4.91328008343e-07
-6.10877748048e-09
4.92847268322e-07
-5.54615603951e-09
4.94072004805e-07
-4.73808281491e-09
4.94614163726e-07
-3.70641064064e-09
4.94513462909e-07
-2.39390803773e-09
4.93475677616e-07