/*--------------------------------*- C++ -*----------------------------------*\
| =========                 |                                                 |
| \\      /  F ield         | OpenFOAM: The Open Source CFD Toolbox           |
|  \\    /   O peration     | Version:  v1806                                 |
|   \\  /    A nd           | Web:      www.OpenFOAM.com                      |
|    \\/     M anipulation  |                                                 |
\*---------------------------------------------------------------------------*/
FoamFile
{
    version     2.0;
    format      ascii;
    class       volScalarField;
    location    "5";
    object      rho;
}
// * * * * * * * * * * * * * * * * * * * * * * * * * * * * * * * * * * * * * //

dimensions      [0 0 0 0 0 0 0];


internalField   nonuniform List<scalar> 
12225
(
0.598918960309
0.615390060967
0.611476097781
0.608068763712
0.596424797914
0.591186644461
0.584394796794
0.579409499764
0.576534763634
0.576923751166
0.581789958245
0.589751078833
0.595623905954
0.605175134112
0.623942969894
0.645183507134
0.670176010186
0.6968848542
0.673701519158
0.666968030527
0.632369149433
0.638090250129
0.62905862085
0.626282657497
0.621964639922
0.618730169226
0.616279006906
0.615106928598
0.616332279822
0.619827302867
0.622857251551
0.627779391072
0.638172547241
0.65058023297
0.664399447637
0.668971638458
0.624275915099
0.64948866206
0.632309009891
0.634531093957
0.625135469723
0.621715595471
0.616961691024
0.613481259862
0.610829655783
0.609389984279
0.609700841469
0.611811468862
0.614942562908
0.620106121948
0.628729562538
0.638343258465
0.646723245792
0.64360562484
0.623285950107
0.656626571961
0.632751981432
0.638315845776
0.629801548737
0.627825372604
0.624341623276
0.621956952219
0.620135176624
0.619209528255
0.619433211383
0.620883203089
0.623438651131
0.627576648911
0.633632976822
0.639697672419
0.643066515327
0.636921811336
0.617229865694
0.657448308254
0.633579240201
0.640499910816
0.632754900892
0.631807631096
0.629289554376
0.627890504984
0.627036126769
0.626966716823
0.627761096143
0.629416313616
0.631952214173
0.635497830319
0.639783777357
0.643180787201
0.643275508817
0.636392396559
0.614537680754
0.65918465556
0.634927032647
0.643109230704
0.635984468179
0.635853306636
0.634038057205
0.63332080704
0.633103882505
0.63356184633
0.634694344325
0.636439835474
0.638795073735
0.64167236264
0.644525947932
0.64595450592
0.644152667657
0.637411903316
0.613083294347
0.660352115936
0.636253123707
0.645418283154
0.638861792108
0.639400190276
0.638133156936
0.637918624601
0.638130321558
0.638899552938
0.640183290906
0.641884623351
0.643925065459
0.646096463771
0.647773379311
0.647815144264
0.644993280111
0.638622537421
0.612440220383
0.661106730952
0.637437617445
0.647352103188
0.641313124866
0.642395521091
0.641556535881
0.641707177677
0.64217538236
0.643080288133
0.644366700967
0.64591128091
0.647567371982
0.649067409039
0.649797534364
0.648886245677
0.645536620651
0.639619515527
0.612222457646
0.66145587496
0.638389450734
0.648853817982
0.643287870811
0.644824832239
0.644328608135
0.644730938525
0.645324526401
0.646242599161
0.647430183669
0.648735320253
0.649967064871
0.650838657847
0.650816740945
0.649238509254
0.64564764255
0.640141858841
0.612097095714
0.661411006023
0.638957603307
0.649804335588
0.644639616647
0.646541982889
0.646293141498
0.646844846456
0.647484227667
0.648358739517
0.649390527989
0.65039907871
0.6511768527
0.65146491243
0.650833206028
0.648801173508
0.645134278263
0.640066728044
0.611294444125
0.661183393127
0.638857994634
0.650038045468
0.645091733279
0.647190989925
0.647023462133
0.64761497307
0.648234451619
0.649006633
0.649828263574
0.650531973693
0.650929092734
0.650806877151
0.649824894378
0.647646931123
0.644186325925
0.63968127008
0.607287803329
0.66082794953
0.637260358839
0.648945076429
0.643931470644
0.646101999041
0.645951923099
0.64655111323
0.647098784535
0.647753589899
0.648482658916
0.649108391223
0.649438924729
0.649264361349
0.648318467956
0.64635743602
0.643336254293
0.639489856217
0.604311439364
0.660009990325
0.635829490506
0.64785061711
0.643023877569
0.645344351296
0.64529398097
0.64597678085
0.646638536469
0.647418213688
0.648229010963
0.648897180064
0.649197260533
0.64898403397
0.648023360146
0.646165222977
0.643434247538
0.64003188735
0.600750016932
0.659092166277
0.634316170536
0.646785580621
0.642205204998
0.644865503179
0.645132853194
0.646049871728
0.646851267506
0.647680700754
0.648453670446
0.648982808074
0.649073024505
0.648626771862
0.647527386173
0.645674795578
0.643185270951
0.640151634712
0.596103309569
0.658081773693
0.632404379826
0.645491221332
0.641180636039
0.644249101068
0.644883869257
0.646080879496
0.647046185007
0.64789054814
0.648566498059
0.648875936496
0.648678438304
0.647982775137
0.646733525013
0.644908530813
0.642629748244
0.639988746211
0.591261695933
0.657054587477
0.630239645884
0.643931722116
0.63979137007
0.643213930518
0.644132787508
0.645546572533
0.646606700985
0.647454599042
0.648001382956
0.648131257959
0.64770995511
0.646859834858
0.645548129769
0.643815630356
0.641763214521
0.639445723897
0.586883483586
0.656192555967
0.628078766347
0.642261636383
0.638143604464
0.641782153209
0.642840925392
0.644345497524
0.645423201189
0.646205598708
0.646660209605
0.646653995881
0.64612223455
0.645206203636
0.643933961831
0.642320368817
0.640502413251
0.638440850698
0.582897819203
0.655588552532
0.626083326901
0.640655940452
0.636416329141
0.640129754948
0.641183923509
0.642683041565
0.643714911187
0.644425157835
0.644796817861
0.644710065294
0.644128801277
0.643220544536
0.642020517359
0.640538127622
0.638909505458
0.637070049743
0.58086085243
0.655659188008
0.625136468275
0.639866807138
0.635378352284
0.638966615811
0.639827415741
0.641153599426
0.642005300834
0.642543214674
0.642763000096
0.642563159861
0.641917583556
0.641005911885
0.639855331193
0.638464473762
0.636962838409
0.635281164289
0.585756959412
0.656559593467
0.626670754054
0.64070126065
0.635714698072
0.638678524743
0.638922086834
0.639623959317
0.63991041822
0.639945160764
0.639751250281
0.639242597866
0.638387724865
0.637351586406
0.636156462905
0.634792799933
0.633376056583
0.631849278
0.589490964708
0.657706304617
0.628395655708
0.641919162437
0.636546200269
0.639010716129
0.638763593948
0.639010276784
0.638860244081
0.638534007725
0.638046505456
0.637334463913
0.636332152159
0.635228102685
0.634007181411
0.632678587969
0.631317771415
0.629894342483
0.592458772571
0.658847621138
0.630018468116
0.643102877695
0.637410682276
0.639434803508
0.638785363851
0.63863557544
0.638140643498
0.637522439401
0.63679324577
0.635913246614
0.634803429725
0.633630734636
0.632391825277
0.631072990198
0.629756167813
0.628378176685
0.595562809549
0.660089060427
0.63161084331
0.644287690094
0.638281586674
0.63987828527
0.638840967852
0.638323539313
0.63751003071
0.636608043288
0.63567551537
0.634627292879
0.633403073617
0.632147301932
0.630881420453
0.62954533946
0.628245493573
0.626911621368
0.598770830843
0.661365944876
0.633233515936
0.645426129524
0.639088480983
0.640275649375
0.638869711422
0.638003082016
0.636893242894
0.635753512261
0.634613407441
0.633416358443
0.632081286044
0.63075716747
0.629421913119
0.628052546354
0.626720326429
0.625401830464
0.602227539162
0.662628564397
0.634880568613
0.646508504287
0.639907394758
0.640678318669
0.638927971482
0.637757627534
0.636379627175
0.635004103891
0.633672444656
0.632340547563
0.630895681563
0.629483150653
0.628090776141
0.626658787511
0.625265483031
0.62391528327
0.606174350758
0.663548949901
0.636942663273
0.647768345465
0.640974709255
0.641384048931
0.639368408444
0.637931237453
0.636320821095
0.634731816992
0.633219955912
0.63175636802
0.630230589847
0.628738594565
0.627271076768
0.625781596037
0.624320197748
0.622999907156
0.615716036727
0.666156830451
0.639381883293
0.649435388122
0.642500121688
0.642523623916
0.640236076341
0.638543779156
0.636684330566
0.634833689558
0.633045639337
0.631406859378
0.629737060626
0.628077336599
0.626471624742
0.624825614781
0.623187651872
0.621399396548
0.612152005604
0.661231066937
0.646273851896
0.653062477517
0.646490336978
0.646143737406
0.643779714137
0.642062290364
0.640250349457
0.638464559585
0.636851613649
0.635393469417
0.633892479451
0.632438502836
0.631048172074
0.629589467028
0.628109563834
0.62733896153
0.695919132083
0.687121245994
0.649906545796
0.660053367486
0.653312348244
0.652689322606
0.649988607087
0.647597284123
0.644825226102
0.641784740504
0.638594800233
0.635641166438
0.632659579069
0.629530657649
0.626357363019
0.623154921413
0.619924874344
0.616534794958
0.636347996595
0.641274151871
0.645396625193
0.646844031219
0.639603750968
0.639155146427
0.636999226455
0.635482571453
0.633988128786
0.632788693436
0.631998339765
0.631300430917
0.630555672292
0.630169545486
0.630096379256
0.630033116854
0.630018649898
0.629389860326
0.50015498995
0.499806487148
0.499593621841
0.4996118282
0.499808951948
0.50012893027
0.500506564487
0.500907439874
0.501308454166
0.501694236239
0.502054957139
0.502385074943
0.502681882818
0.502944829873
0.503174680133
0.503373425498
0.503543420305
0.50368795539
0.503810006562
0.503912576928
0.503998863997
0.504071208201
0.504132974282
0.504184988039
0.504229368047
0.504265785947
0.504295920923
0.504319425291
0.504336997539
0.50434759624
0.504351315887
0.504347311865
0.50433583652
0.504315650151
0.504286703944
0.504248757889
0.504202604392
0.504147152719
0.504083381223
0.50401100745
0.503931127322
0.503844069077
0.503751130034
0.503653387889
0.503552413831
0.503450018189
0.503348109921
0.503248919906
0.50315488535
0.503068071668
0.502990664825
0.502923327924
0.50286832115
0.502828476095
0.502807776507
0.502809996554
0.502839089325
0.502898781258
0.502992744787
0.503123039711
0.503289282026
0.503490431886
0.503727248102
0.504000522959
0.504310807142
0.504656777916
0.505036982372
0.505449207729
0.505890020416
0.506356264697
0.506843576148
0.507347961007
0.507864936505
0.508390609167
0.50892074004
0.509451886724
0.50998064151
0.510503250528
0.511016866484
0.511519636831
0.512010179314
0.512486253388
0.512946848618
0.513390082091
0.513817564148
0.514228089048
0.514623042484
0.515009130368
0.515382635343
0.51575149491
0.516118903481
0.516482716106
0.516842307091
0.51717248159
0.517458319673
0.517731124273
0.51802413312
0.518342136145
0.518689996319
0.519049905122
0.519493920205
0.520003065821
0.519829253058
0.51963934682
0.519635523955
0.519820030433
0.520135942323
0.52022603297
0.520405893267
0.5205884222
0.520749345286
0.520891681318
0.521020045591
0.521138141602
0.52124880763
0.521353953347
0.521455701739
0.521556471778
0.521656501734
0.521754272338
0.521846085808
0.521930374673
0.522008101341
0.522080038602
0.52214875344
0.522215233591
0.522279985907
0.522343189443
0.522405015722
0.52246559908
0.522525201091
0.522583993791
0.522642139406
0.522699523641
0.522756098847
0.52281167557
0.52286617724
0.52291989235
0.522972326887
0.523023334921
0.523071222408
0.523117462353
0.52316146071
0.5232020712
0.523238070764
0.523268229087
0.523292107276
0.523309552457
0.523320475748
0.523324786753
0.523321882409
0.52331063175
0.523289544657
0.52325690522
0.523210452783
0.523147596134
0.523065212239
0.522959778158
0.522826806492
0.522661316059
0.522456326602
0.522204540237
0.521896226153
0.521518829329
0.521055748132
0.520489185523
0.519797461856
0.518962501185
0.517970347821
0.516798123141
0.51543238783
0.513876157865
0.512148896837
0.510295849116
0.508378801452
0.506362967365
0.504317955492
0.502337018992
0.500540336236
0.499265729857
0.500087167931
0.49982767936
0.499872207333
0.500116696063
0.500444423474
0.500799140451
0.501158471874
0.501510542862
0.501849901765
0.502173377556
0.502479358207
0.50276597446
0.503032848977
0.503279307084
0.50350574267
0.503712492678
0.503900654725
0.504071458098
0.504226824686
0.504367852314
0.504496726433
0.504614561068
0.50472352846
0.504823782189
0.504916754435
0.50500163378
0.505079524767
0.505149779572
0.505212519927
0.505266632491
0.505312321548
0.505348787695
0.505375770512
0.505392294701
0.505398944034
0.505395108613
0.50538129961
0.505357323632
0.505323819921
0.50528069452
0.505228942299
0.505169171424
0.505102643826
0.505030683381
0.504955023145
0.504877696802
0.504801215138
0.504728162169
0.504662011661
0.504606477389
0.504567399663
0.504548110892
0.50455030292
0.504575647181
0.504626501858
0.504704925368
0.50481273219
0.504953142223
0.50512900398
0.505339687745
0.505584086065
0.505860531896
0.506166261845
0.506499018852
0.50685749333
0.507240785484
0.507647828647
0.508077582802
0.508528660394
0.508999617691
0.509488383004
0.509992895307
0.510510264985
0.511037795876
0.511572654769
0.512111730845
0.512651898535
0.513190139921
0.51372338252
0.514249773005
0.51476826013
0.515276909837
0.515773425589
0.516257313445
0.51673131193
0.517191727331
0.517633827525
0.518067670029
0.518515997359
0.518965710411
0.519391998579
0.519828522008
0.52031378701
0.520826361527
0.521289065836
0.521686409848
0.522120770986
0.522418421402
0.522727542642
0.523081753994
0.523459755775
0.524031008303
0.524276270267
0.524521891976
0.524730866609
0.524929712817
0.525021509601
0.525041524406
0.52509147766
0.52517021767
0.525280061059
0.525404993624
0.525539100811
0.525679223039
0.525823945465
0.525972582552
0.526125714863
0.526284380018
0.526448547363
0.526615014808
0.526779599458
0.526940101614
0.527095957071
0.52724833696
0.527398656761
0.527547465343
0.527695075
0.527841550332
0.527986953187
0.528131294376
0.528274650172
0.528417070716
0.528558585156
0.5286991654
0.528838939285
0.528978095693
0.529117159367
0.529256838272
0.529397663944
0.529539080688
0.529680551759
0.529822918979
0.529966093449
0.530109296038
0.530251136854
0.53039064123
0.530527764015
0.530663088831
0.530797498643
0.530931960836
0.531067702449
0.531206330965
0.531349737753
0.531499848227
0.531658426621
0.531827123532
0.532007091571
0.532199081734
0.532402819894
0.532617953781
0.532842340768
0.533072587385
0.533304365194
0.533533235871
0.533753815151
0.533960214389
0.534153434459
0.534320916997
0.534457471521
0.534558944096
0.534620014861
0.534632853537
0.534588298687
0.534499021079
0.53428901742
0.534060772482
0.53381328895
0.533566474174
0.533351445133
0.53308452924
0.500305242067
0.500181104207
0.500218012639
0.500359833202
0.500543653105
0.500734730424
0.500931440726
0.501134081721
0.50134348912
0.501558076777
0.501775843433
0.50199395877
0.502209722506
0.502420510043
0.50262434515
0.502819650937
0.503005632188
0.503181793218
0.503348438144
0.503506003552
0.50365540914
0.503796815727
0.503931965078
0.50406070848
0.504183781169
0.504300798849
0.504412346793
0.504517541144
0.504616409152
0.504707942597
0.504791953699
0.50486728112
0.504933873499
0.504990805817
0.505037908543
0.505074675092
0.50510150475
0.505117658852
0.505123534024
0.505119035239
0.505104645684
0.505080744698
0.505048165446
0.505007857887
0.504961128309
0.504909470649
0.504854873693
0.504799514999
0.504746009704
0.504697169701
0.504657518483
0.504631576134
0.504624467648
0.504639345025
0.504678649875
0.504744405302
0.504838124131
0.504959336588
0.505107374264
0.50528480888
0.505495201479
0.50574088031
0.506023136497
0.506342105722
0.50669737077
0.507087677994
0.507511406498
0.507966475808
0.508450000016
0.508958901411
0.509489394859
0.510037464781
0.510598929409
0.511169602461
0.511745407897
0.5123225189
0.512897528587
0.513467239647
0.514028907827
0.514580020985
0.515120523458
0.515649435088
0.516164360362
0.516664404485
0.51715456014
0.517637399494
0.518100306142
0.518542652269
0.518989151461
0.519454423069
0.519910541012
0.520331540155
0.520792062088
0.52126726725
0.521714958538
0.522143860165
0.522547560374
0.522829336272
0.523201791965
0.523644648377
0.524078305768
0.524285845127
0.524306183769
0.524396615071
0.524412233746
0.524450274823
0.524575806786
0.524806098005
0.525058168097
0.525281004225
0.525488963778
0.525685356655
0.525873597566
0.526055894182
0.526233864
0.526408827923
0.526582460367
0.526756143731
0.526929903323
0.527101040587
0.52726687715
0.527426542928
0.527581016227
0.527732107545
0.527880536844
0.528026601286
0.528170459369
0.528312310616
0.528452393947
0.528590994689
0.528728442913
0.52886504851
0.529001023555
0.529136546183
0.529271818148
0.52940715067
0.529542964924
0.529679430231
0.529816447496
0.529952755496
0.530088246907
0.530223822962
0.530360652539
0.530498421613
0.530635738543
0.530771553266
0.53090536928
0.531037237417
0.531167212007
0.531295350169
0.531421498183
0.531545525563
0.531666949667
0.53178525625
0.531899930811
0.532010500198
0.532116423547
0.532217381949
0.532313091668
0.532403717082
0.532489707718
0.532571907282
0.532651691247
0.532731303801
0.53281340873
0.532901688771
0.533002449418
0.533120050571
0.533254895673
0.533408414664
0.53358044614
0.53376635215
0.533959225113
0.534143542445
0.534297296637
0.534405737757
0.534462985425
0.534469706222
0.53444715575
0.534477607549
0.50045743242
0.50042679101
0.500361447384
0.500364066703
0.500422206743
0.500502082614
0.500606960481
0.500736019544
0.500887988906
0.501060225791
0.50124904822
0.501449805608
0.501658481812
0.501871079144
0.502084480898
0.502295982766
0.502503731521
0.502706349747
0.502903343309
0.503093835424
0.503278389002
0.50345691403
0.503629861455
0.503796989627
0.503959068836
0.504115124562
0.504265349657
0.504408919212
0.504545542724
0.504674033093
0.504793992111
0.504904427765
0.505004824108
0.505094086803
0.505172447158
0.505238977171
0.505293770664
0.5053365222
0.505367591437
0.505386873182
0.505395117801
0.505392942966
0.505381563575
0.505362392586
0.505337268123
0.50530834196
0.505278316376
0.505249960373
0.505226719055
0.505212334328
0.505210505858
0.505223819176
0.505256803351
0.505313237569
0.505396701682
0.505510150241
0.505656072022
0.50583512001
0.506044894588
0.506281272032
0.506542902156
0.506831056172
0.507147770185
0.507494095368
0.50787072479
0.508278059198
0.508715656654
0.509182376961
0.509676377905
0.510195025212
0.510735130986
0.511292815944
0.511863590002
0.512443251281
0.513027617934
0.513611850675
0.514192158177
0.514766303331
0.515330350937
0.51588059682
0.516417506192
0.516943810222
0.51745385183
0.517941011594
0.518415602926
0.518886239396
0.519342864916
0.519756621939
0.520175428961
0.520613158221
0.52104170443
0.521432471378
0.52179728998
0.522171035385
0.522544711448
0.522979534367
0.523410761692
0.523792849292
0.524154770901
0.524404881589
0.524522140385
0.524527468359
0.524583767179
0.524720331296
0.524838264988
0.525002666337
0.525253162721
0.525575865776
0.525901314107
0.526188131694
0.526441961035
0.526670245112
0.526880094719
0.527076585251
0.527263244535
0.527442761564
0.527617399554
0.527788908006
0.527957070595
0.528119912695
0.52827565706
0.528424642137
0.528569129275
0.528710629042
0.528849554019
0.528985837804
0.529119478198
0.529250608374
0.529379506435
0.529506551657
0.529632192264
0.529756842053
0.529880829216
0.530004430041
0.530127939095
0.530251737766
0.530376028119
0.530500553735
0.530624294542
0.530745819902
0.530864814113
0.530982931129
0.531102052389
0.531222212186
0.531342353791
0.531461506696
0.531579286587
0.531695780531
0.531811191913
0.531925762189
0.532039659648
0.53215308408
0.532266065085
0.532378611006
0.532490719309
0.532602363046
0.532713390985
0.532823632868
0.532932712761
0.533040227732
0.533146049925
0.533249975743
0.5333517155
0.533451461439
0.533549708654
0.533647703005
0.533748625213
0.533854421472
0.533965700371
0.534084849361
0.534213525518
0.534351269982
0.534497769288
0.534650184709
0.534796264119
0.53493284254
0.53506155877
0.535191634991
0.535358504831
0.535645421977
0.500592627212
0.500523041032
0.500304316215
0.500207978953
0.500210599202
0.500251160931
0.500327947106
0.500436892625
0.50057634875
0.500742237988
0.50093066138
0.501136985691
0.501356965056
0.501586291183
0.501821585584
0.502059591075
0.502298165911
0.502535054158
0.502769200153
0.502999636414
0.503226008038
0.503447406214
0.503664477468
0.503876369637
0.504083051684
0.504283939685
0.504478889468
0.504666708222
0.504846993469
0.505018571728
0.505180874577
0.505332556329
0.505473330441
0.505602210851
0.505718824709
0.505822474166
0.5059134098
0.505990872015
0.506055225196
0.506106422104
0.506145092754
0.506171770276
0.506187641045
0.506194006598
0.506192701408
0.506185677902
0.506175548177
0.506165110223
0.506157520509
0.506156491229
0.506167105248
0.506192578915
0.506237113994
0.506304753113
0.506398614352
0.506521332804
0.506675512073
0.506862086417
0.507079230833
0.507325516818
0.507599883661
0.507901816659
0.508231864468
0.508591049885
0.508980588968
0.509401209453
0.509853073738
0.51033549422
0.510846277937
0.511382644233
0.511940907224
0.512516780222
0.513104483576
0.513700144208
0.5142995033
0.514896999387
0.515487244755
0.516070001524
0.516644266935
0.51720045071
0.517735035794
0.518260397146
0.518771890528
0.51925522849
0.519724919099
0.520195814878
0.520652147072
0.52108004649
0.521462966458
0.521840891391
0.522241390279
0.522607827631
0.523021238296
0.523446164296
0.523853380521
0.524245208763
0.524555152035
0.5248059734
0.525000598964
0.525097293733
0.525130900611
0.525169469684
0.525286622755
0.52546140772
0.525648107608
0.525873664277
0.526148294268
0.526454692611
0.526755384326
0.527027798296
0.527271612262
0.527491038674
0.527691572469
0.527877768575
0.528053142802
0.528220449573
0.528381934322
0.528538940952
0.528690999468
0.528836502814
0.528974475715
0.529106313022
0.529234522801
0.529360400231
0.529484071303
0.529605288355
0.52972390709
0.529839993718
0.529953806613
0.530065768308
0.530176386248
0.530286142436
0.530395458242
0.530504669436
0.530614190216
0.530724417432
0.530835349274
0.53094624565
0.531055279439
0.531160934513
0.531262928216
0.531363670169
0.531465362997
0.531568328593
0.531671743845
0.531774710603
0.531876894137
0.531978262014
0.532078947398
0.532179038896
0.532278632182
0.532377786821
0.532476517349
0.532574798167
0.532672616988
0.532769916225
0.53286658911
0.532962512943
0.533057465307
0.533151270971
0.53324407881
0.533336064243
0.533427542531
0.533519341096
0.533612496436
0.53370859206
0.533810684375
0.533920705303
0.534039476158
0.53416910935
0.534310231626
0.534461889773
0.53462381876
0.534793671293
0.534962712234
0.535130498597
0.535302911421
0.535494641537
0.535747606823
0.536135124259
0.500750985215
0.500444733667
0.500081985424
0.499985822279
0.500014112635
0.500068433152
0.500151551872
0.500261834936
0.500400125194
0.500564815412
0.500753628113
0.500962292551
0.501187475916
0.501425000086
0.501671883197
0.501924759632
0.502181443817
0.502439596565
0.502698010638
0.502954788876
0.503209702245
0.503461778189
0.503710542925
0.503955223996
0.504195908169
0.504431221116
0.504660808067
0.504883532041
0.505098717217
0.505304997254
0.505501657132
0.505687527915
0.505861909328
0.506023618854
0.506172640873
0.506307965441
0.506429514511
0.50653686672
0.506630319644
0.506709725243
0.50677588608
0.506829377259
0.506871564351
0.506903853152
0.506928235886
0.506946740021
0.506962053845
0.506976761082
0.50699411476
0.507017825751
0.507052853085
0.507102369435
0.507170928054
0.507262599554
0.507381003572
0.507529212986
0.507709525444
0.507919748224
0.508157290618
0.508420310464
0.508708111308
0.509021008724
0.509360570226
0.509728832054
0.510127982434
0.510559628726
0.511024875803
0.511523423256
0.512052773757
0.512608454873
0.513187338762
0.513783853119
0.514390608719
0.515001671942
0.515616032627
0.516227136102
0.516825261881
0.517408429679
0.517983723678
0.51854445639
0.51907034883
0.519599726727
0.520116637845
0.520610427627
0.521074331542
0.521501421127
0.521916174798
0.522318990103
0.522700703783
0.523110155849
0.523521760207
0.523941948732
0.524392255487
0.524794285003
0.525118741371
0.525361142317
0.525523324472
0.525651716455
0.525757853494
0.525832531374
0.52590341793
0.526006355347
0.526160706084
0.52634806223
0.526551358977
0.526780241194
0.527035202729
0.527304054925
0.527567269127
0.527812173511
0.52803607643
0.528240299382
0.528427942467
0.528602193948
0.528765844848
0.528921280425
0.529070502387
0.529214353862
0.529352302778
0.529482968813
0.529606093094
0.529723711348
0.529838126329
0.529950476817
0.530060811657
0.530168861145
0.530274421233
0.530377522439
0.530478410801
0.530577529173
0.530675405161
0.530772569814
0.530869476832
0.530966548924
0.531064265848
0.53116301854
0.531262592613
0.531361631411
0.531458051457
0.531550026297
0.531637872276
0.531724245179
0.531811388501
0.531899864705
0.531989016431
0.532078143274
0.532166921383
0.5322553145
0.532343376695
0.532431130718
0.53251859405
0.532605766495
0.532692644585
0.532779216536
0.532865487955
0.532951435589
0.533037005596
0.533122148619
0.533206753978
0.533290796857
0.533374530507
0.533458237697
0.533542393603
0.533627978527
0.533716175696
0.533808607625
0.533908037089
0.534016299984
0.534134394233
0.534264448283
0.534406931393
0.534561105158
0.534727265084
0.534904187156
0.535085698664
0.535273348952
0.535474662044
0.535706574522
0.536009911417
0.536442596155
0.500905285554
0.500168371516
0.499765770516
0.499798511395
0.49990788084
0.500001859166
0.500105870876
0.50022790562
0.500375009448
0.50054685452
0.500742713688
0.500959105033
0.501193353338
0.501441554072
0.501701182014
0.501968896496
0.502242810992
0.502520237663
0.502799978504
0.503080474593
0.503360844058
0.503639615352
0.503916833452
0.504191117148
0.504461921746
0.504728291202
0.504989625415
0.505244444368
0.505492055861
0.505731048119
0.505960625432
0.506179306726
0.506386591279
0.506581388069
0.506763138756
0.506931066741
0.507085224587
0.507224860263
0.507350320483
0.507461606557
0.50755950322
0.507644646465
0.507718454487
0.507782315715
0.507838197399
0.507887828754
0.507933637697
0.507977806109
0.508022780199
0.508071483489
0.508129617828
0.508199565865
0.508286256618
0.508395344006
0.508531660309
0.508699545607
0.508900316588
0.50912928352
0.509383734063
0.509660804325
0.509959254478
0.510279266327
0.510623097283
0.510994616076
0.511398453348
0.511836775564
0.512312117283
0.512825313226
0.513372650424
0.51394756694
0.514545460722
0.515163069611
0.515788985403
0.516412142062
0.51703303076
0.517649536822
0.518250540078
0.518835317271
0.519417208566
0.519980891185
0.520520413391
0.521027777908
0.521498120481
0.521957742515
0.522403126622
0.522819466073
0.523214689565
0.52360683923
0.524024801003
0.524470751132
0.524900481959
0.525306439557
0.525669156661
0.525948247355
0.526149349317
0.526288518398
0.526389270645
0.526483768989
0.526579618734
0.526675566386
0.526784893114
0.526919668852
0.527082457616
0.527263357325
0.52745701237
0.527666897051
0.527891591988
0.528123418433
0.52835149497
0.528567918402
0.528769431306
0.528955771988
0.529128252718
0.529288829371
0.529439485303
0.529582261723
0.529718688641
0.529849303444
0.529973411176
0.530089961913
0.530199332559
0.53030351599
0.530404635939
0.530503677094
0.530600757792
0.530695653553
0.530788202976
0.530878422309
0.530966561524
0.531053049122
0.53113841889
0.531223213367
0.53130790768
0.531393004575
0.531479036319
0.531566368674
0.531654518905
0.531741732281
0.531825673361
0.531904577086
0.531979263041
0.532052331678
0.532126036364
0.532200954688
0.532276616018
0.532352525249
0.532428443476
0.53250438535
0.532580337882
0.532656291954
0.532732169279
0.532807943947
0.532883568838
0.532959058045
0.533034418722
0.533109678645
0.5331848285
0.533259901538
0.533334893341
0.533409911754
0.53348532703
0.533561543767
0.533639191544
0.533719362681
0.533803368897
0.533892819537
0.53399028936
0.534097475705
0.534215456458
0.534346227677
0.534490272612
0.534646932648
0.534816985496
0.535000133191
0.53519229339
0.535396399501
0.535621031412
0.535883911091
0.536222220095
0.536679862384
0.501031609714
0.499737170915
0.499483631191
0.499748340697
0.499946955265
0.500081098916
0.500210349096
0.5003515045
0.500514959723
0.5007018043
0.500912173738
0.501142295359
0.501390359009
0.501652544195
0.501926935837
0.50221028485
0.502500965312
0.50279650456
0.503095870904
0.503396879368
0.503699125135
0.504001181651
0.504302273549
0.504601310734
0.50489801786
0.505190750347
0.505478971087
0.50576135948
0.506037111872
0.506304749973
0.506563497717
0.506812115321
0.507049831938
0.50727547845
0.507488870338
0.507688996646
0.50787569376
0.508048565195
0.508207876006
0.50835357435
0.508486554212
0.508607460297
0.508717659798
0.508818423382
0.508911392244
0.508997903644
0.509079349634
0.509156830014
0.509231665231
0.509305277606
0.509381948404
0.509466249016
0.509563776249
0.509683229657
0.509833157418
0.510021014337
0.510245064121
0.510497733203
0.510774692678
0.51107117519
0.511383886882
0.511712288237
0.512058464095
0.512430143637
0.512834797382
0.513276915715
0.513759206967
0.514284310135
0.514849477254
0.515442399629
0.516053295376
0.516682255191
0.517320260115
0.517945465568
0.518578229256
0.519208232245
0.519816153694
0.52039915217
0.520951887864
0.52147056641
0.521975851722
0.522465044437
0.522923654349
0.523349118579
0.523754670402
0.524153996902
0.524559493223
0.524977799886
0.52540389724
0.52581239649
0.526176735074
0.526491274978
0.52674371421
0.526927857638
0.527062256273
0.527166034121
0.527258728923
0.527356149857
0.527461182439
0.527573770559
0.52769872011
0.527839257536
0.527994425008
0.528160140679
0.528335103915
0.528520758316
0.528715642293
0.528914898377
0.529111954935
0.52930143853
0.529480326796
0.529647588903
0.52980350542
0.529949081518
0.530085738221
0.530215105371
0.530338333423
0.530455647169
0.53056628042
0.530669449605
0.530765788541
0.530857168066
0.530945398159
0.531031408606
0.531115418482
0.531197319405
0.531277014797
0.531354544184
0.53143015457
0.531504251485
0.531577351329
0.531649964682
0.531722598946
0.531795793375
0.531870175659
0.531946017902
0.53202255838
0.532097841206
0.532169402439
0.532235894031
0.532298340398
0.532359208911
0.53242052216
0.532482828206
0.532545866735
0.532609289348
0.532673004234
0.53273704797
0.532801424048
0.532866076603
0.532930889079
0.532995789664
0.533060713357
0.533125673833
0.53319069543
0.533255841507
0.533321155112
0.533386739912