/*--------------------------------*- C++ -*----------------------------------*\
| =========                 |                                                 |
| \\      /  F ield         | OpenFOAM: The Open Source CFD Toolbox           |
|  \\    /   O peration     | Version:  v1806                                 |
|   \\  /    A nd           | Web:      www.OpenFOAM.com                      |
|    \\/     M anipulation  |                                                 |
\*---------------------------------------------------------------------------*/
FoamFile
{
    version     2.0;
    format      ascii;
    class       surfaceScalarField;
    location    "10";
    object      phi;
}
// * * * * * * * * * * * * * * * * * * * * * * * * * * * * * * * * * * * * * //

dimensions      [0 3 -1 0 0 0 0];
oriented        oriented;


internalField   nonuniform List<scalar> 
24170
(
3.07354463831e-06
1.14862262753e-07
2.98681166414e-06
8.67338688708e-08
2.90696452207e-06
7.98483421425e-08
2.83030938347e-06
7.66563255186e-08
2.75693597351e-06
7.3374586303e-08
2.68692873771e-06
7.00082978279e-08
2.62017724498e-06
6.675261497e-08
2.55649576125e-06
6.36824781031e-08
2.49567570728e-06
6.08210943059e-08
2.43749723565e-06
5.81793928802e-08
2.38172893499e-06
5.57692626821e-08
2.32812201888e-06
5.36077718136e-08
2.27640149545e-06
5.17213857479e-08
2.22624760746e-06
5.01546684321e-08
2.17725517436e-06
4.89931631961e-08
2.128817422e-06
4.84383164988e-08
2.07959381296e-06
4.92240118345e-08
5.29550948151e-08
2.02663919807e-06
3.43168686486e-06
1.00425162045e-07
3.42682714795e-06
9.15944298089e-08
3.42013712688e-06
8.65394595378e-08
3.41063008522e-06
8.61644509509e-08
3.39870899089e-06
8.52967423534e-08
3.38499116112e-06
8.37270861559e-08
3.36987330346e-06
8.18714565088e-08
3.35360823985e-06
7.99484180519e-08
3.33637118884e-06
7.80590250485e-08
3.31828311169e-06
7.62682546671e-08
3.2994165435e-06
7.46366081312e-08
3.27979338057e-06
7.32316285914e-08
3.25937773303e-06
7.21376915672e-08
3.23805870425e-06
7.14742864144e-08
3.21561266128e-06
7.14397190564e-08
3.19163445923e-06
7.24169028978e-08
3.16561240198e-06
7.52462936377e-08
8.04579282541e-08
3.13811000837e-06
3.68013275558e-06
8.28099676425e-08
3.68471998047e-06
8.70080399544e-08
3.68765165901e-06
8.36088264647e-08
3.68958066938e-06
8.42364612826e-08
3.69029742116e-06
8.45809748913e-08
3.68998322402e-06
8.40421801158e-08
3.68878001161e-06
8.30755741252e-08
3.68675145636e-06
8.19777933041e-08
3.68392259553e-06
8.088870431e-08
3.68029765925e-06
7.98939367719e-08
3.67586314791e-06
7.90718615286e-08
3.67058424086e-06
7.85112179368e-08
3.66439825417e-06
7.83243409696e-08
3.65720497514e-06
7.86681840529e-08
3.64885856779e-06
7.97867016534e-08
3.63919361796e-06
8.20823477613e-08
3.62821183762e-06
8.62285260679e-08
9.22283867164e-08
3.6164420411e-06
3.93982143513e-06
6.83775484972e-08
3.94607743774e-06
8.07528622806e-08
3.94988193373e-06
7.98053372862e-08
3.95304437608e-06
8.10750183005e-08
3.95542384288e-06
8.22024753295e-08
3.9570957336e-06
8.23711858571e-08
3.95817532804e-06
8.19968667086e-08
3.95871526963e-06
8.14386699333e-08
3.95872432151e-06
8.08804451256e-08
3.95818772394e-06
8.04312683123e-08
3.9570751835e-06
8.01851048905e-08
3.95534197541e-06
8.02450746654e-08
3.95292802408e-06
8.07389032726e-08
3.94975833311e-06
8.18384426906e-08
3.94575449026e-06
8.37910633914e-08
3.94088221152e-06
8.69550871509e-08
3.93528867236e-06
9.18224712948e-08
9.84229853618e-08
3.92909459807e-06
4.21865357767e-06
5.68517191961e-08
4.22539325067e-06
7.40140163699e-08
4.22934655066e-06
7.58530121616e-08
4.23260292085e-06
7.78195955616e-08
4.23521103678e-06
7.95952720083e-08
4.2371788352e-06
8.04042321133e-08
4.23859576482e-06
8.05807727745e-08
4.23951791647e-06
8.05172940065e-08
4.23996073661e-06
8.04383857054e-08
4.23991541901e-06
8.04772989618e-08
4.23935882136e-06
8.07423985545e-08
4.23825743157e-06
8.13471226667e-08
4.23657032439e-06
8.24266468334e-08
4.23425578791e-06
8.41535893631e-08
4.23129054959e-06
8.67568844481e-08
4.22771410558e-06
9.05320650895e-08
4.22371126691e-06
9.58258520703e-08
1.02731542151e-07
4.21940338574e-06
4.51826449211e-06
4.76750062354e-08
4.52502644566e-06
6.72528915159e-08
4.5291461368e-06
7.17342606885e-08
4.53245256034e-06
7.45141117997e-08
4.53517251967e-06
7.68762083692e-08
4.53728085242e-06
7.8296752959e-08
4.5388317377e-06
7.90307053511e-08
4.53987687285e-06
7.94729387235e-08
4.54043710183e-06
7.98788952426e-08
4.5405108512e-06
8.04042563638e-08
4.54008399345e-06
8.11699201009e-08
4.53913590075e-06
8.2295847928e-08
4.53764529557e-06
8.39178528513e-08
4.53560054861e-06
8.61989169596e-08
4.53302085657e-06
8.93371299648e-08
4.52999316364e-06
9.35602987539e-08
4.52672447582e-06
9.90950512447e-08
1.05998962826e-07
4.52345759145e-06
4.84002985989e-06
4.03657308722e-08
4.84652319911e-06
6.07603806296e-08
4.85078654379e-06
6.74718274888e-08
4.85414992417e-06
7.11516296236e-08
4.85695383147e-06
7.40731513478e-08
4.85917720902e-06
7.60741862298e-08
4.8608443253e-06
7.73643651004e-08
4.86199827589e-06
7.83197337988e-08
4.86266339409e-06
7.92144899618e-08
4.86284501982e-06
8.0223320272e-08
4.86253814031e-06
8.14774579877e-08
4.86173503502e-06
8.30995924056e-08
4.86043334148e-06
8.52201641635e-08
4.85864815376e-06
8.79847112858e-08
4.85643194081e-06
9.15539327344e-08
4.85390250322e-06
9.60902909737e-08
4.8512724032e-06
1.0172569535e-07
1.08458956501e-07
4.84881319405e-06
5.18542460987e-06
3.45227396113e-08
5.19147341692e-06
5.47124000595e-08
5.19581793675e-06
6.31282044828e-08
5.19924847903e-06
6.77219696234e-08
5.20213451277e-06
7.11879670735e-08
5.20447737223e-06
7.37321292049e-08
5.20627981228e-06
7.55627008451e-08
5.20757279533e-06
7.7027482389e-08
5.20838108057e-06
7.84069148903e-08
5.20871604178e-06
7.98890247114e-08
5.20858207175e-06
8.16120730044e-08
5.20798486814e-06
8.36974051199e-08
5.20694067359e-06
8.62649606408e-08
5.20548844261e-06
8.94375221964e-08
5.20370662277e-06
9.33363296416e-08
5.20173256686e-06
9.806489864e-08
5.19977828973e-06
1.03680596881e-07
1.10123560495e-07
5.19811431212e-06
5.55604054021e-06
2.98202650736e-08
5.5615596809e-06
4.91940731854e-08
5.56590991454e-06
5.87788334058e-08
5.56940958546e-06
6.4223144422e-08
5.57238220715e-06
6.82161520782e-08
5.57485119369e-06
7.12639110615e-08
5.57680665437e-06
7.36079762296e-08
5.57826689158e-06
7.55679520555e-08
5.57925517843e-06
7.74193066456e-08
5.57978865792e-06
7.93562007148e-08
5.57988182446e-06
8.15195278457e-08
5.57955436085e-06
8.40254839413e-08
5.57884030912e-06
8.69796055249e-08
5.57779899802e-06
9.04794276377e-08
5.57652759489e-06
9.46083056999e-08
5.57517254073e-06
9.94205058354e-08
5.57393367294e-06
1.04920055998e-07
1.11013308383e-07
5.57304471124e-06
5.95359941403e-06
2.59976316668e-08
5.95857086357e-06
4.42234454643e-08
5.96285710573e-06
5.44934374958e-08
5.9664191389e-06
6.06619493754e-08
5.96948647453e-06
6.5149611717e-08
5.97209299598e-06
6.86581578118e-08
5.97422315665e-06
7.14785392912e-08
5.97588446027e-06
7.39073523212e-08
5.97709768487e-06
7.62067441667e-08
5.97788507879e-06
7.85694309414e-08
5.97827101655e-06
8.11342039639e-08
5.97828839984e-06
8.40086980976e-08
5.97798679663e-06
8.72817863687e-08
5.97744118511e-06
9.10256131557e-08
5.97676017738e-06
9.52898609468e-08
5.97609111399e-06
1.0009010688e-07
5.97561776921e-06
1.05394032997e-07
1.11089165291e-07
5.97554257397e-06
6.37996067699e-06
2.28497974417e-08
6.38441202109e-06
3.9772950608e-08
6.38858296833e-06
5.03233747435e-08
6.39219724595e-06
5.7048530204e-08
6.39537109864e-06
6.1976591491e-08
6.39813300685e-06
6.58970345243e-08
6.40046505039e-06
6.91472591723e-08
6.40236656788e-06
7.20065542756e-08
6.4038553934e-06
7.4718609349e-08
6.40495776274e-06
7.74677226207e-08
6.40570678312e-06
8.03858290524e-08
6.40614682214e-06
8.3569274378e-08
6.40633979824e-06
8.70894334502e-08
6.40637128208e-06
9.09947207312e-08
6.40635478066e-06
9.53069446318e-08
6.40643199578e-06
1.00013447252e-07
6.40676620955e-06
1.05060420619e-07
1.10333562851e-07
6.4075225859e-06
5.74309961167e-06
2.05853162847e-08
5.74650039288e-06
3.63730292998e-08
5.74991309775e-06
4.69115376519e-08
5.75300111591e-06
5.39613552415e-08
5.75577723382e-06
5.92012852634e-08
5.7582502272e-06
6.34248124292e-08
5.76040299035e-06
6.6995235461e-08
5.76223041094e-06
7.01798363096e-08
5.76374510113e-06
7.32045874197e-08
5.76497117872e-06
7.62422791841e-08
5.76594188887e-06
7.94157317098e-08
5.76670155217e-06
8.28102988996e-08
5.76730901581e-06
8.64825165174e-08
5.7678409146e-06
9.04634724951e-08
5.7683925932e-06
9.47557749831e-08
5.76907636854e-06
9.93302505338e-08
5.77001524818e-06
1.04122159736e-07
1.09017720754e-07
5.77133179176e-06
7.00039616663e-06
1.83452772354e-08
7.00392936294e-06
3.28406064799e-08
7.00769991317e-06
4.31417643352e-08
7.01126754253e-06
5.03944953073e-08
7.01456377516e-06
5.59057876681e-08
7.01757342602e-06
6.0415877785e-08
7.02027254321e-06
6.42967975249e-08
7.02265140538e-06
6.78016289418e-08
7.02472211906e-06
7.11344916426e-08
7.02651371741e-06
7.44512760694e-08
7.02806876453e-06
7.78613988601e-08
7.0294435002e-06
8.14361247826e-08
7.0307101556e-06
8.52165660059e-08
7.0319577748e-06
8.92163417512e-08
7.03329183758e-06
9.34223611983e-08
7.03482959558e-06
9.7792949687e-08
7.03669308232e-06
1.02259431794e-07
1.06716234599e-07
7.03899508147e-06
8.53305264589e-06
1.61403353258e-08
8.53669291818e-06
2.92010716735e-08
8.54082207943e-06
3.90133464471e-08
8.54492896909e-06
4.62882980938e-08
8.5488561002e-06
5.19793690576e-08
8.5525501477e-06
5.6722479671e-08
8.55597482701e-06
6.0872786044e-08
8.55911415895e-06
6.46629003473e-08
8.56197846367e-06
6.82708004553e-08
8.56460055799e-06
7.18298413613e-08
8.56703120543e-06
7.54314249718e-08
8.56933749627e-06
7.91305325293e-08
8.57160237275e-06
8.29522872298e-08
8.57392386819e-06
8.68954852829e-08
8.57641167864e-06
9.09350392682e-08
8.57918206906e-06
9.5023223935e-08
8.58234900776e-06
9.90929343758e-08
1.03052379567e-07
8.58601370716e-06
1.04014100545e-05
1.39499318372e-08
1.04051755376e-05
2.54363252139e-08
1.04096971869e-05
3.44923890224e-08
1.04144336413e-05
4.15525698146e-08
1.0419145632e-05
4.72680129013e-08
1.04237309026e-05
5.21379089288e-08
1.04281330936e-05
5.647118209e-08
1.04323269928e-05
6.0469668478e-08
1.0436318672e-05
6.42796908954e-08
1.04401419279e-05
6.80073647966e-08
1.04438522138e-05
7.172176003e-08
1.04475232299e-05
7.54603313696e-08
1.04512431224e-05
7.92329098864e-08
1.04551120125e-05
8.30273093165e-08
1.04592361274e-05
8.68113584616e-08
1.04637224555e-05
9.05375298147e-08
1.04686702433e-05
9.41456349654e-08
9.75608414245e-08
1.04741622014e-05
1.2679033979e-05
1.17065741758e-08
1.26830205108e-05
2.14505237487e-08
1.26880511761e-05
2.94624650338e-08
1.26935866847e-05
3.60177357177e-08
1.26993236625e-05
4.15317530366e-08
1.27051061808e-05
4.63560115364e-08
1.27108497947e-05
5.07282717491e-08
1.2716514296e-05
5.48057299418e-08
1.27220973162e-05
5.86974456782e-08
1.27276276041e-05
6.24776510237e-08
1.2733159155e-05
6.61911222848e-08
1.27387634045e-05
6.98565500763e-08
1.27445256453e-05
7.34715459349e-08
1.27505372456e-05
7.70160355151e-08
1.27568924292e-05
8.04570160153e-08
1.27636788617e-05
8.37512684879e-08
1.27709749162e-05
8.6850446882e-08
8.96975515735e-08
1.27788381871e-05
1.54556140151e-05
9.27326962158e-09
1.54600427903e-05
1.70225085368e-08
1.54658502088e-05
2.36557952437e-08
1.54725067525e-05
2.93619241106e-08
1.5479660407e-05
3.43788111009e-08
1.5487102695e-05
3.89144274249e-08
1.54947136322e-05
4.31180092558e-08
1.55024306707e-05
4.70893812949e-08
1.55102347718e-05
5.08940084176e-08
1.55181414741e-05
5.45717141499e-08
1.55261918216e-05
5.81414248862e-08
1.55344447218e-05
6.16044048202e-08
1.55429688652e-05
6.494796318e-08
1.55518369547e-05
6.81486676824e-08
1.55611184555e-05
7.11759618998e-08
1.55708753487e-05
7.3995055914e-08
1.55811557233e-05
7.65703570462e-08
7.88631774178e-08
1.55919907879e-05
1.88405052516e-05
6.40619095625e-09
1.88457982451e-05
1.17303100772e-08
1.88529029831e-05
1.6551846459e-08
1.88612650492e-05
2.10006457167e-08
1.88704799859e-05
2.51646269486e-08
1.88802856206e-05
2.91095665158e-08
1.88905199066e-05
3.28844300167e-08
1.8901088516e-05
3.65215435487e-08
1.89119455559e-05
4.00376367451e-08
1.89230819661e-05
4.34361100134e-08
1.89345140459e-05
4.67099735224e-08
1.89462751467e-05
4.98441245683e-08
1.89584059457e-05
5.28177235201e-08
1.89709493554e-05
5.56060779309e-08
1.8983942913e-05
5.81828699706e-08
1.89974168922e-05
6.05219034524e-08
1.90113883904e-05
6.25991601962e-08
6.43907336897e-08
1.90258617017e-05
2.29671159131e-05
2.62834726357e-09
2.29740776876e-05
4.76945192894e-09
2.29834547702e-05
7.17569685729e-09
2.2994562649e-05
9.89367465948e-09
2.3006906284e-05
1.28218867143e-08
2.30201605575e-05
1.58561846956e-08
2.30341141359e-05
1.8931698496e-08
2.30486304171e-05
2.20061589011e-08
2.30636255195e-05
2.50433200207e-08
2.307905457e-05
2.80079679224e-08
2.30948983049e-05
3.08669580221e-08
2.31111536377e-05
3.35897212149e-08
2.3127823513e-05
3.61484928032e-08
2.31449123634e-05
3.8518155207e-08
2.31624192086e-05
4.06765604834e-08
2.31803370506e-05
4.26050029279e-08
2.31986477836e-05
4.42887893917e-08
4.5715679443e-08
2.3217323774e-05
1.68140210469e-05
-6.87031846893e-10
1.68200004811e-05
-1.20910140446e-09
1.68278753226e-05
-6.98449418177e-10
1.68370309572e-05
7.38973327262e-10
1.68470879813e-05
2.7654966718e-09
1.68578202854e-05
5.12486825427e-09
1.68690765793e-05
7.67596205954e-09
1.68807525129e-05
1.03311988523e-08
1.68927776026e-05
1.30187066573e-08
1.69051086014e-05
1.56779109692e-08
1.69177169966e-05
1.82590086948e-08
1.69305844994e-05
2.07231440389e-08
1.69436947612e-05
2.30386410932e-08
1.6957033287e-05
2.5180549298e-08
1.69705819036e-05
2.71283487892e-08
1.69843207721e-05
2.88670694494e-08
1.69982239914e-05
3.03859159823e-08
3.1677875582e-08
1.70122627608e-05
1.46381106097e-05
-4.22823592877e-09
1.46443455197e-05
-7.4433026814e-09
1.4652253917e-05
-8.6060069992e-09
1.46611656285e-05
-8.1720310468e-09
1.4670768163e-05
-6.83616642858e-09
1.46808978236e-05
-5.00417622687e-09
1.46914373316e-05
-2.86266127453e-09
1.47023005196e-05
-5.31456655112e-10
1.47134311664e-05
1.88886550241e-09
1.47247926401e-05
4.3169485036e-09
1.47363598945e-05
6.69252695741e-09
1.47481118369e-05
8.9716850153e-09
1.47600291812e-05
1.11220673839e-08
1.47720920617e-05
1.31181411021e-08
1.47842804394e-05
1.49407547029e-08
1.47965725576e-05
1.65753862836e-08
1.48089470431e-05
1.80122546024e-08
1.92446200423e-08
1.48213806512e-05
1.27441059129e-05
-8.20150056879e-09
1.27507969837e-05
-1.41336369471e-08
1.27587930335e-05
-1.66013828235e-08
1.27674255843e-05
-1.68038222222e-08
1.27765158981e-05
-1.59257978256e-08
1.27859769295e-05
-1.44643969758e-08
1.2795722303e-05
-1.26074070231e-08
1.28056872698e-05
-1.04957551911e-08
1.28158325279e-05
-8.25578871443e-09
1.28261335897e-05
-5.98354173135e-09
1.28365713582e-05
-3.74462515259e-09
1.28471274697e-05
-1.58386438453e-09
1.28577833827e-05
4.66806567583e-10
1.28685187632e-05
2.38331935237e-09
1.28793121877e-05
4.14796210878e-09
1.28901407541e-05
5.74736834304e-09
1.29009798614e-05
7.17369722733e-09
8.42297790731e-09
1.29118021188e-05
1.10956064495e-05
-1.28781813409e-08
1.11029242026e-05
-2.14507192318e-08
1.11109661538e-05
-2.46426009531e-08
1.11192333752e-05
-2.50703423935e-08
1.11277516281e-05
-2.44433166955e-08
1.11364988661e-05
-2.32110065958e-08
1.11454136553e-05
-2.15215235011e-08
1.11544577646e-05
-1.95392337122e-08
1.11636155443e-05
-1.74130356891e-08
1.11728777148e-05
-1.52450682849e-08
1.11822326564e-05
-1.30990642613e-08
1.11916654075e-05
-1.10159301428e-08
1.12011574993e-05
-9.02482563706e-09
1.12106889332e-05
-7.14738574164e-09
1.12202393242e-05
-5.40202269976e-09
1.12297912504e-05
-3.80387116825e-09
1.12393323339e-05
-2.36702891099e-09
-1.10424426498e-09
1.12488602454e-05
9.66097575434e-06
-1.86387448079e-08
9.66902485766e-06
-2.94991507445e-08
9.67697399633e-06
-3.25911053157e-08
9.68477650936e-06
-3.28721421664e-08
9.69267843658e-06
-3.23445813428e-08
9.70068083833e-06
-3.12126820799e-08
9.70874004471e-06
-2.95800870238e-08
9.71684727451e-06
-2.7645873365e-08
9.72500951547e-06
-2.55746927157e-08
9.73323074046e-06
-2.34657871846e-08
9.74150760313e-06
-2.13753431445e-08
9.74983031347e-06
-1.93381144803e-08
9.75818435411e-06
-1.73782005365e-08
9.76655134069e-06
-1.55138654918e-08
9.77490993755e-06
-1.37600497522e-08
9.78323672353e-06
-1.21301719053e-08
9.79150749888e-06
-1.06373066735e-08
-9.29461736346e-09
9.79969838022e-06
8.41271958452e-06
-2.60051672192e-08
8.42145572146e-06
-3.82345905043e-08
8.42909534876e-06
-4.02300106589e-08
8.43636602904e-06
-4.01421108241e-08
8.44365153671e-06
-3.96293962502e-08
8.45093610831e-06
-3.84966692323e-08
8.45820146478e-06
-3.68447686114e-08
8.46546704757e-06
-3.49108396457e-08
8.47275288447e-06
-3.28599862127e-08
8.48006746029e-06
-3.07797927054e-08
8.48740970683e-06
-2.87170293697e-08
8.49477232486e-06
-2.67001406004e-08
8.50214333382e-06
-2.4748695481e-08
8.5095065834e-06
-2.28765560347e-08
8.51684198467e-06
-2.10949300687e-08
8.52412793587e-06
-1.94156712571e-08
8.53134929799e-06
-1.78580561989e-08
-1.64579186235e-08
8.53851301e-06
7.32692334122e-06
-3.5643526625e-08
7.33605527427e-06
-4.73658446299e-08
7.34314980149e-06
-4.7323892498e-08
7.34982935145e-06
-4.68209158808e-08
7.35643067685e-06
-4.62300370555e-08
7.36292728502e-06
-4.49926024357e-08
7.36935452053e-06
-4.32713652399e-08
7.37576375282e-06
-4.13194795042e-08
7.38218461861e-06
-3.92803037561e-08
7.38862724065e-06
-3.72218972597e-08
7.3950907995e-06
-3.51800214647e-08
7.40156828866e-06
-3.31770909288e-08
7.40804839697e-06
-3.12282314615e-08
7.41451493601e-06
-2.93425705877e-08
7.42094493921e-06
-2.75244415993e-08
7.42730599326e-06
-2.57762496998e-08
7.4335562285e-06
-2.41077995904e-08
-2.25576125435e-08
7.43965649962e-06
6.38281544293e-06
-4.83923481002e-08
6.39175203143e-06
-5.63017874335e-08
6.3982751015e-06
-5.38463208131e-08
6.40450027714e-06
-5.30453493433e-08
6.41050661606e-06
-5.22357725841e-08
6.41629560419e-06
-5.07810675833e-08
6.42196221022e-06
-4.89373639214e-08
6.42757978222e-06
-4.6936493316e-08
6.43318486302e-06
-4.48848829815e-08
6.43879208913e-06
-4.28286244429e-08
6.44440504024e-06
-4.07923677698e-08
6.45002089155e-06
-3.87924823855e-08
6.45563254484e-06
-3.68394293523e-08
6.46122802712e-06
-3.49375612341e-08
6.46678718393e-06
-3.30831523979e-08
6.47227442195e-06
-3.12630684025e-08
6.47763048765e-06
-2.94634140083e-08
-2.77011109757e-08
6.48277457023e-06
5.56199076603e-06
-6.49179072736e-08
5.56943447279e-06
-6.37448157052e-08
5.57511527436e-06
-5.95264681889e-08
5.58055505931e-06
-5.84842562626e-08
5.58557296181e-06
-5.72529253696e-08
5.59025851977e-06
-5.54660388836e-08
5.5947396351e-06
-5.34178550872e-08
5.5990886318e-06
-5.12849152101e-08
5.60334195692e-06
-4.91376978626e-08
5.60752005665e-06
-4.7006183392e-08
5.611635696e-06
-4.49073907173e-08
5.61569673831e-06
-4.28529854841e-08
5.6197077733e-06
-4.08499902161e-08
5.62366999206e-06
-3.88992960239e-08
5.62757791553e-06
-3.69906352774e-08
5.6314054079e-06
-3.50901719774e-08
5.63506195834e-06
-3.3119462589e-08
-3.0862561208e-08
5.63822391224e-06
4.84600691151e-06
-8.33167938524e-08
4.84757609375e-06
-6.53132450794e-08
4.84815161533e-06
-6.0101200052e-08
4.84743226161e-06
-5.77638889008e-08
4.84549676495e-06
-5.53165653807e-08
4.84273504065e-06
-5.27036234086e-08
4.83941461931e-06
-5.00967238804e-08
4.8357012332e-06
-4.75708707411e-08
4.83171199846e-06
-4.51478646121e-08
4.82753875931e-06
-4.2832283525e-08
4.82325617051e-06
-4.0624052971e-08
4.81892514131e-06
-3.85213224098e-08
4.81459599216e-06
-3.65202775073e-08
4.81031178906e-06
-3.46145367462e-08
4.80611327165e-06
-3.27916177543e-08
4.80204150956e-06
-3.10179276414e-08
4.79812836006e-06
-2.92057630291e-08
-2.65557985024e-08
4.79382220794e-06
4.11935949572e-06
4.05404631266e-06
3.99394520319e-06
3.93618139922e-06
3.88086490491e-06
3.82816136151e-06
3.77806471845e-06
3.73049392593e-06
3.68534615146e-06
3.64251398414e-06
3.60189003791e-06
3.5633688141e-06
3.52684864281e-06
3.49223421029e-06
3.45944269392e-06
3.42842489108e-06
3.39921928291e-06
3.37266359332e-06
5.34579752425e-08
-5.34475685344e-08
7.78431623956e-08
-2.43752569838e-08
6.68216523561e-08
1.1032044991e-08
1.90423209053e-08
4.77893866939e-08
-7.30700181601e-08
9.21193899753e-08
-1.8398799231e-07
1.10922735185e-07
-3.06741087018e-07
1.22756651878e-07
-4.38750021616e-07
1.32012154314e-07
-5.78290478589e-07
1.39543081862e-07
-7.23990549395e-07
1.45702872792e-07
-8.74713781039e-07
1.50725506637e-07
-1.02950154813e-06
1.54790397536e-07
-1.18754182471e-06
1.58042313389e-07
-1.34814070454e-06
1.60601383711e-07
-1.51070759126e-06
1.62568701796e-07
-1.67473557519e-06
1.64030362369e-07
-1.83979397011e-06
1.65059950264e-07
-2.00551265969e-06
1.65720955531e-07
-2.17157947472e-06
1.66068256355e-07
-2.33772739017e-06
1.66150078309e-07
-2.50373520256e-06
1.66009128576e-07
-2.66941736697e-06
1.6568430155e-07
-2.83462755686e-06
1.65211513585e-07
-2.99925054925e-06
1.64625142961e-07
-3.16320744936e-06
1.63958319018e-07
-3.32644910679e-06
1.63243801518e-07
-3.48896128417e-06
1.6251360903e-07
-3.6507582659e-06
1.61799128739e-07
-3.8118866547e-06
1.61129910617e-07
-3.97241752134e-06
1.60533020825e-07
-4.13244720392e-06
1.60031193594e-07
-4.29208677094e-06
1.59641716515e-07
-4.45145945067e-06
1.5937425042e-07
-4.6106870432e-06
1.59229733943e-07
-4.7698840152e-06
1.59198511807e-07
-4.9291416762e-06
1.59259826884e-07
-5.0885207661e-06
1.59380693447e-07
-5.24803498301e-06
1.59516466461e-07
-5.40764409823e-06
1.59610802395e-07
-5.56723924986e-06
1.59597471765e-07
-5.72663901221e-06
1.59401487341e-07
-5.88557872332e-06
1.58942040483e-07
-6.0437115008e-06
1.58134475986e-07
-6.20060298965e-06
1.5689377789e-07
-6.35573819172e-06
1.55136818062e-07
-6.50852222108e-06
1.5278628326e-07
-6.65829371526e-06
1.49773124226e-07
-6.80433159804e-06
1.46040215566e-07
-6.94587366886e-06
1.41543803405e-07
-7.08212786827e-06
1.36256796644e-07
-7.21229572393e-06
1.30169948485e-07
-7.33558661527e-06
1.23293956509e-07
-7.45124366022e-06
1.15659619526e-07
-7.55855845706e-06
1.07318319271e-07
-7.65689516626e-06
9.83396088809e-08
-7.74569970476e-06
8.88084936806e-08
-7.82451686736e-06
7.88204866344e-08
-7.89299065746e-06
6.84781304926e-08
-7.95087113871e-06
5.78839612914e-08
-7.99800604161e-06
4.71395791573e-08
-8.0343360194e-06
3.63337463068e-08
-8.05986306013e-06
2.55319191645e-08
-8.07462874761e-06
1.47693551554e-08
-8.0786628709e-06
4.03913904901e-09
-8.07200287146e-06
-6.65629918173e-09
-8.05477181139e-06
-1.72258467666e-08
-8.02716302411e-06
-2.76050935249e-08
-7.98933224695e-06
-3.78255630569e-08
-7.94136406925e-06
-4.7964837173e-08
-7.88322651363e-06
-5.81326768721e-08
-7.81475845997e-06
-6.84651988046e-08
-7.73563756075e-06
-7.91162129202e-08
-7.64538298727e-06
-9.0252039895e-08
-7.5433394325e-06
-1.02038458963e-07
-7.42870717453e-06
-1.14629115894e-07
-7.3005560215e-06
-1.28144779102e-07
-7.15789628701e-06
-1.42655341327e-07
-6.99973741637e-06
-1.58151603472e-07
-6.82520472293e-06
-1.74528469274e-07
-6.63362521382e-06
-1.91571704399e-07
-6.42465778895e-06
-2.08962678796e-07
-6.19836494377e-06
-2.26284652127e-07
-5.95530269718e-06
-2.43058055144e-07
-5.69651426846e-06
-2.58779361298e-07
-5.42354255774e-06
-2.7296641598e-07
-5.13834664796e-06
-2.8518685534e-07
-4.84324064064e-06
-2.95103135765e-07
-4.54075190365e-06
-3.02487601496e-07
-4.23352604658e-06
-3.07232777943e-07
-3.92421351157e-06
-3.09329135764e-07
-3.61538111954e-06
-3.08847599182e-07
-3.30947599343e-06
-3.05918676088e-07
-3.00877018809e-06
-3.00716653918e-07
-2.71531678207e-06
-2.9346459927e-07
-2.43101750316e-06
-2.84308372806e-07
-2.15749211174e-06
-2.73534106704e-07
-1.89601899379e-06
-2.61477626687e-07
-1.6473325343e-06
-2.48687144329e-07
-1.41164099053e-06
-2.35684362668e-07
-1.18913103285e-06
-2.22492803075e-07
-9.78282781103e-07
-2.10817774501e-07
-7.79139813032e-07
-1.99088562633e-07
-5.87458902156e-07
-1.91602874166e-07
-4.09977603838e-07
-1.77353145474e-07
-2.38874927777e-07
-1.70937584231e-07
-5.28667792661e-08
-1.85802931778e-07
1.34377850213e-07
-1.87044392663e-07
3.0403338848e-07
-1.69508717544e-07
4.50354555886e-07
-1.46224626473e-07
5.77632275058e-07
-1.2719399314e-07
6.8977929774e-07
-1.12091858282e-07
7.89180012663e-07
-9.93482405611e-08
8.77373406603e-07
-8.81638557889e-08
9.55516742582e-07
-7.81126234357e-08
1.02450055304e-06
-6.89719947398e-08
1.08510119003e-06
-6.05846803293e-08
1.13796196076e-06
-5.28602984349e-08
1.18367924854e-06
-4.5714657669e-08
1.22276643396e-06
-3.90966945878e-08
1.25571688484e-06
-3.29484101785e-08
1.28295861228e-06
-2.72327542551e-08
1.30489874913e-06
-2.19074707077e-08
1.32188651727e-06
-1.69534873381e-08
1.33428031016e-06
-1.2350543704e-08
1.34242637169e-06
-8.11856585213e-09
1.34677088385e-06
-4.31626783786e-09
1.34791324862e-06
-1.13145539317e-09
1.34636808504e-06
1.55830952357e-09
1.34229760856e-06
4.0688010296e-09
1.33582938926e-06
6.47041154979e-09
1.32709014988e-06
8.72845830635e-09
1.31623881302e-06
1.08449908325e-08
1.30340187354e-06
1.28185391906e-08
1.28872138796e-06
1.46658159444e-08
1.27230547163e-06
1.6389184242e-08
1.25427714123e-06
1.80034021153e-08
1.2347302492e-06
1.95091163687e-08
1.21377208196e-06
2.09170106548e-08
1.19149076663e-06
2.22254358093e-08
1.16799075134e-06
2.34408804326e-08
1.14336714883e-06
2.45629363645e-08
1.11772112792e-06
2.55934370007e-08
1.09114702524e-06
2.65295468408e-08
1.06374167693e-06
2.73694424083e-08
1.03560226976e-06
2.81084325366e-08
1.00683337059e-06
2.87433647392e-08
9.77542902717e-07
2.92674237836e-08
9.47852430313e-07
2.96710034462e-08
9.17893614162e-07
2.99400956789e-08
8.87818495293e-07
3.00585802284e-08
8.57806670677e-07
2.99946984593e-08
8.28077729454e-07
2.97132045411e-08
7.98892663256e-07
2.91680748219e-08
7.70583419554e-07
2.82935856468e-08
7.43547554617e-07
2.70189289568e-08
7.18304002666e-07
2.52284288441e-08
6.95434464698e-07
2.28534777174e-08
6.75838446695e-07
1.95824462826e-08
6.60690485263e-07
1.51338198052e-08
6.5120757467e-07
9.47177614347e-09
6.47544875012e-07
3.65113946167e-09
6.4863045197e-07
-1.09397398768e-09
6.53380312369e-07
-4.75881014502e-09
6.60867060455e-07
-7.49259448715e-09
6.70308305917e-07
-9.44780428852e-09
6.81051009803e-07
-1.07462661964e-08
6.92524601714e-07
-1.14780280316e-08
7.04223913762e-07
-1.17009300263e-08
7.15670062224e-07
-1.14488585876e-08
7.26406208425e-07
-1.07363232276e-08
7.35977730367e-07
-9.57309646982e-09
7.43955967749e-07
-7.97769145066e-09
7.49963377447e-07
-6.00860671521e-09
7.53783903941e-07
-3.81993066128e-09
7.55517366875e-07
-1.73484341251e-09
7.55565079295e-07
-4.75346134583e-11
7.53909351842e-07
1.65390733857e-09
7.49727841669e-07
4.18230227721e-09
7.40290210475e-07
9.43918630319e-09
1.83217608781e-09
7.38464437439e-07
-3.38248721823e-08
-1.96128470179e-08
-1.13076054561e-07
5.48826859826e-08
-2.16681109041e-07
1.14641183024e-07
-3.25764655776e-07
1.56875831667e-07
-4.28412592196e-07
1.9476974113e-07
-5.41787212495e-07
2.24299526666e-07
-6.65788934184e-07
2.46760329776e-07
-7.98262199198e-07
2.64487396658e-07
-9.37429699387e-07
2.78712408907e-07
-1.08190450313e-06
2.90179612749e-07
-1.23057766188e-06
2.99400416543e-07
-1.3825409235e-06
3.06755614614e-07
-1.537041256e-06
3.12544338549e-07
-1.69344793443e-06
3.17010008158e-07
-1.85123269971e-06
3.20355066786e-07
-2.00995053224e-06
3.22750087563e-07
-2.16922893095e-06
3.24339823365e-07
-2.32875401008e-06
3.25247829793e-07
-2.48826457353e-06
3.25580186441e-07
-2.64754164037e-06
3.25428911969e-07
-2.80640622552e-06
3.24875010601e-07
-2.9647117116e-06
3.23991481514e-07
-3.1223446554e-06
3.2284578891e-07
-3.27921990866e-06
3.21502146542e-07
-3.4352832805e-06
3.20023071534e-07
-3.59050814367e-06
3.18470429191e-07
-3.74489852704e-06
3.16905461344e-07
-3.8984857575e-06
3.15388214829e-07
-4.05133014283e-06
3.13975865625e-07
-4.20351575649e-06
3.12720525776e-07
-4.35514908869e-06
3.11666167952e-07
-4.50635084959e-06
3.10845430207e-07
-4.65725092246e-06
3.10276020159e-07
-4.80797677805e-06
3.09957565694e-07
-4.95864519967e-06
3.09868666305e-07
-5.10934837403e-06
3.0996502692e-07
-5.26014408469e-06
3.10178215387e-07
-5.41104141484e-06
3.1041590013e-07
-5.56199163708e-06
3.10562914814e-07
-5.71287595458e-06
3.10483947282e-07
-5.86349952074e-06
3.10026975154e-07
-6.01358341208e-06
3.0902808329e-07
-6.16276357705e-06
3.07316534115e-07
-6.31058824405e-06
3.04720542684e-07
-6.4565225004e-06
3.01072899888e-07
-6.599951731e-06
2.96217549215e-07
-6.74019249975e-06
2.90015707175e-07
-6.87650204537e-06
2.82351858728e-07
-7.00809427893e-06
2.73137963746e-07
-7.13415389453e-06
2.6231869228e-07
-7.2538573763e-06
2.49875678103e-07
-7.36639167472e-06
2.35830988655e-07
-7.47097895081e-06
2.20249574734e-07
-7.56689741e-06
2.03239872065e-07
-7.65350495633e-06
1.84950254557e-07
-7.73025481048e-06
1.65561948914e-07
-7.79671085822e-06
1.45280055141e-07
-7.85255113777e-06
1.24322356128e-07
-7.89756866293e-06
1.02905374216e-07
-7.93165634761e-06
8.12316289324e-08
-7.95479288134e-06
5.94744888518e-08
-7.96702113147e-06
3.77647633348e-08
-7.9684405137e-06
1.6193094924e-08
-7.95922474603e-06
-5.17184744416e-09
-7.93971100949e-06
-2.61655129996e-08
-7.91025332936e-06
-4.66786073934e-08
-7.87104875439e-06
-6.68051178169e-08
-7.82220366392e-06
-8.66658515698e-08
-7.76373425303e-06
-1.06430040397e-07
-7.69555054262e-06
-1.26312047785e-07
-7.6174452335e-06
-1.4656683111e-07
-7.52907450058e-06
-1.67482945067e-07
-7.4299493798e-06
-1.89373645428e-07
-7.31942353458e-06
-2.12560217714e-07
-7.19670135971e-06
-2.37347193283e-07
-7.06085196504e-06
-2.63988892593e-07
-6.9108556733e-06
-2.92646629341e-07
-6.74566652563e-06
-3.23335066914e-07
-6.56431694035e-06
-3.55872723697e-07
-6.36602946963e-06
-3.8985287152e-07
-6.15034703802e-06
-4.24639464516e-07
-5.91723631971e-06
-4.5938895859e-07
-5.66717391548e-06
-4.9311448817e-07
-5.4011782608e-06
-5.24767573619e-07
-5.12081481425e-06
-5.53322749912e-07
-4.82812488953e-06
-5.77869316785e-07
-4.5255270675e-06
-5.97695879849e-07
-4.2156962327e-06
-6.12316533793e-07
-3.90146226633e-06
-6.21475240362e-07
-3.58568245587e-06
-6.25122110039e-07