/*--------------------------------*- C++ -*----------------------------------*\
| =========                 |                                                 |
| \\      /  F ield         | OpenFOAM: The Open Source CFD Toolbox           |
|  \\    /   O peration     | Version:  v1806                                 |
|   \\  /    A nd           | Web:      www.OpenFOAM.com                      |
|    \\/     M anipulation  |                                                 |
\*---------------------------------------------------------------------------*/
FoamFile
{
    version     2.0;
    format      ascii;
    class       surfaceScalarField;
    location    "10";
    object      phia;
}
// * * * * * * * * * * * * * * * * * * * * * * * * * * * * * * * * * * * * * //

dimensions      [0 3 -1 0 0 0 0];
oriented        oriented;


internalField   nonuniform List<scalar> 
24170
(
1.72342229362e-07
1.54767766011e-07
2.1723507002e-07
-3.69999655968e-08
1.79967473324e-07
4.13439185967e-08
2.03917405892e-07
-2.26257257436e-08
2.05963490331e-07
-9.28683055864e-10
2.17155778541e-07
-1.04311815225e-08
2.28057767755e-07
-1.02662654955e-08
2.4102794142e-07
-1.21719623422e-08
2.55764590104e-07
-1.39931492132e-08
2.73634214982e-07
-1.60264526383e-08
2.94491244204e-07
-1.86742961988e-08
3.20113286429e-07
-2.16246639003e-08
3.51214637265e-07
-2.66451806133e-08
3.89463545088e-07
-3.2914082474e-08
4.31535311192e-07
-3.71997853519e-08
4.67824218353e-07
-3.22310532938e-08
5.25559863377e-07
-5.49560222323e-08
-4.84645814128e-07
1.01175276362e-06
5.43306712619e-07
-2.33771207544e-08
2.01486929544e-07
3.18475678935e-07
2.8152731367e-07
-3.25450092635e-08
2.77868539175e-07
-1.60573044561e-08
2.94927356761e-07
-1.57627944727e-08
3.1021058711e-07
-2.40151865471e-08
3.28219199206e-07
-2.68595716426e-08
3.48761171946e-07
-3.14747742102e-08
3.72666497028e-07
-3.66564828459e-08
4.00853432249e-07
-4.22479392115e-08
4.33231537252e-07
-4.83001957204e-08
4.71611071407e-07
-5.5633837045e-08
5.15570597277e-07
-6.52375686262e-08
5.63508841988e-07
-7.46650317454e-08
6.09630882886e-07
-7.74942103246e-08
6.54042498681e-07
-7.18106089816e-08
7.47275743198e-07
-1.44816791867e-07
-5.94713308866e-07
8.60075828916e-07
-1.67167029791e-07
5.10754313299e-07
3.5151425175e-07
-1.9840632651e-07
2.78047092493e-07
4.23314742893e-08
2.67002837346e-07
-4.8241756619e-09
2.69610008892e-07
-1.83618482183e-08
2.71661464997e-07
-2.63443606869e-08
2.76972954866e-07
-3.25945481854e-08
2.84164043044e-07
-3.89533698685e-08
2.9363300911e-07
-4.634323596e-08
3.05996883355e-07
-5.41817433198e-08
3.22155891872e-07
-6.37467166083e-08
3.43906190446e-07
-7.58833961591e-08
3.70736518039e-07
-9.04147340809e-08
4.01983672e-07
-1.04019506023e-07
4.38103842844e-07
-1.11936638227e-07
4.95098206106e-07
-1.2737921206e-07
6.03868210022e-07
-2.52455146872e-07
-6.21833894338e-07
6.32160538671e-07
6.85677854364e-07
2.29549454662e-07
3.21357956273e-07
1.7352446665e-07
3.23934591089e-07
4.4111824921e-08
3.34054518442e-07
-1.27459964754e-08
3.374623016e-07
-2.0552976329e-08
3.45007179551e-07
-3.34243355383e-08
3.53559086925e-07
-4.11588019063e-08
3.63253808527e-07
-4.88989080279e-08
3.73898337183e-07
-5.71751586572e-08
3.86028205623e-07
-6.60252525953e-08
4.00048403976e-07
-7.68378156562e-08
4.16469424697e-07
-9.05121396981e-08
4.34581661044e-07
-1.06184664474e-07
4.54017580053e-07
-1.20791886784e-07
4.78704237582e-07
-1.3408092994e-07
5.25228486759e-07
-1.71691641884e-07
5.90302488453e-07
-3.15699476572e-07
-5.85116051673e-07
5.5550833374e-07
1.92763276755e-07
4.53850028827e-07
3.67735580584e-07
-3.01816217677e-09
3.50736667868e-07
6.05253785974e-08
3.49006568125e-07
-1.16269721775e-08
3.51475774524e-07
-2.3721981456e-08
3.56077811808e-07
-3.88170644694e-08
3.63053029648e-07
-4.90369086517e-08
3.7233880602e-07
-5.89109139613e-08
3.83964977113e-07
-6.93804606297e-08
3.98313401237e-07
-8.0538539138e-08
4.15369963022e-07
-9.38241744686e-08
4.34706452653e-07
-1.09468566727e-07
4.55212824148e-07
-1.26273736817e-07
4.77153111009e-07
-1.4226375189e-07
5.05729738538e-07
-1.62212301598e-07
5.49542432573e-07
-2.15005097814e-07
5.84149608116e-07
-3.49682159647e-07
-5.34530382322e-07
5.3430659835e-07
4.42977069401e-07
4.64398115317e-07
3.98553459597e-07
4.39290589206e-08
4.0322236697e-07
5.80262039949e-08
4.00023765262e-07
-7.08413699526e-09
4.00844035422e-07
-2.38786504257e-08
4.03337464889e-07
-4.13010881228e-08
4.08141187657e-07
-5.41679787435e-08
4.15113792896e-07
-6.64004418416e-08
4.24329996495e-07
-7.8973990136e-08
4.36044473841e-07
-9.23882658284e-08
4.50173208164e-07
-1.07711401566e-07
4.66159743632e-07
-1.24915680892e-07
4.83424161764e-07
-1.42820812276e-07
5.03379994541e-07
-1.61442815245e-07
5.30719753425e-07
-1.88759680908e-07
5.65354513161e-07
-2.48847516769e-07
5.78639883358e-07
-3.62123290552e-07
-4.86887434873e-07
5.32215615894e-07
4.34485640979e-07
5.08236988537e-07
4.4073446583e-07
3.42675417425e-08
4.45055391637e-07
5.17819370042e-08
4.4272193363e-07
-6.07938380247e-09
4.43397648783e-07
-2.56007916897e-08
4.4561163252e-07
-4.45147497508e-08
4.49925743814e-07
-5.934914959e-08
4.56270654971e-07
-7.34626019563e-08
4.64657378858e-07
-8.78282614899e-08
4.75153292997e-07
-1.03149276675e-07
4.87486832768e-07
-1.20149179972e-07
5.01108711419e-07
-1.38585102318e-07
5.15932701014e-07
-1.57715747864e-07
5.33720584384e-07
-1.79308238757e-07
5.56969049607e-07
-2.1202628753e-07
5.79969668284e-07
-2.71713679462e-07
5.79493912335e-07
-3.61219664902e-07
-4.46572649887e-07
5.39358873637e-07
4.88937675986e-07
5.35936211651e-07
4.85175769365e-07
3.75038469983e-08
4.91962299982e-07
4.53545235017e-08
4.89759138994e-07
-3.31222862725e-09
4.90101137791e-07
-2.561537363e-08
4.91677327913e-07
-4.59823753549e-08
4.95193769598e-07
-6.29660607874e-08
5.00615870948e-07
-7.89655283243e-08
5.07886200481e-07
-9.51384382282e-08
5.16925159058e-07
-1.12069315567e-07
5.27328553037e-07
-1.30356301241e-07
5.38670644605e-07
-1.49696281944e-07
5.51202285722e-07
-1.70057592529e-07
5.66267965707e-07
-1.94201361644e-07
5.83859896855e-07
-2.29424538175e-07
5.96252268241e-07
-2.83811267253e-07
5.8769509156e-07
-3.52433199984e-07
-4.11373301738e-07
5.53203924607e-07
5.39800973833e-07
5.4591262316e-07
5.34489448497e-07
3.89173158107e-08
5.4099150936e-07
3.62044420397e-08
5.39344995772e-07
-3.39310383158e-09
5.39548536461e-07
-2.70467943929e-08
5.4067728554e-07
-4.80342603422e-08
5.434974461e-07
-6.64645332077e-08
5.47966830264e-07
-8.38880097416e-08
5.54015047682e-07
-1.01428530909e-07
5.6143045696e-07
-1.19594258528e-07
5.69804579124e-07
-1.38747634025e-07
5.78847657641e-07
-1.58773200103e-07
5.8891645046e-07
-1.80193962705e-07
6.00519470025e-07
-2.05882560772e-07
6.11881882247e-07
-2.40808489438e-07
6.15725863063e-07
-2.87589146914e-07
6.02867847047e-07
-3.39158980665e-07
-3.81005730356e-07
5.72409895682e-07
5.93431281711e-07
5.45634705183e-07
5.86905621882e-07
4.4134405662e-08
5.92887894006e-07
2.98934362176e-08
5.9152046305e-07
-1.84892273301e-09
5.91689819615e-07
-2.68435174955e-08
5.92447546974e-07
-4.84641320827e-08
5.94611432215e-07
-6.82709066476e-08
5.98101550232e-07
-8.70407592504e-08
6.02829185857e-07
-1.05735328451e-07
6.08531618072e-07
-1.24802987813e-07
6.14813531332e-07
-1.44557826604e-07
6.21481422978e-07
-1.65108929377e-07
6.28782730987e-07
-1.87184295479e-07
6.36375697767e-07
-2.13247180227e-07
6.41716572209e-07
-2.4588483756e-07
6.39189652443e-07
-2.84745038089e-07
6.23743805779e-07
-3.23601522433e-07
-3.5312432349e-07
5.96510955491e-07
6.49600947006e-07
5.28558225283e-07
6.41606042752e-07
4.81662082751e-08
6.47043809358e-07
2.17217216052e-08
6.45753406758e-07
-2.26734717342e-09
6.45872922967e-07
-2.80451245655e-08
6.46321145178e-07
-4.95013005402e-08
6.47832507712e-07
-7.01059676473e-08
6.50347474139e-07
-8.95806853494e-08
6.53722587077e-07
-1.08946737883e-07
6.57709214355e-07
-1.28477261289e-07
6.61910939407e-07
-1.48471715443e-07
6.66177565688e-07
-1.68999339087e-07
6.70487834296e-07
-1.91237918615e-07
6.73965833949e-07
-2.16401022716e-07
6.74028974652e-07
-2.45666386717e-07
6.66815851253e-07
-2.77206955169e-07
6.50112834439e-07
-3.06286715856e-07
-3.27858429436e-07
6.24942661657e-07
5.90956211646e-07
5.0979309739e-07
5.85029084414e-07
5.20146639308e-08
5.87991395577e-07
1.72049506111e-08
5.87251436534e-07
-2.34231655475e-09
5.87238582633e-07
-2.85198376178e-08
5.87427566993e-07
-4.98151556054e-08
5.88230693457e-07
-7.09257366718e-08
5.89631816062e-07
-9.07944360464e-08
5.91472470071e-07
-1.10551970763e-07
5.93563236085e-07
-1.30224710642e-07
5.95602470773e-07
-1.50030985162e-07
5.97276644642e-07
-1.70885266196e-07
5.98648973519e-07
-1.92479722728e-07
5.9857575236e-07
-2.16494112315e-07
5.95365618021e-07
-2.42376904763e-07
5.86816155497e-07
-2.68650736566e-07
5.71998628825e-07
-2.9163714417e-07
-3.07786067286e-07
5.52197654833e-07
7.22971371846e-07
4.82504158821e-07
7.18587155475e-07
5.35212494587e-08
7.19719801477e-07
1.42450373913e-08
7.19280938059e-07
-3.217989114e-09
7.19205903507e-07
-2.90554133292e-08
7.19314649266e-07
-5.02933411644e-08
7.19859115563e-07
-7.14203977665e-08
7.20748838478e-07
-9.15439838839e-08
7.21869065382e-07
-1.11266107039e-07
7.23036727395e-07
-1.30772069527e-07
7.23535261142e-07
-1.50874595416e-07
7.23645758216e-07
-1.70895975749e-07
7.2255761764e-07
-1.91892727132e-07
7.19590850685e-07
-2.13673577448e-07
7.12828615456e-07
-2.3606319994e-07
7.01016788925e-07
-2.57156907193e-07
6.83813671523e-07
-2.7458181181e-07
-2.86440158097e-07
6.62266399638e-07
8.82043442209e-07
4.5158550068e-07
8.79213410033e-07
5.44961833484e-08
8.78523190792e-07
1.21591725947e-08
8.78252432576e-07
-4.51803123226e-09
8.77881915113e-07
-3.032425341e-08
8.77814951662e-07
-5.08952407199e-08
8.77762190697e-07
-7.21164332181e-08
8.77896644093e-07
-9.1750895175e-08
8.77913236706e-07
-1.11319945289e-07
8.77298278489e-07
-1.30584930259e-07
8.76005430864e-07
-1.49791819095e-07
8.73444450887e-07
-1.69013303034e-07
8.69398076305e-07
-1.88310904512e-07
8.62678078524e-07
-2.07454169054e-07
8.52145360879e-07
-2.25966989796e-07
8.36958004244e-07
-2.42344134067e-07
8.17211720059e-07
-2.55274431457e-07
-2.63436919272e-07
7.9400726233e-07
1.07502713835e-06
4.142427073e-07
1.07322376479e-06
5.26256152052e-08
1.07168776379e-06
1.15720604425e-08
1.07094377342e-06
-6.75853505414e-09
1.07029747414e-06
-3.1337257442e-08
1.06933992305e-06
-5.20032547826e-08
1.06852380014e-06
-7.21953177835e-08
1.06706942241e-06
-9.15754378935e-08
1.06523172335e-06
-1.10167039651e-07
1.0622178439e-06
-1.28536042896e-07
1.05803637563e-06
-1.46385010108e-07
1.05204282737e-06
-1.64001676882e-07
1.04426145859e-06
-1.80738468324e-07
1.0332075594e-06
-1.96954333968e-07
1.01868869865e-06
-2.1152924242e-07
9.99910166035e-07
-2.2395841444e-07
9.77674866149e-07
-2.33053310813e-07
-2.38507548932e-07
9.52646713054e-07
1.30591273462e-06
3.71293759698e-07
1.30696293803e-06
4.85006713748e-08
1.30450728316e-06
9.73314994408e-09
1.30392340136e-06
-9.09523220035e-09
1.30222294762e-06
-3.26070778294e-08
1.30056358677e-06
-5.2215965365e-08
1.29782102321e-06
-7.15398594808e-08
1.29457938675e-06
-8.95029680471e-08
1.28977618169e-06
-1.06908113277e-07
1.28379234535e-06
-1.23482677304e-07
1.27559942002e-06
-1.39498912526e-07
1.26596697987e-06
-1.5449257774e-07
1.25330839364e-06
-1.686821232e-07
1.23811831772e-06
-1.8150635981e-07
1.21909754357e-06
-1.92769515929e-07
1.19717380827e-06
-2.01712111227e-07
1.17206431213e-06
-2.08058038922e-07
-2.1142680773e-07
1.14532040935e-06
1.58362740371e-06
3.28312911749e-07
1.5857671118e-06
4.02321124438e-08
1.58430374368e-06
6.67634458074e-09
1.5832315982e-06
-1.16478238213e-08
1.58067818459e-06
-3.28596530075e-08
1.57728083408e-06
-5.09840826677e-08
1.57241434573e-06
-6.84147473552e-08
1.56607958604e-06
-8.45947986047e-08
1.55789360533e-06
-9.99385155534e-08
1.54772136657e-06
-1.14326444445e-07
1.53544937152e-06
-1.2783004437e-07
1.52080818393e-06
-1.4027540243e-07
1.50360165596e-06
-1.51559497577e-07
1.4834806113e-06
-1.61461054099e-07
1.46057635618e-06
-1.69725002588e-07
1.43498982109e-06
-1.7606566505e-07
1.40745612076e-06
-1.80285464239e-07
-1.82297819833e-07
1.37837977247e-06
1.91476916853e-06
2.88891116541e-07
1.91963297261e-06
2.89270827299e-08
1.91780694884e-06
3.47602811147e-09
1.91636590988e-06
-1.39699126093e-08
1.9124620264e-06
-3.1551461611e-08
1.90684503899e-06
-4.74124771961e-08
1.89915075552e-06
-6.21646930961e-08
1.88910209889e-06
-7.58668718712e-08
1.87693479997e-06
-8.86059433099e-08
1.86210813256e-06
-1.00404905836e-07
1.84514486312e-06
-1.11242264903e-07
1.82535704992e-06
-1.21007360212e-07
1.80334098989e-06
-1.296034007e-07
1.77848445166e-06
-1.36910718087e-07
1.75164023308e-06
-1.42812427052e-07
1.72251223308e-06
-1.47188774362e-07
1.69232848372e-06
-1.49978570023e-07
-1.51151592564e-07
1.66081873883e-06
2.31759224694e-06
2.58270293679e-07
2.32635880735e-06
1.2981077271e-08
2.3227576061e-06
3.98405066379e-10
2.32049451758e-06
-1.57342249238e-08
2.31418518017e-06
-2.86723435773e-08
2.30553493997e-06
-4.10703624697e-08
2.29402990419e-06
-5.25714406986e-08
2.27940944307e-06
-6.28370773116e-08
2.26236760754e-06
-7.2743006916e-08
2.24224470064e-06
-8.13827017294e-08
2.2200112465e-06
-8.95323545781e-08
2.19470928011e-06
-9.64705616721e-08
2.16762134642e-06
-1.02650638702e-07
2.13778928786e-06
-1.07598737585e-07
2.10667984426e-06
-1.11653464723e-07
2.07352390309e-06
-1.14441764478e-07
2.0400575759e-06
-1.16262912182e-07
-1.16828097934e-07
2.0052972216e-06
1.69704981866e-06
2.33276241435e-07
1.69855630795e-06
1.16735575272e-09
1.69696424287e-06
-4.31736212897e-09
1.69255864446e-06
-1.80730947452e-08
1.68818055659e-06
-2.62942542049e-08
1.67940584239e-06
-3.64987400291e-08
1.67083238914e-06
-4.44520428739e-08
1.65771306313e-06
-5.31745298604e-08
1.645311903e-06
-6.01301806452e-08
1.62884372274e-06
-6.73726512632e-08
1.61290196405e-06
-7.31651984419e-08
1.59353253125e-06
-7.88376120314e-08
1.5745565147e-06
-8.32070293189e-08
1.55271466362e-06
-8.72308680903e-08
1.531533736e-06
-9.00010046434e-08
1.50804203476e-06
-9.23165428766e-08
1.4857583558e-06
-9.33987349688e-08
-9.40293893705e-08
1.46182490533e-06
1.48301556553e-06
2.05435133282e-07
1.48324883692e-06
-8.18961361855e-09
1.48089381319e-06
-9.08156862555e-09
1.4769136673e-06
-2.03180576339e-08
1.47101262305e-06
-2.54620735172e-08
1.46396221102e-06
-3.20856994299e-08
1.45389101217e-06
-3.82067091956e-08
1.4435050126e-06
-4.38193275092e-08
1.43043426966e-06
-4.9548704165e-08
1.41722759511e-06
-5.44582289972e-08
1.40173283189e-06
-5.91944431047e-08
1.38607119905e-06
-6.31727684874e-08
1.36845318778e-06
-6.67912462019e-08
1.3510034828e-06
-6.96508487734e-08
1.33186756074e-06
-7.20165683777e-08
1.31346508236e-06
-7.34956942153e-08
1.29353126624e-06
-7.44904200301e-08
-7.44078956721e-08
1.27468792912e-06
1.29049385757e-06
1.7143183423e-07
1.29798687487e-06
-2.83443870544e-08
1.29445914898e-06
-1.84270488174e-08
1.29181091821e-06
-2.35817930073e-08
1.28618554488e-06
-2.44362349931e-08
1.27887720233e-06
-2.84915738713e-08
1.27005793764e-06
-3.2105054964e-08
1.25989384202e-06
-3.61674096619e-08
1.24876352403e-06
-3.99518354448e-08
1.23663414671e-06
-4.34975095079e-08
1.22345951116e-06
-4.69274927326e-08
1.20947907698e-06
-4.99346230459e-08
1.19460137899e-06
-5.28083527994e-08
1.17939165092e-06
-5.49758067438e-08
1.16374579666e-06
-5.68636086292e-08
1.14784066129e-06
-5.8014502506e-08
1.13215571736e-06
-5.87967507772e-08
-5.98974276614e-08
1.11721323256e-06
1.16021702118e-06
1.18029037906e-07
1.13432550143e-06
-8.91302900218e-09
1.13426780777e-06
-2.15336342088e-08
1.13037631399e-06
-2.6515620227e-08
1.12481630337e-06
-2.33627295644e-08
1.11777476994e-06
-2.51067701767e-08
1.10961508415e-06
-2.641027871e-08
1.100396953e-06
-2.88663719481e-08
1.09052420386e-06
-3.12327047483e-08
1.07949461907e-06
-3.3852828725e-08
1.06800694249e-06
-3.61520617382e-08
1.05538213854e-06
-3.86284373643e-08
1.04277217226e-06
-4.05592794516e-08
1.02917544762e-06
-4.25423134369e-08
1.01602366432e-06
-4.37700416034e-08
1.00211407645e-06
-4.47197275137e-08
9.88242951899e-07
-4.48009200446e-08
-4.1031127508e-08
9.68810935685e-07
8.79796519992e-07
1.87519628075e-07
1.00327304209e-06
-1.41918257048e-07
1.00181257026e-06
-3.02596330251e-08
9.9906776714e-07
-2.71405915428e-08
9.93111264698e-07
-2.00969323293e-08
9.8638946788e-07
-2.05475572475e-08
9.78637441413e-07
-2.03901498944e-08
9.70447483503e-07
-2.1653037803e-08
9.61592581855e-07
-2.33030514049e-08
9.52354501958e-07
-2.51183361757e-08
9.42309231008e-07
-2.72257030425e-08
9.31962319117e-07
-2.90613128125e-08
9.21078564341e-07
-3.10019564647e-08
9.10393235121e-07
-3.23429367206e-08
8.99649149994e-07
-3.3522667153e-08
8.88915665655e-07
-3.42273510357e-08
8.78811488506e-07
-3.47179509965e-08
-4.47402008449e-08
8.8244470361e-07
1.20776146968e-06
-1.70951833055e-07
8.57644904752e-07
2.11274719954e-07
8.63752290497e-07
-3.49546883893e-08
8.6138734494e-07
-2.76349643684e-08
8.5498581826e-07
-1.70741561084e-08
8.48401335579e-07
-1.57717028557e-08
8.41087339385e-07
-1.44575636714e-08
8.33358130659e-07
-1.51691878375e-08
8.25211063342e-07
-1.61129616948e-08
8.1621284205e-07
-1.75035384903e-08
8.06747166789e-07
-1.87656730775e-08
7.96753260201e-07
-2.03727379718e-08
7.86664125221e-07
-2.14342620353e-08
7.76086928651e-07
-2.25425186682e-08
7.65371122941e-07
-2.33425503888e-08
7.55263831408e-07
-2.42070116581e-08
7.45595118055e-07
-2.56740464993e-08
-8.73833538804e-09
7.0937276417e-07
-7.28987427554e-08
6.37978928168e-07
8.22091609196e-07
-6.80787838936e-07
7.9947056586e-07
-1.37606769346e-08
7.88712424825e-07
-1.76468945727e-08
7.83694145884e-07
-1.24908962228e-08
7.78508216026e-07
-1.21452903821e-08
7.73124770856e-07
-1.05545845453e-08
7.67563188214e-07
-1.07783967157e-08
7.61703312236e-07
-1.13895564675e-08
7.55603848256e-07
-1.2324997623e-08
7.48891019375e-07
-1.34265696834e-08
7.41850544353e-07
-1.42606636478e-08
7.34024832803e-07
-1.48798406516e-08
7.25982156181e-07
-1.52887794552e-08
7.17730579788e-07
-1.57285315605e-08
7.07720542574e-07
-1.50948197295e-08
6.92541662328e-07
-1.04934724599e-08
-2.40177462951e-08
7.07101149128e-07
2.05666925501e-06
-7.66849036928e-07
6.24374783507e-07
7.60808313864e-07
6.34035202532e-07
-1.92306515915e-08
6.59515587055e-07
-3.91930081456e-08
6.47471068856e-07
-4.44593461347e-09
6.40853907135e-07
-6.69099797001e-09
6.32770728666e-07
-4.08735122535e-09
6.2453264434e-07
-4.26366834846e-09
6.1615110292e-07
-4.52636184532e-09
6.07675190775e-07
-5.36604252115e-09
5.99082290254e-07
-6.45756682202e-09
5.9134178293e-07
-7.61794075858e-09
5.84384830823e-07
-8.80953355526e-09
5.78202571947e-07
-1.02120403827e-08
5.73367076878e-07
-1.19827134046e-08
5.72793110935e-07
-1.53071191024e-08
5.85429953228e-07
-2.43912220902e-08
-1.85569671354e-08
5.79571785629e-07
-8.34260110074e-07
6.43876457882e-07
7.68090988015e-07
-8.28583850322e-07
6.28769830562e-07
1.27086556371e-07
6.04688045914e-07
-1.00481975796e-08
6.01691006753e-07
-3.03151860069e-09
5.96898687126e-07
-3.68539162997e-09
5.93988078068e-07
-3.17850119836e-09
5.90086406836e-07
-2.54772442169e-09
5.85934314215e-07
-2.32268092989e-09
5.80935439802e-07
-2.20189158533e-09
5.74868631324e-07
-2.21675999075e-09
5.68178493406e-07
-2.43181387121e-09
5.60541928844e-07
-2.58363078399e-09
5.5148409261e-07
-2.63591606994e-09
5.41222254579e-07
-3.14561871963e-09
5.28109398895e-07
-3.6801955879e-09
5.01949604596e-07
9.73419970483e-10
-1.41474186474e-08
4.96194983357e-07
1.2653986124e-06
-1.14126443338e-07
3.69711060268e-07
8.22513741898e-08
5.77442468615e-07
-7.17720744696e-08
5.4823446702e-07
2.52473710175e-08
5.53275137537e-07
-9.37376280558e-09
5.47953861524e-07
-3.76456894693e-10
5.4470565488e-07
-2.2759797669e-09
5.41107986989e-07
-1.48913664046e-09
5.37624332555e-07
-1.15740939634e-09
5.34088703606e-07
-9.50550272181e-10
5.30342223865e-07
-8.11913071893e-10
5.26728583931e-07
-7.62298675982e-10
5.23237755739e-07
-8.65677831164e-10
5.19478666177e-07
-6.66709531901e-10
5.14661562074e-07
-9.41697033215e-11
5.10341805754e-07
-8.93673738446e-10
5.17120878196e-07
-7.46977718098e-09
1.133706878e-08
4.90245653652e-07
3.07336549804e-07
3.9032093119e-07
3.19166947159e-07
3.44298540311e-07
3.34720350288e-07
3.34085680607e-07
3.31499018121e-07
3.29702817374e-07
3.2822637016e-07
3.2690887102e-07
3.25770473132e-07
3.24698443e-07
3.23493680736e-07
3.22469279797e-07
3.22019419847e-07
3.20751374743e-07
3.12906524428e-07
3.23821653706e-07
-6.76902512913e-08
4.16878419014e-08
-9.59094477294e-08
-6.59496956778e-09
-8.93597547447e-08
-2.36179687109e-08
-1.4356810835e-07
3.36097798284e-08
-1.99820593497e-07
5.15696793343e-08
-2.21411912937e-07
1.8954955549e-08
-2.21974877138e-07
5.64426051684e-10
-2.10857728519e-07
-9.7396747156e-09
-1.96590315082e-07
-1.49513526238e-08
-1.78890940007e-07
-1.66363772821e-08
-1.64468511253e-07
-1.61159863706e-08
-1.503315435e-07
-1.42211954128e-08
-1.40830837659e-07
-1.18198279412e-08
-1.32545820487e-07
-9.29146408544e-09
-1.27987890285e-07
-7.07484614171e-09
-1.24297676138e-07
-5.23599581354e-09
-1.22839770563e-07
-3.92856879135e-09
-1.21580614039e-07
-3.06848815894e-09
-1.21216380132e-07
-2.67905858561e-09
-1.20586683639e-07
-2.64269364599e-09
-1.1987253572e-07
-2.90821357652e-09
-1.18608592662e-07
-3.39604847816e-09
-1.16735738684e-07
-4.04501577613e-09
-1.1417495665e-07
-4.78887665811e-09
-1.10661500307e-07
-5.58389494646e-09
-1.06489230593e-07
-6.41309983634e-09
-1.01238331989e-07
-7.21506158722e-09
-9.53710245805e-08
-8.00362579698e-09
-8.84257607191e-08
-8.73187796432e-09
-8.09568094491e-08
-9.4270679327e-09
-7.24809973258e-08
-1.00398784798e-08
-6.35871316026e-08
-1.06119915825e-08
-5.38427817073e-08
-1.11086726278e-08
-4.3801960973e-08
-1.15570201095e-08
-3.30140708964e-08
-1.19198731835e-08
-2.2084066058e-08
-1.22521018367e-08
-1.0590750845e-08
-1.25039446228e-08
9.67815038287e-10
-1.27144598771e-08
1.29615735678e-08
-1.28564014713e-08
2.49171728735e-08
-1.29687296139e-08
3.72119210732e-08
-1.30174842095e-08
4.93843729257e-08
-1.30467792858e-08
6.1822694149e-08
-1.30211191592e-08
7.40585729974e-08
-1.29877483607e-08
8.65179849843e-08
-1.29069824031e-08
9.86935760117e-08
-1.28316258342e-08
1.1106558789e-07
-1.27132622445e-08
1.23082298387e-07
-1.26114814363e-08
1.35293037265e-07
-1.246589993e-08
1.47117706722e-07
-1.23494523862e-08
1.59118200201e-07
-1.21935645192e-08
1.70761943945e-07
-1.20670503991e-08
1.82561249818e-07
-1.19040336113e-08
1.94086047486e-07
-1.17691775623e-08
2.05735022785e-07
-1.16044903765e-08
2.17190459484e-07
-1.14718654294e-08
2.28681042503e-07
-1.13359312099e-08
2.40087956581e-07
-1.12320418351e-08
2.51443293837e-07
-1.11486791494e-08
2.62810402376e-07
-1.10777877327e-08
2.73989573358e-07
-1.1013502283e-08
2.8502541033e-07
-1.07932910918e-08
2.95134351038e-07
-1.00757244713e-08
3.04073638792e-07
-8.86778545018e-09
3.12175864636e-07
-8.27405964113e-09
3.19934653915e-07
-7.90437428623e-09
3.27358435505e-07
-7.7448601546e-09
3.3475310502e-07
-7.75529547525e-09
3.42264208132e-07
-7.93643399206e-09
3.50016935126e-07
-8.27056383567e-09
3.58276455716e-07
-8.71770778509e-09
3.67049865946e-07
-9.30307216656e-09
3.76591892705e-07
-9.97617337778e-09
3.86938284955e-07
-1.0765454491e-08
3.98260131229e-07
-1.16565015106e-08
4.10677538628e-07
-1.26860944141e-08
4.24203302748e-07
-1.38580368516e-08
4.39127245463e-07
-1.51819463918e-08
4.55293853078e-07
-1.67217327529e-08
4.73257557697e-07
-1.84017415284e-08
4.92692033754e-07
-2.03346607493e-08
5.14259769521e-07
-2.24049825261e-08
5.37417738861e-07
-2.47648847856e-08
5.63160648321e-07
-2.72036937662e-08
5.90623307114e-07
-2.99941466127e-08
6.20751064768e-07
-3.2876031238e-08
6.52692411705e-07
-3.61832077487e-08
6.86227584701e-07
-3.99080948652e-08
7.21689492662e-07
-4.31193978555e-08
7.54853596858e-07
-4.81077712939e-08
7.89128555046e-07
-5.17714149732e-08
8.23187124511e-07
-5.61095368477e-08
8.58781829824e-07
-5.94887930925e-08
8.93849559657e-07
-6.26418225523e-08
9.30061139163e-07
-6.47511236901e-08
9.65731114815e-07
-6.7454092675e-08
1.00250600854e-06
-6.87664470775e-08
1.03213402592e-06
-6.44457945189e-08
1.04897857384e-06
-5.1545879043e-08
1.05878831677e-06
-4.74522599179e-08
1.07666555421e-06
-5.55584146158e-08
1.09089847403e-06
-5.49498271755e-08
1.10657065281e-06
-5.91802010814e-08
1.12384065513e-06
-6.952690944e-08
1.13056398086e-06
-6.38739183664e-08
1.02199502014e-06
4.65590139194e-08
8.18140871302e-07
1.4796432951e-07
6.50250668087e-07
1.31933973533e-07
5.50039642005e-07
7.64433762097e-08
4.91542831801e-07
4.08123403388e-08
4.56952091092e-07
2.14712845235e-08
4.34596850514e-07
1.17845547571e-08
4.19377598685e-07
7.11678610032e-09
4.07823310128e-07
4.64048956004e-09
3.98861543145e-07
3.49773150695e-09
3.91214851993e-07
2.68191410661e-09
3.84845912655e-07
2.29226863371e-09
3.79082013146e-07
1.81285018941e-09
3.74162574568e-07
1.52485499424e-09
3.69503668377e-07
1.08673265087e-09
3.65262408608e-07
8.3669317449e-10
3.60923476724e-07
4.91130438845e-10
3.56848510722e-07
3.27063069977e-10
3.52784184535e-07
1.6044857139e-10
3.49027769775e-07
2.17711313765e-10
3.45186283642e-07
2.72397337801e-10
3.41524845065e-07
4.3308581828e-10
3.37374064059e-07
7.99519429588e-10
3.33039155618e-07
1.21484306656e-09
3.28318309714e-07
1.37996748259e-09
3.23724264347e-07
1.40212720077e-09
3.18880526651e-07
1.3661553231e-09
3.14040166059e-07
1.46462534429e-09
3.08878046209e-07
1.46993024591e-09
3.03677918245e-07
1.57431563731e-09
2.98142879292e-07
1.55763234583e-09
2.92568300137e-07
1.60207834955e-09
2.86759870325e-07
1.45583897061e-09
2.81074845821e-07
1.35663708362e-09
2.7525872185e-07
9.5030395622e-10
2.69645501852e-07
6.08111975422e-10
2.63626521653e-07
-1.34783733988e-10
2.57684198613e-07
-8.05528865232e-10
2.51445416383e-07
-1.90420332924e-09
2.45678153802e-07
-2.91841734624e-09
2.39980354145e-07
-4.2994539464e-09
2.35090947189e-07
-5.45236671041e-09
2.30486406059e-07
-6.99198024727e-09
2.27035951515e-07
-8.34293792396e-09
2.24114624376e-07
-1.0119341221e-08
2.22414393618e-07
-1.14085078059e-08
2.2080235992e-07
-1.27432176658e-08
2.19869757853e-07
-1.33482948573e-08
2.18488796793e-07
-1.41277846204e-08
2.17620151807e-07
-1.43891897537e-08
2.1612127552e-07
-1.49213621592e-08
2.15145272069e-07
-1.49348600712e-08
2.13804035776e-07
-1.55466070364e-08
2.13290158117e-07
-1.54922546043e-08
2.12411762089e-07
-1.58083392411e-08
2.13030088224e-07
-1.59745523169e-08
2.13562872202e-07
-1.62813673171e-08
2.15668411245e-07
-1.62673525071e-08
2.1817792512e-07
-1.68861322733e-08
2.22825048592e-07
-1.72593691964e-08
2.28350759815e-07
-1.8213167026e-08
2.36381544944e-07
-1.885148027e-08
2.45368687504e-07
-1.97810527956e-08
2.56624195705e-07
-2.01890704121e-08
2.68635128333e-07
-2.09161708137e-08
2.82613218692e-07
-2.12242928489e-08
2.97016685407e-07
-2.18367387474e-08
3.1216400716e-07
-2.13462629685e-08
3.26770699166e-07
-2.14658428215e-08
3.39845072319e-07
-1.91690967481e-08
3.48683909348e-07
-1.61819454511e-08
3.52035376171e-07
-1.00489513436e-08
3.42192703745e-07
1.59366738499e-09
3.13943817024e-07
2.04127365942e-08
2.99011380981e-08
2.7573773446e-07
-8.73819711885e-08
1.09813384514e-07
-1.68030602107e-07
5.95571669988e-08
-2.04063243998e-07
7.61374697585e-09
-1.521041259e-07
-2.16085218323e-08
-6.75440169063e-08
-3.30566509959e-08
-1.20870277991e-08
-3.6057606674e-08
2.42067210158e-08
-3.50388094044e-08
4.78229381505e-08
-3.21621514583e-08
6.14345001737e-08
-2.84326439664e-08
6.9913547412e-08
-2.45119658017e-08
7.38549830557e-08
-2.0796012488e-08
7.69840270898e-08
-1.75824511598e-08
7.88548249299e-08
-1.50428578637e-08
8.1891086895e-08
-1.32195805503e-08
8.52491413125e-08
-1.21031678963e-08
9.03069722543e-08
-1.15954235945e-08
9.62196168763e-08
-1.16101815446e-08
1.03632863172e-07
-1.20210728596e-08
1.11900600771e-07
-1.27281617864e-08
1.21248266116e-07
-1.36256498313e-08
1.31222810963e-07
-1.4654119083e-08
1.41798847168e-07
-1.57244173684e-08
1.52804222263e-07
-1.67935538076e-08
1.64022924755e-07
-1.78266812376e-08
1.75482226342e-07
-1.87866722007e-08
1.86934771112e-07
-1.96559255919e-08
1.98489894493e-07
-2.04260479562e-08
2.09858636925e-07
-2.10957075405e-08
2.21251867577e-07
-2.16528664705e-08
2.3237114889e-07
-2.21130858664e-08
2.43440414098e-07
-2.24722767127e-08
2.54145207267e-07
-2.27516865684e-08
2.64773908188e-07
-2.29312977751e-08
2.75022868386e-07
-2.30519666443e-08
2.85140101224e-07
-2.31013612711e-08
2.94880001435e-07
-2.30993383956e-08
3.04494221607e-07
-2.30432170421e-08
3.1374636271e-07
-2.29603746389e-08
3.22904629781e-07
-2.28332914179e-08
3.31761455573e-07
-2.26900934738e-08
3.40566823131e-07
-2.25195844605e-08
3.49126360927e-07
-2.23443474063e-08
3.57685054205e-07
-2.21516783901e-08
3.66039148386e-07
-2.19625358451e-08
3.74440592411e-07
-2.17607467701e-08
3.8265676452e-07
-2.15675710881e-08
3.90949134387e-07
-2.13610633158e-08
3.9905986339e-07
-2.11624360696e-08
4.07259016931e-07
-2.09473065509e-08
4.15276917964e-07
-2.07348685086e-08
4.23374223692e-07
-2.04964658572e-08
4.31292973887e-07
-2.02629711512e-08
4.39271876552e-07
-2.00018286332e-08
4.4712023023e-07
-1.97383840001e-08
4.54988260092e-07
-1.94532566014e-08
4.62723431649e-07
-1.91658014779e-08
4.70380863794e-07
-1.88571398298e-08
4.77863242313e-07
-1.85379306341e-08
4.85112365568e-07
-1.8195503409e-08
4.92087280727e-07
-1.78222470847e-08
4.98663942101e-07
-1.74005276133e-08
5.05012954474e-07
-1.69540865241e-08
5.11659628087e-07
-1.66598312826e-08
5.18443329109e-07
-1.56105668717e-08
5.24187057187e-07
-1.41050669133e-08
5.28813100253e-07
-1.26744938089e-08
5.32134688871e-07
-1.13087676778e-08
5.34105762531e-07
-1.00277009141e-08
5.34700089949e-07
-8.89025367848e-09
5.33956146119e-07
-7.92541649269e-09
5.31995604629e-07
-7.17212681513e-09
5.28933061183e-07
-6.64264976506e-09
5.24955054371e-07
-6.36023484536e-09
5.20220844248e-07
-6.34680890373e-09
5.14895334728e-07
-6.61979158418e-09
5.0920664286e-07
-7.19418204519e-09
5.03212441702e-07
-8.13147741493e-09
4.97191605618e-07
-9.43254821183e-09
4.91208858334e-07
-1.11579623288e-08
4.85650745039e-07
-1.33018617309e-08
4.80531941119e-07
-1.59442840113e-08
4.76300790835e-07
-1.90470710083e-08
4.72947993479e-07
-2.26942313761e-08