/*--------------------------------*- C++ -*----------------------------------*\
| =========                 |                                                 |
| \\      /  F ield         | OpenFOAM: The Open Source CFD Toolbox           |
|  \\    /   O peration     | Version:  v1806                                 |
|   \\  /    A nd           | Web:      www.OpenFOAM.com                      |
|    \\/     M anipulation  |                                                 |
\*---------------------------------------------------------------------------*/
FoamFile
{
    version     2.0;
    format      ascii;
    class       volScalarField;
    location    "10";
    object      sensitivity;
}
// * * * * * * * * * * * * * * * * * * * * * * * * * * * * * * * * * * * * * //

dimensions      [0 2 -3 0 0 0 0];


internalField   nonuniform List<scalar> 
12225
(
0.541721453997
-9.90155336818
-4.41557833069
-6.03571584905
-5.5673948681
-5.90268194786
-6.09522721829
-6.34544897215
-6.50992854783
-6.56151629473
-6.51382970577
-6.42226787821
-6.36489715801
-6.58763977283
-7.67461350094
-10.5065808837
-15.2206906585
-17.5558748262
-20.8273402337
-5.2213158691
-8.19285967719
-7.29992855225
-7.88172969123
-8.2277806059
-8.67476010477
-9.12220620689
-9.54866382315
-9.976094643
-10.433299056
-10.9745916173
-11.706997625
-12.8789499369
-14.9296565063
-18.2825363667
-22.1899253405
-22.2078355146
13.4716084755
-10.01159326
-6.98861740256
-7.49833957439
-7.38463957527
-7.45603351533
-7.5671495347
-7.67507615796
-7.75580580204
-7.80051910488
-7.84876014209
-7.98555751822
-8.35130008182
-9.21104556177
-10.9694439439
-13.8904312377
-17.0588988417
-17.2614478103
-13.2894923966
-9.86564572021
-7.75351361099
-8.31486954883
-8.28868812546
-8.53304032549
-8.74503663679
-8.95229294952
-9.09349971816
-9.16859870577
-9.20261615818
-9.26860491343
-9.4975326185
-10.1152140596
-11.3988690458
-13.3786589313
-15.1279338621
-14.7018547327
-3.84349407971
-8.33442180073
-8.09555467942
-8.11071609401
-8.20549386819
-8.33033177726
-8.49116906836
-8.6498174052
-8.78753080436
-8.90668865062
-9.03033974488
-9.21673125204
-9.57027541718
-10.2516294603
-11.3947574619
-12.8438647456
-13.7930237457
-13.1790600445
-7.78476460479
-9.13008620414
-8.57973663708
-8.66359578613
-8.68449373229
-8.75385078537
-8.84151142343
-8.93278921015
-9.0129011171
-9.09113243861
-9.19155837556
-9.36865700784
-9.70920795917
-10.3221535816
-11.2417900465
-12.2364273571
-12.7017235788
-12.1091140655
-8.15545312982
-9.0031609681
-8.94570134586
-8.91697908497
-8.96864218057
-9.00963416029
-9.0741269247
-9.13982151737
-9.20033744538
-9.26665651475
-9.36182818705
-9.53365691302
-9.84765362904
-10.3643922598
-11.053332062
-11.6832271954
-11.8524301339
-11.3265038624
-8.89794922118
-9.11849706006
-9.24878885972
-9.17062274852
-9.22902585757
-9.2470246004
-9.28945503592
-9.33379461791
-9.37836341204
-9.4348562541
-9.52355640843
-9.68312629059
-9.9569251088
-10.3664527167
-10.8479747786
-11.2083695755
-11.2035857495
-10.7456552401
-9.44764974403
-9.23645471034
-9.50821050451
-9.39130049779
-9.4566278134
-9.45823661972
-9.48440632322
-9.51243540623
-9.54392285459
-9.59054684203
-9.6688817098
-9.80775487582
-10.0308582237
-10.3331067347
-10.6418780648
-10.8133713681
-10.7104840334
-10.3101934148
-9.88261417231
-9.35702400177
-9.72705922052
-9.58333373419
-9.65211414939
-9.64278749289
-9.65678331367
-9.6723825084
-9.69261579367
-9.72855597706
-9.79245735326
-9.90367181609
-10.0705448164
-10.2733040999
-10.4454194884
-10.4886812568
-10.3314126234
-9.97841689861
-10.2618708158
-9.46531110075
-9.90343413519
-9.74058230504
-9.80948175791
-9.79349334443
-9.79839579783
-9.80437464638
-9.8147207367
-9.83952321171
-9.88644173886
-9.96652638734
-10.0776290751
-10.1946258665
-10.2638176063
-10.22258136
-10.0375975997
-9.72249813978
-10.435000057
-9.56264603196
-9.98843594574
-9.82960262088
-9.89243221857
-9.87519042624
-9.87357416605
-9.87332202343
-9.87603550266
-9.89064735832
-9.92054205978
-9.97087837341
-10.0349046905
-10.0880334493
-10.0894250865
-9.99974591733
-9.80427921411
-9.51955057217
-10.4816476087
-9.63670141648
-10.0168196017
-9.87122223129
-9.92512891177
-9.91004991176
-9.90496501193
-9.9014069831
-9.8982559938
-9.9038271162
-9.91758290161
-9.9417304603
-9.96616891156
-9.96965668912
-9.92291994709
-9.80256509401
-9.60569463314
-9.34774937292
-10.4793277295
-9.69149631408
-10.0124087989
-9.88564621161
-9.92620766878
-9.91274359849
-9.90250388612
-9.89505597454
-9.88531503877
-9.88001979084
-9.87681765685
-9.87463044967
-9.86311146092
-9.82559054403
-9.74258242543
-9.60265308453
-9.40951521571
-9.1778432509
-10.449194829
-9.74160469706
-9.9964485189
-9.89368874277
-9.91605577827
-9.90285461446
-9.88502737738
-9.87149072141
-9.85203244965
-9.83392797176
-9.81222545226
-9.78482441481
-9.7428924323
-9.67367844822
-9.5657761731
-9.41545452996
-9.23005190914
-9.02295082775
-10.3612027794
-9.77635773492
-9.96313276293
-9.8883197248
-9.89301185399
-9.8799165041
-9.85340591292
-9.83228806096
-9.80188463425
-9.7700491571
-9.73038776406
-9.68166651115
-9.61592441509
-9.52523260909
-9.40349999173
-9.25136965936
-9.07728809754
-8.89284818804
-10.258195131
-9.7842443298
-9.91217027205
-9.86308940092
-9.85261306473
-9.83875516146
-9.8036755225
-9.77408098708
-9.7320819135
-9.68647816995
-9.63094146357
-9.56447502159
-9.48201222785
-9.3785893607
-9.25174514995
-9.10407684886
-8.94380498168
-8.78024832063
-10.0928080648
-9.77821127084
-9.83168641662
-9.81152556183
-9.78644603033
-9.77249274111
-9.72995867751
-9.69288913102
-9.64096612501
-9.58416876046
-9.51642110672
-9.43793252756
-9.34576834464
-9.23715292544
-9.11153903356
-8.97220484704
-8.82657382001
-8.68204526376
-9.92141883349
-9.77540699636
-9.76187278931
-9.7636867863
-9.72722046615
-9.71035312877
-9.66108333789
-9.61660033888
-9.55607187903
-9.49035378115
-9.41393482111
-9.32804935523
-9.23128760722
-9.12204784189
-9.00063806007
-8.87029756464
-8.73756626402
-8.60845261216
-9.95572088425
-9.73348136663
-9.75913737749
-9.73535506726
-9.70495302666
-9.67781236835
-9.62542520674
-9.5743197482
-9.50876558393
-9.43809368027
-9.35774924645
-9.26959580059
-9.17254944278
-9.06551954835
-8.94896387481
-8.82582274799
-8.70212689029
-8.58322609978
-10.0238210298
-9.73490987922
-9.7980115817
-9.75507173827
-9.72831091729
-9.6935259671
-9.63787245753
-9.5823895616
-9.51299408695
-9.43906920383
-9.35647972284
-9.26704890849
-9.17015364662
-9.06507225761
-8.95173227339
-8.83355834688
-8.71528632225
-8.6023879002
-10.0896354939
-9.74657163518
-9.84990498515
-9.79369346478
-9.77514579784
-9.73340554441
-9.67624510444
-9.6164318643
-9.54490712575
-9.4689400858
-9.38508099844
-9.29540100892
-9.19928464206
-9.0963351361
-8.9867880841
-8.87318602878
-8.76068722835
-8.65488047495
-10.3107021205
-9.78645673701
-9.91197963513
-9.83890524603
-9.82581937582
-9.77762788413
-9.71952027849
-9.65705107463
-9.58330234042
-9.50484634863
-9.41857304262
-9.32658297695
-9.22966518226
-9.12637766437
-9.01744210811
-8.90447298905
-8.79085961009
-8.67678406665
-9.8967605605
-9.64928978237
-10.0819727548
-9.96233670403
-9.97022162666
-9.91253159681
-9.85417559256
-9.78835943725
-9.71404743859
-9.63553015073
-9.55215548546
-9.46358631745
-9.37022920901
-9.27354632317
-9.17403761838
-9.07345878178
-8.97822874935
-8.90241273247
-12.2170621678
-10.2662804254
-9.86239826749
-9.85755780005
-9.83075716617
-9.76966016309
-9.70748603899
-9.63785839968
-9.55984544815
-9.47559095102
-9.37976051184
-9.27974539164
-9.17629579672
-9.06728774665
-8.95273805075
-8.83480282506
-8.71027237679
-8.57640256665
-3.4923600204
-8.84004596848
-10.7935645978
-10.3819101002
-10.4958045035
-10.4073593819
-10.3677191798
-10.3066871455
-10.2412526836
-10.1686523648
-10.0908137751
-10.0015624566
-9.90491560821
-9.8042231053
-9.70200680539
-9.59977328314
-9.50560315078
-9.39002115055
-28.4001075771
-11.535653727
-9.56189405044
-9.83405921888
-9.67880648635
-9.61304515879
-9.51505448982
-9.41903867326
-9.31528787473
-9.2089862026
-9.10190940103
-9.00264871867
-8.9128979254
-8.839693969
-8.78856183982
-8.76174570324
-8.75324963341
-8.83337136345
24.3731470905
-11.6523556445
-10.3733110977
-10.7406165141
-10.7046302646
-10.586695569
-10.5625930237
-10.4941940775
-10.4292720652
-10.34791335
-10.2514573113
-10.1472460513
-10.0308588858
-9.89411802599
-9.73882798822
-9.56660048769
-9.375510996
-9.09630085643
-38.750008775
-5.41190834026
-12.3871353446
-10.2551145895
-10.8192210155
-10.6330006714
-10.6186828035
-10.5706026299
-10.5240374371
-10.475227177
-10.4183650594
-10.3535542722
-10.2864554641
-10.2120831808
-10.1209494933
-10.0035347146
-9.84731331128
-9.71526575362
-6.27639090578
-9.96969755472
-7.34501588634
-7.77111452938
-7.40764554695
-7.30195938503
-7.1503616438
-7.0238861224
-6.91000823718
-6.80541663895
-6.70924432224
-6.6140542556
-6.51150278121
-6.39498300986
-6.26799172889
-6.14976431258
-6.07969671198
-6.05246036594
0.00806622482659
0.00389025780127
0.00906662975709
0.0288288876693
0.032928026024
0.00643043034486
-0.0169012879975
-0.0326382452303
-0.0430172958797
-0.0506741772063
-0.0580486261453
-0.0668239461685
-0.0780359785376
-0.0921707236841
-0.109168777769
-0.128752176961
-0.150248350173
-0.172992393644
-0.196039938041
-0.218631026046
-0.239805565063
-0.258853306045
-0.274991150208
-0.287675404122
-0.29631941731
-0.300614141347
-0.300261008342
-0.295141784176
-0.285157877162
-0.270334270058
-0.250708806475
-0.226371129158
-0.197424460346
-0.163997070089
-0.126159721615
-0.0840416296704
-0.0377785711787
0.0125439062563
0.0668425390539
0.124989098911
0.18686886777
0.252311419164
0.321166743599
0.393211814816
0.468273098305
0.546082717889
0.626431586586
0.709012815092
0.793577682747
0.87983005619
0.967465854463
1.05620378966
1.14562280906
1.23536938243
1.32497292674
1.41415464288
1.50244018537
1.58963318896
1.67531691483
1.75905575918
1.83998809087
1.91752027971
1.9903171272
2.05496699516
2.11100305723
2.1600339072
2.20353000564
2.24268973113
2.27870465426
2.31232135717
2.34412572595
2.37434168567
2.40287228166
2.42941006468
2.45342080015
2.4743146314
2.49127905127
2.50367679007
2.51072172602
2.51187475823
2.506569795
2.49442664688
2.47496147801
2.44796426439
2.41302905728
2.3698303801
2.31823195499
2.2570995084
2.18649888794
2.10389779584
2.00811300302
1.89993433173
1.77973113269
1.64878475487
1.50879830085
1.36182092944
1.21151940038
1.05920490223
0.900158039806
0.732201677512
0.568712028592
0.428426716356
0.306444701074
0.201941157879
0.0747361568849
-0.0579101731906
-0.084279889542
-0.0623924682813
-0.0760341014384
-0.102801604177
-0.134202935065
-0.167565909674
-0.200640104802
-0.231652016151
-0.260180207585
-0.285837515418
-0.308572037119
-0.328512679253
-0.345832438707
-0.360702885218
-0.373210468478
-0.383430027256
-0.391438823784
-0.397361661189
-0.401240245556
-0.40306068165
-0.403015598689
-0.401526525991
-0.398749408799
-0.39493935212
-0.390217811902
-0.384623471624
-0.378162830171
-0.370868614413
-0.362757739162
-0.353862739045
-0.344205611621
-0.3338457417
-0.322840010037
-0.311238890653
-0.299064939782
-0.286350513353
-0.273254135928
-0.260036454165
-0.246985810859
-0.234297957457
-0.222091039205
-0.210510169991
-0.199754006311
-0.189960237966
-0.181074720547
-0.17283432058
-0.165005348173
-0.157650781337
-0.151021550317
-0.145271301691
-0.140692219566
-0.137551710847
-0.136424189667
-0.136980701306
-0.138945187541
-0.141533010518
-0.144704388216
-0.148424189677
-0.152681032764
-0.157486111482
-0.162855376059
-0.168756598455
-0.175241233422
-0.182675708077
-0.191799045675
-0.203814812077
-0.219838911461
-0.240429754617
-0.263763509308
-0.28702097876
-0.304340229399
-0.307020278793
-0.289183511167
-0.211210100266
0.0343579472826
-0.0395123525597
-0.0642598340539
-0.0398376477707
-0.000634612436839
0.0379343968302
0.0729492602622
0.102702211622
0.126381876281
0.14441138199
0.157951992595
0.168536721566
0.1777747322
0.187044363508
0.197586782867
0.210247857834
0.225765494166
0.244502946989
0.266801496166
0.292730120106
0.322378009197
0.355630771618
0.392463758669
0.432698981394
0.47622095095
0.52283876489
0.572378214793
0.624601399503
0.679304937794
0.736263519962
0.795261907674
0.856065546672
0.918503747356
0.982438671556
1.04773526294
1.11431463121
1.18215692637
1.25126935419
1.32171212152
1.39358046539
1.46698095587
1.54201777179
1.61880338452
1.69741988536
1.77795322871
1.86043143609
1.94485753502
2.03117289253
2.11926818234
2.20896798674
2.29999735251
2.39208999884
2.48493073853
2.57821943286
2.67144078304
2.76404716075
2.85530533046
2.94445477172
3.03061722809
3.11322379296
3.19170260863
3.26501349788
3.33376666754
3.39992566848
3.46056019921
3.51225393985
3.55309219296
3.5817858956
3.59765908841
3.60053509435
3.59071456678
3.56879143372
3.53557736773
3.49195191361
3.43868131856
3.37651105081
3.30597185774
3.22747911984
3.14134971794
3.04794415689
2.94762294619
2.84090779779
2.72839771097
2.61084399842
2.48905169913
2.3638252533
2.23561063085
2.10517529115
1.97150568099
1.83395996667
1.69242128083
1.54605951817
1.39728848145
1.25016274949
1.10333316403
0.949839329148
0.787398298287
0.630716545677
0.497215709351
0.395194948421
0.31195986161
0.198709217625
0.0722300717981
-0.0719070770483
-0.164728507504
-0.153342340329
-0.142368462972
-0.200201427662
-0.258526417626
-0.314178187765
-0.362227687773
-0.405577574995
-0.443984176568
-0.478134893215
-0.508605888498
-0.535645003082
-0.559585486398
-0.580730492881
-0.599363945615
-0.615682925514
-0.629826011673
-0.641875280065
-0.651976826606
-0.660368893924
-0.667346515881
-0.67325127596
-0.678364850898
-0.682814766665
-0.687204380639
-0.691755646068
-0.696360686454
-0.700953059968
-0.705697902422
-0.710752278328
-0.716245800146
-0.722271896543
-0.728924748329
-0.736295091506
-0.74441619392
-0.753199554243
-0.762407139825
-0.771750681548
-0.78101869808
-0.790017844578
-0.798535520886
-0.806319428539
-0.813191313897
-0.819094425858
-0.824030138509
-0.82792813483
-0.830884229969
-0.83321618172
-0.835453044574
-0.837772441958
-0.84031496197
-0.843198172218
-0.845672371408
-0.847225239909
-0.847653950221
-0.84732471799
-0.846627345606
-0.846523316016
-0.847118184362
-0.848497129975
-0.850641481884
-0.853403412828
-0.856502672445
-0.860051568081
-0.864371254932
-0.870134710158
-0.87777028147
-0.887549357423
-0.899259361215
-0.910787717168
-0.920458385451
-0.923205273826
-0.912708637316
-0.882363164353
-0.834799414074
-0.779451623595
-0.0392769005989
-0.0419511110631
-0.0105048272667
0.0415455521007
0.0993779188936
0.153103989583
0.197271633694
0.231607432523
0.258164758593
0.279689655017
0.298483301709
0.316195130524
0.333877122022
0.35204372167
0.370988104707
0.390719298131
0.411281986468
0.432587904983
0.454690983636
0.477544026152
0.501286763707
0.525988540019
0.551827482268
0.578947571508
0.607581293401
0.637888975168
0.670069504435
0.704282013185
0.740686708548
0.779407575214
0.820552858378
0.864228312566
0.910500979151
0.95941719154
1.01103949951
1.06538286125
1.12243196319
1.18217369333
1.24455908543
1.30948307656
1.37680762461
1.44632983924
1.51780767493
1.59093638925
1.66538091324
1.74074856125
1.81662125021
1.89253106102
1.96799686745
2.04253522941
2.11559407933
2.18663989858
2.25513550729
2.32064515684
2.38271106422
2.44097129579
2.49504272274
2.54466472053
2.58963711728
2.63002882083
2.66613682289
2.69864930585
2.72689496102
2.75260177317
2.78111164822
2.81391216583
2.85042161134
2.88912211589
2.92791446625
2.9642378324
2.99534862503
3.0185182676
3.03111701699
3.03083915646
3.01582467483
2.98476216423
2.93694093479
2.87238158871
2.79178720276
2.69651871019
2.5883874991
2.469505658
2.34212119249
2.20850342889
2.07060757802
1.92999797498
1.7881579895
1.64570204319
1.50340072868
1.36178028228
1.22178051366
1.08426524314
0.945049387686
0.797826000114
0.648228039088
0.513085374151
0.409054363754
0.332209358917
0.250788755333
0.130226774715
-0.014477390275
-0.147340549963
-0.199318282825
-0.212341079109
-0.176190214795
-0.175797135842
-0.237275042988
-0.329944639399
-0.40710327108
-0.4709883653
-0.52365687005
-0.570583452307
-0.613156597214
-0.652645049332
-0.689541157128
-0.72390157347
-0.755760079327
-0.785128831221
-0.812039243637
-0.836491729365
-0.858436107674
-0.877858640961
-0.894841539298
-0.909537747072
-0.922139363779
-0.932809947902
-0.941579246266
-0.948452529679
-0.953093418021
-0.955580518234
-0.956209254288
-0.955248990664
-0.952886563388
-0.949197190215
-0.944213304195
-0.937986280729
-0.930610539023
-0.922178455114
-0.912723532555
-0.902203114452
-0.890613616514
-0.878059129239
-0.864796251198
-0.851223902316
-0.837841482341
-0.825333295632
-0.814459454924
-0.805811043174
-0.799721420127
-0.796443328486
-0.796344632326
-0.799723535777
-0.806905408279
-0.817851532582
-0.832152586064
-0.849173705848
-0.868427532267
-0.889369088826
-0.911197735277
-0.933592384562
-0.956171270761
-0.97860079778
-1.00062194851
-1.02185028872
-1.04181188797
-1.05997918739
-1.07596792225
-1.08967751761
-1.10127246868
-1.11114652961
-1.12005830821
-1.1290675962
-1.13847076643
-1.14756153087
-1.15489065262
-1.15657712084
-1.146967021
-1.11796703394
-1.06993806567
-1.01540643088
0.00133589825337
0.0554579407389
0.109828727652
0.163178387832
0.213911498963
0.258536547212
0.294403083402
0.322959802393
0.347192437203
0.369844674551
0.39270899504
0.416674441178
0.442078763457
0.46881681918
0.496707999689
0.525397245565
0.554666450013
0.584208861825
0.613912786251
0.643625479787
0.67334756938
0.703035630581
0.732802420517
0.762697922518
0.792853362519
0.823385850968
0.854437916528
0.886122937775
0.918561552034
0.9518700472
0.98615555815
1.02150149545
1.05801222321
1.09579578533
1.13492954133
1.17551222553
1.21765987146
1.26145316733
1.30698592071
1.3543327506
1.40355370546
1.45466987375
1.50768696623
1.5625645905
1.61924437039
1.67761430608
1.73752823186
1.79880534442
1.86121955589
1.92451574205
1.98841186815
2.05259578338
2.11664621823
2.18018143041
2.24276446324
2.30398884614
2.36341820179
2.42071492067
2.47545390922
2.52707577478
2.57494680565
2.61860700625
2.65655289025
2.68581804744
2.70426617937
2.71229336465
2.7119167597
2.70540631301
2.69495379287
2.68232680969
2.66865933969
2.65430274909
2.63885573495
2.62115770712
2.59934742144
2.57113905059
2.53398696999
2.48539797504
2.42326342316
2.3462043089
2.25372478025
2.14627055599
2.02521945364
1.89266585985
1.75101089987
1.60259205471
1.45014813821
1.29711389771
1.14468483284
0.992365772844
0.837157079752
0.677040938189
0.517469439344
0.373984682202
0.262290668404
0.167063146148
0.0685283132243
-0.0616450523982
-0.206998798465
-0.381573922185
-0.477295322321
-0.453946593115
-0.412776619304
-0.386373273846
-0.378692126056
-0.423095840714
-0.501854853337
-0.58684459669
-0.658730446943
-0.718730226007
-0.768413839173
-0.811403569835
-0.849006876937
-0.882222083336
-0.911459667006
-0.936860605255
-0.958593834691
-0.976875518465
-0.991975475719
-1.00415266238
-1.0136258011
-1.02061930153
-1.02541664455
-1.02835391043
-1.02980460935
-1.03012485896
-1.02951549691
-1.02810272349
-1.0260369675
-1.02332141345
-1.02064763655
-1.01834764861
-1.01628640266
-1.01450580107
-1.01316729811
-1.01249511948
-1.01277543932
-1.01427861141
-1.01718366094
-1.02154145974
-1.02732730728
-1.03444757631
-1.04266761187
-1.05168099178
-1.06126903452
-1.07142129618
-1.08216866548
-1.09338676389
-1.10493397955
-1.11659139822
-1.12817770712
-1.13947879458
-1.14989407021
-1.15917803178
-1.16753413229
-1.17517973305
-1.18267004939
-1.19024410799
-1.19808756243
-1.20633784035
-1.21502059099
-1.2241118115
-1.23358350578
-1.24332175957
-1.25311709077
-1.26270851077
-1.27194979946
-1.28102745508
-1.29040730542
-1.30082823916
-1.31328815355
-1.32873021287
-1.34752486022
-1.36819305593
-1.38943819198
-1.40683976921
-1.4159254738
-1.41011841741
-1.39098785745
-1.3729486795
0.0694980154843
0.214343682129
0.276579663336
0.2927976413
0.30519840881
0.320937097487
0.337541630376
0.354837689061
0.373629417218
0.394490885416
0.417597233973
0.442770770651
0.469790924314
0.498288230818
0.528026124926
0.558679496024
0.590101084586
0.622077226443
0.654560577727
0.687426373332
0.720718277125
0.754416214182
0.788590357939
0.823285269743
0.858610853524
0.894628742288
0.931437379446
0.969118848326
1.00775798112
1.04742550839
1.08818698648
1.13012255752
1.17328101241
1.2177070897
1.26346382652
1.31057975678
1.35906826879
1.4089369042
1.46017122533
1.5127107212
1.56647681178
1.62134179396
1.67715470626
1.73372418279
1.79083566842
1.84824018439
1.9056616491
1.96280059835
2.01934938633
2.07500902748
2.12942218422
2.18225352373
2.23314538684
2.28179108226
2.3279244122
2.37135111733
2.41184672012
2.44922715828
2.48330112146
2.51387902477
2.5407557932
2.56375272579
2.58376028051
2.60184611906
2.61764944041
2.62930405803
2.6351478706
2.63397254033
2.62518979638
2.60880416659
2.5853382201
2.55562816589
2.5205396951
2.48075367457
2.43656658667
2.38770409241
2.33327561459
2.27180760099
2.20139205544
2.12005496853
2.02607496935
1.91828795684
1.79650555459
1.66172894226
1.51585721559
1.36145232015
1.20106132463
1.03520745986
0.863838023279
0.687691979474
0.511735037048
0.346345682959
0.202181511862
0.0743225245937
-0.0500597685821
-0.200925274849
-0.36906131709
-0.554133578671
-0.6922921931
-0.744639204686
-0.697369189538
-0.62106049608
-0.590463334346
-0.595901826239
-0.626923489012
-0.682059270953
-0.742678185733
-0.796960376226
-0.84184631786
-0.880036406688
-0.912499492165
-0.9411154657
-0.966754031837
-0.990115456511
-1.01154902737
-1.03119792635
-1.0492091687
-1.06573040469
-1.08090627026
-1.0948137364
-1.10744853343
-1.11878788004
-1.1288706996
-1.13782133978
-1.14580985611
-1.15296794395
-1.1593788322
-1.16512426619
-1.1703866318
-1.1752790841
-1.179748788
-1.18363737823
-1.18692989675
-1.1895851775
-1.19165785428
-1.19326557866
-1.19451518691
-1.19548810203
-1.19622001151
-1.19675826424
-1.19714312598
-1.19738765309
-1.19750186361
-1.19754439617
-1.19765780109
-1.19794263352
-1.19853187379
-1.19960414035
-1.20131239968
-1.20412757413
-1.20805632998
-1.21310637275
-1.21945097675
-1.22728843805
-1.23653323742
-1.24709670412
-1.25888372562
-1.27177283457
-1.28560815434
-1.30017856028
-1.3152127873
-1.33041603675
-1.34550733921
-1.3601785147
-1.37406022005
-1.38677418949
-1.39804144532
-1.40786409075
-1.41643178704
-1.42416644742
-1.43168271713
-1.43965266518
-1.44864349758
-1.45806621922
-1.46671650216
-1.47238612291
-1.47377079259
-1.46941270394
-1.46428145716
-1.47068161609
0.142681642536
0.445414551037
0.469352594514
0.397188912219
0.355139802735
0.341728536984
0.343864266306
0.35476003464
0.370923354309
0.390507414281
0.412553510499
0.436390147667
0.461691387137
0.488118768317
0.515538882307
0.543732921505
0.57265187279
0.602140085798
0.632193112462
0.662736640451
0.693804351674
0.725375743816
0.757530925335
0.790287722709
0.82372077526
0.857887049233
0.892861742475
0.928701081923
0.965467563156
1.00322101004
1.0420149088
1.08188705836
1.12288649501
1.16505337147
1.20840068356
1.25294203509
1.29868422007
1.34559065624
1.39361402941
1.44266985992
1.4926442251
1.54337926359
1.59468870864
1.64635219597
1.69812314617
1.74972203404
1.8008287202
1.85112083105
1.9002441333
1.94784394498
1.99354050441
2.0369508607
2.07763657185
2.11525951783
2.14959912699
2.18047951303
2.20766044059
2.2310095304
2.25059333706
2.26661488959
2.27937666014
2.28866555856
2.29441197713
2.29906876478
2.30319003508
2.30720257909
2.31083961616
2.31342961409
2.31402141333
2.31151590264
2.30475658116
2.2925946521
2.27398993063
2.24799117859
2.21369307468
2.17032481885
2.11723305904
2.05380471292
1.97938082259
1.89330016091
1.79491091723
1.6836468703
1.55944777486
1.42280616455
1.2743344063
1.11460259201
0.944958463038
0.767245184847
0.586477091929
0.410913329405
0.246655323994
0.0976408089859
-0.0463189512583
-0.207597674045
-0.382017040838
-0.581496263687
-0.757768670582
-0.846599275598
-0.875621751871
-0.837004943266
-0.769263142498
-0.736674269997
-0.753330353866
-0.794609686259
-0.846246320691
-0.900141144281
-0.946618180741
-0.98367830089
-1.01420907145
-1.04162524569
-1.06693156345
-1.09089922222
-1.11367286636
-1.13530892552
-1.15571204321
-1.17472021743
-1.19223649683
-1.20823190615
-1.22269809373
-1.23560925688
-1.24690439294
-1.25656452093
-1.26467386599
-1.27141657623
-1.27699332193
-1.28158901049
-1.28537929381
-1.28853286136
-1.29119947379
-1.29336877773
-1.29480943927
-1.29579978335
-1.2965321158
-1.29713568546
-1.29772450803
-1.29844984963
-1.29946471516
-1.30089680176
-1.30280614858
-1.30517124185
-1.3078959414
-1.31086857986
-1.31408255486
-1.31763880646
-1.32165326112
-1.32622317158
-1.33134247944
-1.33704017834
-1.34349313174
-1.35039330838
-1.35772487201
-1.36544161977
-1.37353670843
-1.38203736408
-1.3909813999
-1.40041521423
-1.41033658038
-1.42073864541
-1.43160398384
-1.44288379214
-1.45448955653
-1.46630472366
-1.4782046752
-1.49003374981
-1.50157095954
-1.51257681033
-1.52287386811
-1.53247108376
-1.54153527515
-1.5503986156
-1.55947788165
-1.56917810876
-1.57968888782
-1.59052070572
-1.59994469463
-1.60587572464
-1.60729944056
-1.60408873552
-1.60069066511
-1.60369174174
0.228857877259
0.74831749015
0.642662998285
0.447819434918
0.367426340844
0.340805591801
0.338575512774
0.347125484196
0.360418257412
0.376408275091
0.394381417592
0.413900864377
0.4348515642
0.457031950947
0.480411825165
0.504836245644
0.53028934093
0.556636382332
0.583862393412
0.611880894993
0.640724554983
0.670356989694
0.700806739054
0.732074337326
0.764205638744
0.797214786907
0.831147953992
0.86603594154
0.90191809859
0.938819301452
0.976765712565
1.01578101182
1.05586781248
1.0970176569
1.13922240562
1.18244032506
1.22661196042
1.27165944174
1.31747871764
1.36392991483
1.41084750573
1.45803102973
1.50525314021
1.55226836849
1.59880871652
1.64459221904
1.68929435387
1.73258249411
1.7741023283
1.81351617546
1.85043154204
1.88448384612
1.91520334215
1.94226396193
1.9656963814
1.98549773611
2.00147100839
2.01362568698
2.02228719518
2.02786691055
2.03069512888
2.03048250535
2.0267247573
2.02133295358
2.01280726789
2.00194447245
1.98955265794
1.97660226364
1.96401038434
1.95239877171
1.94186382616
1.9317623347
1.92064746942
1.90634554547
1.88614298175
1.85711198154
1.81661891099
1.76270501159
1.69425739903
1.61117460051
1.51394493286
1.40308161226
1.2788619968
1.14136740027
0.990108036401
0.828458283312
0.659827597005
0.489948195935
0.324965314928
0.171925152084
0.0203840342764
-0.134900856788
-0.30206861544
-0.50230868181
-0.683618483456
-0.814919519615
-0.900111587893
-0.915733215167
-0.908685162805
-0.875950619675
-0.855876630869
-0.879343614596
-0.932990590815
-0.993868104904
-1.05113565373
-1.09999619512
-1.13799893472
-1.16708240596
-1.19094661636
-1.21255183715
-1.23299690882
-1.25276286291
-1.27181720232
-1.29003151014
-1.30720233438
-1.32315467388
-1.337796515
-1.35111725544
-1.36312690808
-1.37380606492
-1.38312079791
-1.39107489238
-1.39775535458
-1.40331356189
-1.40791597739
-1.41172446607
-1.41488280036
-1.41752261902
-1.41974445851
-1.4216149272
-1.42311543001
-1.42439174632
-1.42547960592
-1.4264415028
-1.42735932822
-1.42834508654
-1.42954983178
-1.43109323441
-1.43304045945
-1.43535707122
-1.43795644915
-1.44074752792
-1.44369269476
-1.44685465989
-1.45031577042
-1.454096937
-1.45824274429
-1.46291038319
-1.46793481262
-1.47337250136
-1.47923875393
-1.48560519455
-1.49253327656
-1.5000024026
-1.50799473406
-1.51651800917
-1.52555358644
-1.53507044195
-1.54502065628
-1.5553276081
-1.56588294764
-1.57655169721
-1.5871915912
-1.59764462852
-1.60772200412
-1.61723928629
-1.62608905908
-1.63433444213
-1.64218405292
-1.64998994767
-1.65814632541
-1.66699158885
-1.67657449993
-1.68660650912
-1.69566173672
-1.70169179612
-1.70397871637
-1.70326720078
-1.70336227515
-1.70786408084
0.345014372049
1.09182732901
0.757935362055
0.457210858326
0.375779588507
0.347716015708
0.343816492549
0.347155627798
0.352864254074
0.360886388324
0.371146394048
0.383402736568
0.397625502638
0.41359843856
0.431267031997
0.450430707867
0.471025267226
0.492853102441
0.515857766313
0.539929563409
0.565045585378
0.5911256708
0.618160262192
0.646101892751
0.674961299315
0.704739088657
0.735462980405
0.767150846481
0.799833597122
0.833534019302
0.868270477916
0.904042329799
0.940845453094
0.978651403975
1.01740558416
1.05703597369
1.09744579765
1.13850438084
1.18005894945
1.22192896497
1.26390562042
1.30575508119
1.3472177699
1.3880261797
1.42789830526
1.46654439307
1.50362936875
1.53881739697
1.57171882529
1.60197096111
1.6291858749
1.65307910017
1.67299284381
1.68852418434
1.7002163213
1.7081559935
1.71188726667
1.71152274853
1.707463754
1.70025515613
1.68979222791
1.67581408272
1.66152193876
1.64543333208
1.6279994651
1.60973482774
1.59137615304
1.57383165845
1.55806587837
1.54499294131
1.53513462172
1.52823705062
1.5230965868
1.51749981742
1.50820443849
1.49126195018
1.46262234269
1.41894852708
1.3582847655
1.28041697559
1.18636680986
1.07706083062
0.954026305155
0.818295319787
0.671877724922
0.521370562804
0.371519198704
0.224646174543
0.0786125298447
-0.0680027823986
-0.229051863819
-0.412203263406
-0.577101489855
-0.72351506679
-0.835993994521
-0.910775254995
-0.959479329174
-0.968627010776
-0.970366328095
-0.97247480463
-1.00024613721
-1.05809227662
-1.12681819378
-1.19080546255
-1.24428502653
-1.28624293276
-1.31771927008
-1.34156593728
-1.3608984537
-1.37803136671
-1.39407760302
-1.40955398552
-1.42453796689
-1.43894057201
-1.45259355247
-1.46534996435
-1.47714102619
-1.48793822859
-1.49772523308
-1.50644793807
-1.51405104496
-1.52052634717
-1.52593964465
-1.53040755468
-1.53406879081
-1.53706427912
-1.53952673679
-1.54157817447
-1.5433168286
-1.54481839883
-1.54606826133
-1.54712537735
-1.5480321141
-1.54884079156
-1.54962925864
-1.55050705425
-1.55159576347
-1.55298749831
-1.55470965846
-1.55672569453
-1.55896807141
-1.56136830037
-1.56391122113
-1.56663308949
-1.56956817614
-1.57275348721
-1.57633562782
-1.58021160868
-1.58444035255
-1.58904754556
-1.59406939924
-1.59956200664
-1.60555426813
-1.61204534905
-1.61902202783
-1.62647410366
-1.63437696767
-1.64269316654
-1.65137109548
-1.66033447507
-1.66948424287