/*--------------------------------*- C++ -*----------------------------------*\
| =========                 |                                                 |
| \\      /  F ield         | OpenFOAM: The Open Source CFD Toolbox           |
|  \\    /   O peration     | Version:  v1806                                 |
|   \\  /    A nd           | Web:      www.OpenFOAM.com                      |
|    \\/     M anipulation  |                                                 |
\*---------------------------------------------------------------------------*/
FoamFile
{
    version     2.0;
    format      ascii;
    class       volVectorField;
    location    "10";
    object      Ua;
}
// * * * * * * * * * * * * * * * * * * * * * * * * * * * * * * * * * * * * * //

dimensions      [0 1 -1 0 0 0 0];


internalField   nonuniform List<vector> 
12225
(
(-0.208643205233 37.4810415339 0)
(1.03471986002 8.64643664148 0)
(0.455016506931 7.96825261029 0)
(0.650897887332 8.28658413579 0)
(0.611777457895 8.42425990018 0)
(0.666843764626 8.62451020144 0)
(0.706681729345 8.75115818101 0)
(0.755630996521 8.81105777089 0)
(0.795809172 8.79541874707 0)
(0.822896745924 8.73558122316 0)
(0.837672081792 8.68639185481 0)
(0.846380563934 8.69795509186 0)
(0.858754227984 8.78588803846 0)
(0.912016903559 8.93582768711 0)
(1.09821637503 9.0418552701 0)
(1.56422506082 8.77038822895 0)
(2.3608214694 7.40648143082 0)
(2.83749320931 3.91230257984 0)
(2.42098718478 -34.2040287325 0)
(0.5849459331 -6.32886722995 0)
(0.880483978345 -5.54291386356 0)
(0.793184967968 -5.82115932317 0)
(0.854643967547 -5.75534246665 0)
(0.894150952769 -5.81529482228 0)
(0.944242121293 -5.85060754518 0)
(0.995333907311 -5.89416517492 0)
(1.04511732256 -5.928333013 0)
(1.09602112546 -5.93981961478 0)
(1.1513845653 -5.91351989565 0)
(1.21706018405 -5.83244330535 0)
(1.30420023193 -5.67629514785 0)
(1.44077796428 -5.40342701557 0)
(1.67744147477 -4.9702885079 0)
(2.06393295948 -4.35334388709 0)
(2.52204762731 -3.61857403411 0)
(2.54590148232 -2.98591702868 0)
(-1.53263787756 26.7544624915 0)
(1.0067562953 3.97974521069 0)
(0.69864774596 3.14260817571 0)
(0.749302344503 3.28059571163 0)
(0.73581508314 3.18494169775 0)
(0.742105195502 3.12650716586 0)
(0.752720649403 3.05047952229 0)
(0.763596019079 2.9608256355 0)
(0.772211323345 2.85192575343 0)
(0.777780800115 2.71371664513 0)
(0.784518299948 2.53540686501 0)
(0.801240507764 2.30916178372 0)
(0.842404946544 2.03490201147 0)
(0.935860149963 1.71521504647 0)
(1.12479908452 1.34243759718 0)
(1.43849027455 0.881743241252 0)
(1.78352929001 0.238193233799 0)
(1.81886428596 -0.660568256411 0)
(1.43706400895 -14.5676172822 0)
(1.02987635187 -1.99331853733 0)
(0.805170661858 -1.74548290834 0)
(0.863503387679 -1.73731298754 0)
(0.859025777855 -1.6530318943 0)
(0.883044427594 -1.5391834411 0)
(0.903249008398 -1.40599760484 0)
(0.923022684697 -1.25357353966 0)
(0.936125431843 -1.08849001152 0)
(0.942666177302 -0.911151398634 0)
(0.945277507239 -0.723172943303 0)
(0.951474892474 -0.52863512497 0)
(0.974729412479 -0.333767437562 0)
(1.03852613808 -0.151067921415 0)
(1.17210848094 -0.0117159983211 0)
(1.37958441415 0.01274147587 0)
(1.56597294695 -0.194624315542 0)
(1.52772513002 -0.66693040393 0)
(0.373968725582 5.37268765229 0)
(0.858587953633 0.578546069287 0)
(0.828237706815 0.66280916833 0)
(0.830779254284 0.508849640748 0)
(0.839008349171 0.438462640928 0)
(0.851671839838 0.345247187121 0)
(0.867874567461 0.254454243215 0)
(0.884196338678 0.160873266723 0)
(0.898594964482 0.0708789823137 0)
(0.911332711104 -0.00811830897414 0)
(0.924748740216 -0.0686204536641 0)
(0.944787085614 -0.104793233553 0)
(0.982183095039 -0.113979803313 0)
(1.0536211025 -0.10275790803 0)
(1.17328177551 -0.0962874458897 0)
(1.32555588506 -0.152327167846 0)
(1.42725125534 -0.344959766275 0)
(1.36713805446 -0.655128059949 0)
(0.803970218022 -1.04527735851 0)
(0.94575825268 -0.148952132347 0)
(0.883407629393 -0.138085545086 0)
(0.892610691291 -0.128669366127 0)
(0.892960684403 -0.114554660862 0)
(0.899567157174 -0.102353194233 0)
(0.907850810272 -0.0961169311428 0)
(0.916828502972 -0.0955899145264 0)
(0.924898032146 -0.100219293601 0)
(0.93305134062 -0.106888657918 0)
(0.943755285983 -0.112646300567 0)
(0.962595205045 -0.114548360232 0)
(0.99852539482 -0.111594531626 0)
(1.06288381362 -0.110507360578 0)
(1.1594204341 -0.131851550587 0)
(1.26438193682 -0.213846560048 0)
(1.31511208805 -0.387022861806 0)
(1.25612450448 -0.60568640183 0)
(0.837610929779 0.457933580445 0)
(0.932700147248 0.0254065524825 0)
(0.921247964932 0.0447746220436 0)
(0.919308089824 -0.00506167289232 0)
(0.923025444949 -0.0250614878148 0)
(0.927007402342 -0.0462321263196 0)
(0.933146924498 -0.0650488426403 0)
(0.939701968293 -0.0832825086801 0)
(0.945913006503 -0.100375465656 0)
(0.95294525905 -0.114806167974 0)
(0.963162716413 -0.12538635001 0)
(0.98147791602 -0.131429530151 0)
(1.01466310865 -0.134683138556 0)
(1.06904801045 -0.144032068989 0)
(1.14158764711 -0.178147806802 0)
(1.20840950016 -0.262038580613 0)
(1.22775211563 -0.403007997755 0)
(1.17488298245 -0.557710830252 0)
(0.914734943748 0.328527892631 0)
(0.94528090542 0.0387270571132 0)
(0.953461687502 0.0365279727629 0)
(0.946533029916 0.00101781076402 0)
(0.950999465525 -0.0191924403009 0)
(0.952709135486 -0.0398807714073 0)
(0.956657350399 -0.0599510446465 0)
(0.961088657793 -0.079887890595 0)
(0.965710693514 -0.0990594920599 0)
(0.971761689024 -0.116158999147 0)
(0.981321786688 -0.130416837822 0)
(0.998364324262 -0.141850534134 0)
(1.02736865707 -0.153178117163 0)
(1.07059857461 -0.172924202304 0)
(1.12149889583 -0.215337301246 0)
(1.16005487534 -0.294072020681 0)
(1.16082360189 -0.405238428399 0)
(1.11444824812 -0.516455914505 0)
(0.97155421392 0.366775775682 0)
(0.957975898431 0.0468172092258 0)
(0.981000718986 0.0378225561129 0)
(0.970214316511 0.00606599895058 0)
(0.975464625808 -0.0157280862524 0)
(0.975575408238 -0.037362016555 0)
(0.977912567979 -0.0585552652173 0)
(0.980710626231 -0.0794564871613 0)
(0.984002958381 -0.0997271576692 0)
(0.989031567673 -0.118522698125 0)
(0.997497371108 -0.13561162672 0)
(1.01235778214 -0.151617424022 0)
(1.03605065785 -0.169637708469 0)
(1.06806300176 -0.196853166318 0)
(1.10087139682 -0.242792743831 0)
(1.11952383173 -0.313150765594 0)
(1.1096939167 -0.40023036988 0)
(1.06887588758 -0.482312273698 0)
(1.01657787746 0.370062822094 0)
(0.970788149012 0.0548967859015 0)
(1.00419131836 0.0405268233512 0)
(0.990756987809 0.0129380378001 0)
(0.996428003195 -0.00985405244731 0)
(0.995482536273 -0.0318978745934 0)
(0.996606130653 -0.0537618461591 0)
(0.998143794513 -0.0753049522692 0)
(1.00026991224 -0.0964015752109 0)
(1.00416880798 -0.116611488257 0)
(1.01109239654 -0.136083931697 0)
(1.02301536936 -0.155858091543 0)
(1.04078000748 -0.178889485126 0)
(1.06233625875 -0.210647192088 0)
(1.08076713934 -0.256651373244 0)
(1.08583441487 -0.317951340849 0)
(1.07003231138 -0.386775429876 0)
(1.03381234787 -0.449250799679 0)
(1.05567284487 0.366907460606 0)
(0.982235114915 0.0598904761193 0)
(1.02279786273 0.0382336339716 0)
(1.00750769751 0.01595808051 0)
(1.01322932442 -0.00715270453683 0)
(1.01163478051 -0.02864404712 0)
(1.01182633514 -0.0504750389392 0)
(1.01236492785 -0.0720391630757 0)
(1.01344383904 -0.0934430560572 0)
(1.01614230705 -0.114494169792 0)
(1.02123303154 -0.13563740156 0)
(1.02983412096 -0.158055398663 0)
(1.04169983044 -0.184279260065 0)
(1.05421673958 -0.217929587462 0)
(1.06178803361 -0.261708909878 0)
(1.05786921042 -0.314347655718 0)
(1.03896403314 -0.36947939745 0)
(1.00646543632 -0.418344421826 0)
(1.0727585248 0.350446763651 0)
(0.992457272502 0.0619694220429 0)
(1.03154191966 0.0335615108438 0)
(1.01682789974 0.0163077120562 0)
(1.02191060109 -0.00655747490292 0)
(1.0202016652 -0.0270374438876 0)
(1.01971185685 -0.0483431528572 0)
(1.01959012369 -0.0694049249985 0)
(1.01983921139 -0.0906296079357 0)
(1.02142510204 -0.111953343693 0)
(1.02469149268 -0.133994056848 0)
(1.03014469008 -0.157918280775 0)
(1.03705599459 -0.185512674994 0)
(1.04285894123 -0.219178628483 0)
(1.04328714437 -0.259704742655 0)
(1.03421936986 -0.305214576522 0)
(1.01409951931 -0.350699944064 0)
(0.984631187627 -0.390556022891 0)
(1.07695638161 0.334255474931 0)
(1.00013487453 0.0601335876419 0)
(1.03438792057 0.0301693778249 0)
(1.02117056418 0.015379461858 0)
(1.02537284897 -0.00677946215945 0)
(1.02391812319 -0.0265288216851 0)
(1.02307800954 -0.0472953388381 0)
(1.02261150057 -0.06791832726 0)
(1.02224590244 -0.0888554831378 0)
(1.02287984736 -0.110212170042 0)
(1.02444133697 -0.132657940594 0)
(1.02712890063 -0.15701297351 0)
(1.02985765332 -0.1845684784 0)
(1.03041176826 -0.21667027262 0)
(1.02572090971 -0.253222078328 0)
(1.01333079968 -0.292320897449 0)
(0.992928935966 -0.330281084637 0)
(0.9661057036 -0.363282616924 0)
(1.0759769086 0.311535094446 0)
(1.0057656769 0.0580988456156 0)
(1.03378268289 0.0275946641165 0)
(1.02266498259 0.0139010757047 0)
(1.0255435345 -0.00777791531586 0)
(1.02432143037 -0.0270623553973 0)
(1.02299545918 -0.0476508219932 0)
(1.02214746517 -0.0681026829487 0)
(1.02109095976 -0.0890483136062 0)
(1.02056165792 -0.110518369761 0)
(1.02029882274 -0.133163370843 0)
(1.02015638576 -0.157368956559 0)
(1.01902845409 -0.184080667537 0)
(1.015173807 -0.213577890498 0)
(1.00655766411 -0.24560258861 0)
(0.991971930202 -0.278293598336 0)
(0.971814384609 -0.309328454933 0)
(0.947576475654 -0.336129093338 0)
(1.07188419118 0.292629254699 0)
(1.01087281674 0.0569002643574 0)
(1.03186347501 0.0272760307931 0)
(1.02341131433 0.0138143024662 0)
(1.02446322721 -0.00691519209232 0)
(1.02334121336 -0.0255718820454 0)
(1.02127688306 -0.0454733122281 0)
(1.01981693217 -0.0654253191321 0)
(1.0177365571 -0.0859440683768 0)
(1.01582047519 -0.107133692099 0)
(1.01354432896 -0.129271696165 0)
(1.01065542419 -0.152719017137 0)
(1.00621087638 -0.17760975184 0)
(0.998896821729 -0.204111850188 0)
(0.987522644831 -0.231456139822 0)
(0.971697156116 -0.258486114582 0)
(0.952195279838 -0.283461732189 0)
(0.930377477277 -0.305021664129 0)
(1.06182456309 0.257107768185 0)
(1.01436373364 0.0478472469434 0)
(1.02807222945 0.0213334071229 0)
(1.02267941344 0.00782689747957 0)
(1.02193381272 -0.0110925481532 0)
(1.02087712283 -0.0284848179559 0)
(1.01793432773 -0.0468254310928 0)
(1.0156824932 -0.0653844786326 0)
(1.01242286248 -0.0844873632689 0)
(1.00900650883 -0.104258917984 0)
(1.00475199829 -0.124809040611 0)
(0.999512108371 -0.146237497521 0)
(0.992437142952 -0.168442398727 0)
(0.982732928873 -0.191307327802 0)
(0.969764143845 -0.214100337468 0)
(0.953605360045 -0.235996849247 0)
(0.935144926292 -0.255892825685 0)
(0.91555016418 -0.273001584598 0)
(1.0503412004 0.230265891846 0)
(1.01505752483 0.0408967925389 0)
(1.02241126306 0.0173372113635 0)
(1.01979609551 0.00415112002713 0)
(1.01747298639 -0.0130094735136 0)
(1.01635049789 -0.0289221886005 0)
(1.01250042222 -0.0455528092899 0)
(1.00932511739 -0.0622687698504 0)
(1.00479034491 -0.0794978489462 0)
(0.999843246658 -0.097152622275 0)
(0.993822077824 -0.115425596677 0)
(0.986601878822 -0.134101807783 0)
(0.977648583869 -0.15318092708 0)
(0.966477284395 -0.172208703892 0)
(0.95284278385 -0.190845149988 0)
(0.937016365782 -0.208317051762 0)
(0.919873204133 -0.224146325693 0)
(0.902325513812 -0.23767973158 0)
(1.03255115397 0.203246888975 0)
(1.01432336955 0.0345334895327 0)
(1.01368765558 0.014474471227 0)
(1.01412229229 0.00207866549559 0)
(1.01023703127 -0.0128311539271 0)
(1.00907144059 -0.0269785103768 0)
(1.00438733178 -0.0414944997653 0)
(1.0003609602 -0.0560812088964 0)
(0.994701305181 -0.0709724922808 0)
(0.988481747436 -0.0861257423552 0)
(0.981071242829 -0.101603181201 0)
(0.972474727762 -0.11723138285 0)
(0.962385153798 -0.132871009968 0)
(0.950550615412 -0.148227783647 0)
(0.936925452995 -0.162996970872 0)
(0.921852437806 -0.176753281197 0)
(0.906124105521 -0.189157579462 0)
(0.890449528401 -0.199862521705 0)
(1.01457793971 0.181974072054 0)
(1.0140128112 0.022951781659 0)
(1.00622499558 0.0111280095775 0)
(1.00890579293 -0.00106423310757 0)
(1.00374315411 -0.0125840131101 0)
(1.0021822067 -0.0244566817044 0)
(0.996686846329 -0.036286494622 0)
(0.991772464103 -0.0481831428433 0)
(0.985092833619 -0.0602967276926 0)
(0.977815666285 -0.0724447344696 0)
(0.96937310837 -0.084791392261 0)
(0.959880882979 -0.0970315546438 0)
(0.949193343453 -0.109161793276 0)
(0.937182592191 -0.12086594844 0)
(0.923891122294 -0.132060289114 0)
(0.909656242951 -0.14240233072 0)
(0.895178940557 -0.151787751603 0)
(0.881022586471 -0.159922325268 0)
(1.01916530774 0.165509228191 0)
(1.00975353034 0.012073707496 0)
(1.00614820921 0.00721910099826 0)
(1.00595304195 -0.004143206747 0)
(1.00125917436 -0.0124810493055 0)
(0.998440436206 -0.0221898867387 0)
(0.992432148028 -0.0314016411689 0)
(0.986638964057 -0.0409895763806 0)
(0.979256982114 -0.0504812268976 0)
(0.971297652773 -0.0601850924775 0)
(0.962297225472 -0.0697761439693 0)
(0.952440670994 -0.0793890924074 0)
(0.941614356694 -0.0886648719773 0)
(0.929741629215 -0.0976966999862 0)
(0.916878364314 -0.106132474874 0)
(0.903330675748 -0.114053196522 0)
(0.889742720513 -0.121104180708 0)
(0.876612616091 -0.127396233653 0)
(1.02696472755 0.156216493402 0)
(1.01003360055 0.0105894477996 0)
(1.01037248805 0.00797138196642 0)
(1.00801063411 -0.0013892244893 0)
(1.00355190021 -0.00729294171647 0)
(0.999782002001 -0.0148133976245 0)
(0.993282871647 -0.021848379736 0)
(0.986892329941 -0.0294213838268 0)
(0.978975448973 -0.0369446542839 0)
(0.97055907248 -0.0447182466336 0)
(0.961221652448 -0.0524094370015 0)
(0.951147649944 -0.06016775786 0)
(0.940264640874 -0.0676464772669 0)
(0.928537545301 -0.0749503148552 0)
(0.915960967266 -0.0817487772203 0)
(0.902893081909 -0.0881293546545 0)
(0.88983804221 -0.093812946301 0)
(0.877308630998 -0.0988829218544 0)
(1.03433867992 0.0920579626132 0)
(1.01132757662 -0.0216521881793 0)
(1.01583549386 -0.0211772078486 0)
(1.01192343453 -0.0282129555666 0)
(1.00818597571 -0.0316230841623 0)
(1.00355874448 -0.0366918427419 0)
(0.996779232058 -0.0415055514652 0)
(0.989822283191 -0.0466554330734 0)
(0.981581549943 -0.0520275325163 0)
(0.972864911892 -0.0574567566191 0)
(0.963321127044 -0.0630832935851 0)
(0.95316325058 -0.0685914159692 0)
(0.942316771826 -0.0740898008615 0)
(0.930774842462 -0.0792428353065 0)
(0.918565813821 -0.0842069611864 0)
(0.9059522327 -0.0885972817799 0)
(0.893482606621 -0.0926442176283 0)
(0.881674686854 -0.0960715896419 0)
(1.05789077466 0.355563721626 0)
(1.01568130017 0.109666201955 0)
(1.02247508889 0.116692478038 0)
(1.0166472615 0.106848597308 0)
(1.01334973625 0.103628453414 0)
(1.00791581625 0.0975098664744 0)
(1.00090709732 0.0918342335688 0)
(0.993549318323 0.0853785202846 0)
(0.984964460554 0.0787188830073 0)
(0.975887226386 0.071702424885 0)
(0.966009731912 0.0644680194346 0)
(0.955538982607 0.0569098482577 0)
(0.944547521585 0.0491509147256 0)
(0.932917981468 0.041412558065 0)
(0.920732551908 0.033860757157 0)
(0.908150575065 0.026561454478 0)
(0.895543964633 0.0195781283992 0)
(0.882876480002 0.0130525465349 0)
(1.01474275588 -1.07121565798 0)
(1.00050113259 -0.482844267849 0)
(1.03884732449 -0.485304924288 0)
(1.02800317341 -0.4749046238 0)
(1.02674106317 -0.464776580916 0)
(1.02023153971 -0.456738826708 0)
(1.01313222583 -0.448364471763 0)
(1.00539217077 -0.440603607099 0)
(0.996741848876 -0.432780931643 0)
(0.987674556788 -0.424949507409 0)
(0.978124392858 -0.416987221449 0)
(0.968048958851 -0.40857345371 0)
(0.957474253441 -0.399650757512 0)
(0.946577997839 -0.390531009855 0)
(0.935409944295 -0.380964385128 0)
(0.924148706833 -0.37093008213 0)
(0.91346679131 -0.360189210152 0)
(0.904747653611 -0.349337237618 0)
(1.26106664663 4.38072946055 0)
(1.0682889002 1.38288986555 0)
(1.02047196753 1.41815918807 0)
(1.02130241925 1.35795099169 0)
(1.01643125397 1.32883544487 0)
(1.00939413666 1.28945801269 0)
(1.00168784742 1.2529474079 0)
(0.993297411094 1.21544295695 0)
(0.983989529055 1.17798469648 0)
(0.974049658081 1.13999514045 0)
(0.962942434551 1.10133829641 0)
(0.951423756928 1.06119177767 0)
(0.939553946958 1.02006066695 0)
(0.927148035595 0.978498429542 0)
(0.914212277 0.936680521661 0)
(0.900963298353 0.894940850291 0)
(0.887098770198 0.853601772368 0)
(0.872299306397 0.813406869018 0)
(0.335029750386 -12.2247306768 0)
(0.90828797822 -3.03628620161 0)
(1.10377437252 -3.01467718848 0)
(1.06256916954 -2.88199174522 0)
(1.07211905005 -2.78862744651 0)
(1.06241629257 -2.69101304547 0)
(1.05732412058 -2.59938761085 0)
(1.05022743525 -2.51102584825 0)
(1.04267297761 -2.42591212893 0)
(1.03440390838 -2.34379142974 0)
(1.02561662192 -2.26437223415 0)
(1.01567303245 -2.18751868167 0)
(1.00496521215 -2.11345639056 0)
(0.993862432611 -2.04140920733 0)
(0.982626529689 -1.9706186748 0)
(0.971407167409 -1.90048904433 0)
(0.961040879131 -1.83101760211 0)
(0.948514740921 -1.76295357625 0)
(3.00136445884 27.1088173135 0)
(1.212970517 4.79367035855 0)
(1.00054655941 4.42048093497 0)
(1.02965208776 4.25648839722 0)
(1.01144240045 4.08682450232 0)
(1.00350048514 3.90508748543 0)
(0.991569032735 3.73629181627 0)
(0.979828968675 3.57125187611 0)
(0.967248145581 3.41484154468 0)
(0.95445159413 3.2668830903 0)
(0.94165056497 3.12874528801 0)
(0.929758330496 3.00310129814 0)
(0.918913124148 2.89073556217 0)
(0.909824393248 2.78989736681 0)
(0.903053016596 2.70044430331 0)
(0.89880208703 2.62241122168 0)
(0.896463945123 2.55544295589 0)
(0.90309166349 2.49817732501 0)
(-2.64033692772 -43.3933266243 0)
(1.17982423304 -6.50135802144 0)
(1.05043305357 -5.37425898614 0)
(1.08853642767 -5.30677286167 0)
(1.08327735359 -5.00009250125 0)
(1.07059319444 -4.75987901948 0)
(1.06740394547 -4.52423314367 0)
(1.05994096528 -4.30376121996 0)
(1.05289095698 -4.09902660016 0)
(1.04418283803 -3.910881905 0)
(1.03394582464 -3.74079386402 0)
(1.02290471101 -3.5904683356 0)
(1.01056978561 -3.45930752586 0)
(0.996130881588 -3.34681032228 0)
(0.979781149594 -3.25413517643 0)
(0.961671286123 -3.1827698237 0)
(0.941647285031 -3.13350401777 0)
(0.912798638793 -3.1064819963 0)
(4.35603784643 53.097536393 0)
(0.606432566812 8.53225224963 0)
(1.3170504859 7.82762039602 0)
(1.09718688188 7.54845889507 0)
(1.15258605269 7.12531821262 0)
(1.13216871861 6.78545673295 0)
(1.12903340913 6.45266070882 0)
(1.12263236367 6.14727306331 0)
(1.1164809794 5.86617996531 0)
(1.11023694057 5.61015071183 0)
(1.10330709382 5.37871980195 0)
(1.09574270041 5.16935210871 0)
(1.08804024393 4.97878549328 0)
(1.07963609361 4.80452648102 0)
(1.06952970881 4.64287227964 0)
(1.05669028148 4.49097104792 0)
(1.03975792973 4.34874568285 0)
(1.02504188528 4.22060952602 0)
(0.495578228837 -54.698594712 0)
(1.02577563268 -10.9705335156 0)
(0.758578333136 -10.5172013969 0)
(0.818791465525 -9.91688943247 0)
(0.790482097303 -9.4644723287 0)
(0.791047590543 -9.01644935871 0)
(0.785638839369 -8.59801056624 0)
(0.78259866312 -8.20336667445 0)
(0.780425306718 -7.83327080656 0)
(0.778783377706 -7.4871127496 0)
(0.77759900953 -7.16365428643 0)
(0.775958736545 -6.86158897473 0)
(0.772824160059 -6.579979848 0)
(0.767423218504 -6.31762359844 0)
(0.760161857357 -6.07270624533 0)
(0.75343167099 -5.8414978972 0)
(0.752360702653 -5.61213857123 0)
(0.756984444043 -5.35442517218 0)
(-0.280364782294 0.0105523818887 -2.92013677963e-19)
(-0.322992603226 -0.103635536667 0)
(-0.439851610409 -0.239717409772 0)
(-0.485245623834 -0.324189238267 0)
(-0.411556329321 -0.356074112594 0)
(-0.338236262444 -0.329171523364 1.48178938403e-19)
(-0.263380395478 -0.283895103076 0)
(-0.203736560283 -0.236284750994 0)
(-0.159376326731 -0.191759361776 -5.9104558128e-20)
(-0.127982554261 -0.151657676944 0)
(-0.107277792328 -0.116129473838 4.14827840849e-20)
(-0.0947834252308 -0.0847319607098 0)
(-0.0884222954172 -0.0571996852396 3.21501816045e-20)
(-0.0864642371187 -0.0331752081616 2.90076441e-20)
(-0.0874633583502 -0.0125835449495 0)
(-0.0903515229267 0.0047239448001 -2.44134543696e-20)
(-0.0942009919376 0.018705668873 -2.26770195438e-20)
(-0.0983860116511 0.0294190490436 -2.11982885514e-20)
(-0.102333254029 0.0368029034881 0)
(-0.105719545104 0.0408954858827 0)
(-0.108220076467 0.0416744899176 0)
(-0.109695564325 0.0391876422192 0)
(-0.11001049366 0.033456505097 0)
(-0.109147071664 0.0245577876674 0)
(-0.107074533159 0.0125547280991 1.46337994974e-20)
(-0.103860236411 -0.0024476705346 1.40012346465e-20)
(-0.0995595050861 -0.0203232321696 0)
(-0.094271799688 -0.040921558467 -1.28726481445e-20)
(-0.088083400039 -0.0640673776432 -1.23681844089e-20)
(-0.0811010340867 -0.0895739633761 -1.18989430984e-20)
(-0.0734172125356 -0.117227075151 0)
(-0.0651247784404 -0.146815408434 0)
(-0.0563069764939 -0.178117165451 1.06761605721e-20)
(-0.0470427375015 -0.210919629262 0)
(-0.0373875224942 -0.24501068573 0)
(-0.0274045057928 -0.280208072983 9.68112399476e-21)
(-0.0171505298084 -0.316327741649 0)
(-0.00666537626348 -0.353225092712 0)
(0.00401678600953 -0.390775012015 0)
(0.0148573255372 -0.4288899255 0)
(0.0258266359993 -0.467496872603 0)
(0.0368898735998 -0.506562281156 -1.63351691934e-20)
(0.0480232616154 -0.546062416204 0)
(0.0591957933784 -0.586012556002 0)
(0.0703931497295 -0.626432138776 -1.51527627564e-20)
(0.0815905933746 -0.667381027837 -1.47962568623e-20)
(0.0927810560527 -0.708915189499 0)
(0.103946591552 -0.751133617696 0)
(0.115085709872 -0.794120577226 -1.38303369077e-20)
(0.126193840349 -0.838011127001 0)
(0.137270506479 -0.882921207237 1.32659488127e-20)
(0.148322074803 -0.929020803155 0)
(0.159337524913 -0.976445271393 -1.27620385989e-20)
(0.170318626186 -1.02535113578 0)
(0.181251782731 -1.07584812226 -1.23164555208e-20)
(0.192151403597 -1.12807140906 -1.21149115e-20)
(0.203003440606 -1.18213153822 0)
(0.213832609345 -1.23815859767 0)
(0.224631647436 -1.29626895919 0)
(0.235390212916 -1.35655803188 -1.14513606869e-20)
(0.246038709693 -1.41905029195 0)
(0.256544375117 -1.48359105956 0)
(0.266774188669 -1.54974861874 0)
(0.276313004484 -1.61646226388 0)
(0.285130567434 -1.67940681315 0)
(0.293444973864 -1.73660866991 0)
(0.301454601535 -1.78773111269 0)
(0.30933544314 -1.83281978371 1.08780442214e-20)
(0.317280813143 -1.8722226422 0)
(0.325445710103 -1.90647051046 1.09463034345e-20)
(0.333988881392 -1.93619400424 1.10187406383e-20)
(0.343046283873 -1.96207281111 0)
(0.352736397648 -1.98476237637 -1.12425360169e-20)
(0.363172327246 -2.00488220528 0)
(0.374455466592 -2.02299058959 1.15781926653e-20)
(0.386693068794 -2.03958686368 0)
(0.399967371088 -2.05509478609 -1.203857931e-20)
(0.414385071597 -2.06988183203 1.23219633461e-20)
(0.430023232486 -2.08428058382 0)
(0.446982621964 -2.09856260176 0)
(0.465343358457 -2.11299277946 0)
(0.485191962635 -2.1277653288 0)
(0.506576397402 -2.14307477856 1.44312634949e-20)
(0.529571277781 -2.15900953074 -1.50289054707e-20)
(0.55419687503 -2.17565573657 3.13967837075e-20)
(0.580447201381 -2.1929189035 3.28980032029e-20)
(0.608326665258 -2.2106350448 3.45756498082e-20)
(0.637581850007 -2.22842788043 0)
(0.668171487281 -2.24548236976 0)
(0.699285954404 -2.26126020069 0)
(0.730155490969 -2.27394528175 4.37814419721e-20)
(0.760471299573 -2.28229744356 0)
(0.789682702185 -2.28445755631 0)
(0.817418842758 -2.27808567404 5.56652170258e-20)
(0.843227591579 -2.25810728096 0)
(0.866643131865 -2.21896710098 -6.79393294597e-20)
(0.888136414373 -2.15709727164 0)
(0.907583494655 -2.07368495604 8.59247307785e-20)
(0.920657293762 -1.97110494598 0)
(0.922013705947 -1.85145038521 0)
(0.91425785791 -1.68869263616 0)
(0.915489395062 -1.44853906395 1.59117801517e-19)
(0.935432345624 -1.19386676855 0)
(1.01545363898 -0.967859827019 2.48071927216e-19)
(1.07313590221 -0.719915276875 3.30956247375e-19)
(0.874208710791 -0.559934318289 0)
(0.455364484116 -0.0876518793669 0)
(0.439045464133 0.502147923215 0)
(0.400680169553 0.812457894213 2.83638656933e-19)
(0.377546424721 1.03177299872 0)
(0.363501999897 1.20011158433 0)
(0.355992098658 1.33568848125 1.69474622059e-19)
(0.351814769625 1.44734035008 1.53638937656e-19)
(0.348707369768 1.53953558429 0)
(0.346305020259 1.61595136785 -1.32973540142e-19)
(0.344116951872 1.67905522007 -1.25975386002e-19)
(0.342002793754 1.73074618813 1.20422076391e-19)
(0.339937725515 1.77232120484 0)
(0.337937667103 1.80474274171 0)
(0.335992724616 1.82867659422 0)
(0.334039508329 1.84469481287 -1.07192211615e-19)
(0.332005941549 1.85282772357 0)
(0.329860386051 1.85330054481 -1.03930666156e-19)
(0.327617829332 1.84627401147 0)
(0.325278049247 1.8320362154 0)
(0.322801994462 1.81092235843 0)
(0.32019801655 1.78362015545 1.01370793893e-19)
(0.317502377626 1.75022905947 1.01135490721e-19)
(0.314652827798 1.71442193418 0)
(0.311733404567 1.67651373628 0)
(0.308769332577 1.63667574912 0)
(0.305719878542 1.59467195627 0)
(0.30253665799 1.55037024508 0)
(0.299185445492 1.50349676843 0)
(0.295629764764 1.45388830775 2.09717776131e-19)
(0.291836646976 1.4012968284 0)
(0.287772355285 1.34559331874 0)
(0.283428110076 1.28655534153 0)
(0.27879923295 1.22404929545 -2.21600171216e-19)
(0.273869530052 1.15779576664 -2.25387471521e-19)
(0.268598079259 1.08746813443 2.29478141816e-19)
(0.262946086524 1.01262328112 2.33857459368e-19)
(0.256998114179 0.932972832566 0)
(0.250962794944 0.848129127451 0)
(0.24510046308 0.75788722145 0)
(0.239596940164 0.662010565515 2.54578635116e-19)
(0.234574530126 0.56051454097 0)
(0.230172088842 0.453540536101 0)
(0.226573549357 0.341843585568 -2.73748172681e-19)
(0.22390773741 0.226324072361 0)
(0.222084850562 0.108142911856 -2.88072168785e-19)
(0.220719675824 -0.0113764160204 0)
(0.219377271732 -0.130334371027 -3.03067484566e-19)
(0.217910247564 -0.246751432017 0)
(0.216327608987 -0.357803854729 0)
(0.214454067536 -0.460412540164 0)
(0.212281232526 -0.550673061088 0)
(0.210023132306 -0.624525811251 0)
(0.208152295953 -0.677446529471 0)
(0.207090009712 -0.707428274381 0)
(0.20700695822 -0.714313761266 0)
(0.207140189498 -0.701421129045 -3.19016281739e-19)
(0.207684415564 -0.668747282163 0)
(0.208744651281 -0.616598263779 0)
(0.210391157228 -0.545332914819 -2.94178391331e-19)
(0.212681360496 -0.455911075574 0)
(0.215646718831 -0.349548592515 0)
(0.219243633311 -0.227751255727 -2.68242023735e-19)
(0.223537008361 -0.0920061029302 0)
(0.228992850148 0.0554284000613 0)
(0.236537448933 0.211268119246 -2.46494020601e-19)
(0.247669343393 0.36974418593 2.413001483e-19)
(0.263826485193 0.522534410038 -2.37547812376e-19)
(0.285952996978 0.653574201723 0)
(0.312271774245 0.749091681938 0)
(0.339527132385 0.793495606098 -4.64368112596e-19)
(0.360928582185 0.773636707483 0)
(0.366861251901 0.682987029968 4.48003462196e-19)
(0.346813802181 0.539045821713 4.32486398118e-19)
(0.299190578177 0.389909420672 0)
(-0.35354303423 0.335706730935 8.97575770773e-19)
(-0.585310764606 0.0319356103862 0)
(-0.602012836089 -0.205660421114 -2.61252199994e-19)
(-0.451847713028 -0.309305778915 1.74314946502e-19)
(-0.271568242499 -0.322386854099 1.2986159921e-19)
(-0.120339183428 -0.291733721826 -5.33277632632e-20)
(-0.0158877627642 -0.247201664153 -8.75583933775e-20)
(0.0496652227219 -0.202682975498 0)
(0.0866953833683 -0.164495034983 3.36196127745e-20)
(0.104892691848 -0.134571098897 -5.83380947762e-20)
(0.111628013591 -0.112789889039 -7.97830930797e-20)
(0.112141644061 -0.0979522748332 4.81580822004e-20)
(0.109865116064 -0.0887057310891 -6.73829329857e-20)
(0.106918380908 -0.0835518176003 -2.14149802382e-20)
(0.104567761965 -0.0812636242472 0)
(0.103441355896 -0.0806613882495 1.90042012188e-20)
(0.103855576031 -0.0808679336959 1.80319614169e-20)
(0.105833147834 -0.0810781054862 1.71732172106e-20)
(0.109330109989 -0.0807365848626 -3.10363854799e-20)
(0.114179708119 -0.0793544038929 0)
(0.12023007144 -0.0766274148178 -2.83077879889e-20)
(0.127274310138 -0.072304695547 0)
(0.135163266518 -0.0662599864201 2.60076600833e-20)
(0.14371787255 -0.0584088896095 0)
(0.152804350278 -0.0487413978126 -3.69263892186e-20)
(0.162285193068 -0.0372806266986 1.06650884345e-20)
(0.172048059324 -0.0240835953406 2.2266022816e-20)
(0.181977849647 -0.00923271346482 3.30753038886e-20)
(0.19198656121 0.00718122104625 1.12258431675e-20)
(0.201991375687 0.0250461669062 1.08627456204e-20)
(0.211924639299 0.0442571943636 0)
(0.221721163088 0.0646902384924 1.86727685961e-20)
(0.231341165337 0.0862391256133 -9.89341084488e-21)
(0.240755648811 0.108779524851 0)
(0.249941075787 0.132209650781 0)
(0.258887203088 0.156410756773 -9.08014421318e-21)
(0.267599327901 0.181293855911 0)
(0.27608640204 0.206757368246 0)
(0.284369063803 0.232730049915 0)
(0.292472177965 0.259131661991 0)
(0.300423183648 0.285917804266 0)
(0.308247007927 0.313036955262 -1.19428548334e-20)
(0.315971885547 0.340478171706 -2.67997960178e-20)
(0.323619836702 0.368222063214 0)
(0.331217232337 0.396294932428 -1.08054149921e-20)
(0.33878148945 0.424709031159 1.42838477407e-20)
(0.346331874791 0.453528230375 0)
(0.353880000466 0.482794132351 0)
(0.361436252584 0.512604019669 3.64104221861e-20)
(0.369003649897 0.54302329006 2.24202815097e-20)
(0.376578017216 0.574174462502 -1.29730743693e-20)
(0.384160899968 0.60613814231 -2.14387095299e-20)
(0.391754555213 0.639047006202 -8.4444347757e-21)
(0.399368474701 0.673000813934 0)
(0.406987247925 0.708148443692 3.2366223204e-20)
(0.414593163751 0.744609097091 1.20145920401e-20)
(0.422142633571 0.782534108731 0)
(0.429585441724 0.822054570399 -1.91960332365e-20)
(0.436851057503 0.863309802649 1.89255836687e-20)
(0.443907635137 0.906446013005 1.1493711953e-20)
(0.450720090777 0.951642629506 0)
(0.457183238673 0.999086602488 0)
(0.463414180825 1.04877567835 0)
(0.469716309461 1.09830926428 -1.79876462348e-20)
(0.475727814928 1.14069569168 0)
(0.4810495697 1.17478241979 1.75913346626e-20)
(0.485484494829 1.20091372963 0)
(0.488887902172 1.21974192299 6.20203905485e-21)
(0.491174452568 1.23205816318 0)
(0.4923085696 1.2387016187 5.91851286022e-21)
(0.492309993554 1.24046237371 5.7990955537e-21)
(0.491239124428 1.23801636481 0)
(0.489196034361 1.23190699647 1.14212573426e-20)
(0.48631002606 1.22251798236 0)
(0.482720122318 1.21010100044 -1.175304249e-20)
(0.478594333874 1.19479146834 0)