/*--------------------------------*- C++ -*----------------------------------*\
| =========                 |                                                 |
| \\      /  F ield         | OpenFOAM: The Open Source CFD Toolbox           |
|  \\    /   O peration     | Version:  v1806                                 |
|   \\  /    A nd           | Web:      www.OpenFOAM.com                      |
|    \\/     M anipulation  |                                                 |
\*---------------------------------------------------------------------------*/
FoamFile
{
    version     2.0;
    format      ascii;
    class       volScalarField;
    location    "26";
    object      p;
}
// * * * * * * * * * * * * * * * * * * * * * * * * * * * * * * * * * * * * * //

dimensions      [0 2 -2 0 0 0 0];


internalField   nonuniform List<scalar> 
12225
(
-4.57528933166
-5.32294078118
-5.55662753348
-5.61110265397
-5.64941556328
-5.67779286112
-5.68377578735
-5.66526905671
-5.62333214105
-5.55746099672
-5.46559347653
-5.34458825783
-5.19018894599
-4.99645121866
-4.75486420695
-4.45273406733
-4.06829438416
-3.56249617224
-4.74920726965
-5.33365910852
-5.56229750649
-5.6203959485
-5.65713163209
-5.68401363328
-5.68937513745
-5.67066499804
-5.6287694939
-5.56318957752
-5.47188848862
-5.3517812598
-5.19872490647
-5.0070043279
-4.7685753227
-4.47197601197
-4.0997691268
-3.66046805464
-4.8922225712
-5.32091300173
-5.55008792605
-5.62073163468
-5.65945803711
-5.68671970414
-5.69318765446
-5.67588660141
-5.63558088149
-5.5719551728
-5.4831896958
-5.36648212127
-5.21813901539
-5.03324691719
-4.8053266401
-4.52641337451
-4.18834216767
-3.81105228033
-5.01740925546
-5.3339234954
-5.55486211694
-5.63488667774
-5.67381314173
-5.69960988746
-5.70595994503
-5.68942240574
-5.65047683128
-5.58896475073
-5.503323337
-5.39111711991
-5.24926186272
-5.07392693786
-4.86062052798
-4.60512613255
-4.30624790701
-3.98426207828
-5.12916140889
-5.36203433831
-5.56205919296
-5.64631202411
-5.68535139325
-5.70987391843
-5.71652929522
-5.70154559967
-5.6649838133
-5.60679290653
-5.52571785554
-5.41978082359
-5.28663169391
-5.12366538971
-4.92842603525
-4.69993146926
-4.44148845256
-4.17166681946
-5.22972966617
-5.40079646977
-5.57538871846
-5.66143439443
-5.70191293601
-5.72606048289
-5.73345691395
-5.72052055115
-5.68696626827
-5.63286403937
-5.55734409017
-5.45897887902
-5.33622894974
-5.18773539836
-5.01290284825
-4.81326388251
-4.59478671135
-4.37426780241
-5.32121305807
-5.44716514063
-5.59548400341
-5.67993393551
-5.72143082529
-5.74513415058
-5.75309673017
-5.74232681441
-5.71225944809
-5.66303534214
-5.59417837808
-5.50483869788
-5.39428747674
-5.2623230261
-5.10990687511
-4.9403508471
-4.76095071464
-4.58659363666
-5.40548128775
-5.49878450342
-5.62231610299
-5.70245636845
-5.74460920322
-5.76842848474
-5.77749117831
-5.76956099651
-5.74389514832
-5.70067489824
-5.63981123653
-5.56103771105
-5.46439876188
-5.35070235838
-5.22211398572
-5.08306571348
-4.94126846798
-4.80961304107
-5.48413012289
-5.55397179759
-5.65552331526
-5.72954170244
-5.77179565998
-5.79613865109
-5.80669910093
-5.80204774439
-5.7814333581
-5.74509465511
-5.69330868407
-5.62636605294
-5.54500226494
-5.45084141104
-5.34688456763
-5.23812767123
-5.13207798331
-5.03958882687
-5.55851500983
-5.61159471496
-5.69454725496
-5.76156546678
-5.80337798744
-5.82862964985
-5.84123103107
-5.84046955037
-5.82572088445
-5.79729258971
-5.75577438659
-5.70194047995
-5.63709479192
-5.56345411568
-5.48450719339
-5.40537364396
-5.33298261089
-5.27621993624
-5.62975907038
-5.67091796311
-5.73872267285
-5.79869503011
-5.83970460826
-5.86623562703
-5.88148175403
-5.88525576117
-5.87714248061
-5.85753735552
-5.82728509574
-5.78755269823
-5.74007220326
-5.68743319373
-5.63331236952
-5.5826297241
-5.54151931433
-5.51702934532
-5.69309716436
-5.7265741614
-5.78341815486
-5.83741905243
-5.87757312454
-5.90561448153
-5.92386438381
-5.93242076721
-5.93108627049
-5.92035117331
-5.90123496541
-5.87516252578
-5.84411335844
-5.81083193581
-5.77893940173
-5.75297803887
-5.73828056364
-5.74044302341
-5.75467979662
-5.78257681514
-5.83081412327
-5.87965093847
-5.91906237683
-5.94890296626
-5.97062003566
-5.98444443616
-5.99037975292
-5.98901041582
-5.98147765048
-5.96936649893
-5.95479767597
-5.94051507556
-5.92995607442
-5.92716267302
-5.93664674503
-5.96259257749
-5.82379233327
-5.84728483658
-5.88834060321
-5.93260306149
-5.97159378752
-6.0039407852
-6.03024711362
-6.05074904379
-6.06562532385
-6.07554780673
-6.08172293634
-6.08581597221
-6.08994537141
-6.09672355861
-6.10921587004
-6.1308434282
-6.16520519234
-6.21517603738
-5.90098672398
-5.92135300157
-5.95710782639
-5.9980238546
-6.03738264854
-6.0732467498
-6.10553127673
-6.13437914758
-6.16007059565
-6.18332716859
-6.20534337626
-6.22773347985
-6.25246470461
-6.28184524606
-6.31842212628
-6.36488142794
-6.42389985492
-6.49712025175
-5.98653707456
-6.00507750502
-6.03775082993
-6.07720809126
-6.11834876199
-6.15915119481
-6.19908271042
-6.2381237065
-6.27656941887
-6.31509880176
-6.35480257551
-6.39708315656
-6.44361926514
-6.4962415368
-6.55689753009
-6.62747315605
-6.70979122978
-6.80439076927
-6.07984045467
-6.09784253208
-6.12988764565
-6.17037092728
-6.21535874291
-6.26298064848
-6.31245617932
-6.36359626898
-6.41659306025
-6.4719908867
-6.53063805236
-6.59361938439
-6.66216120168
-6.73755991417
-6.82108328544
-6.91389429489
-7.01702436547
-7.13015986901
-6.1780926318
-6.19681545663
-6.23083135639
-6.27525638702
-6.32667279941
-6.383317212
-6.44427385762
-6.50917810267
-6.57802986163
-6.65112841152
-6.72898876859
-6.81228066662
-6.90173063477
-6.99807122136
-7.10195192978
-7.21390466332
-7.33435403819
-7.46235059903
-6.27364817579
-6.29461281229
-6.33368858568
-6.38559604721
-6.4465926956
-6.5147878168
-6.5891651791
-6.66919003896
-6.7546123986
-6.84541631897
-6.94174059715
-7.04382078912
-7.15190313609
-7.26621029519
-7.38687830266
-7.51394331625
-7.64738640214
-7.78581604214
-6.33124213861
-6.35562005546
-6.40211409842
-6.46360959059
-6.53503691737
-6.61423480073
-6.70026459972
-6.79256145205
-6.89069030399
-6.9944169465
-7.10363155541
-7.21830942992
-7.33840581887
-7.4638598351
-7.59453011532
-7.73021365044
-7.87069086764
-8.0144136942
-6.35267460785
-6.38106254266
-6.43604230582
-6.50738937639
-6.58817830914
-6.67625600499
-6.77111973814
-6.87228979485
-6.97925099064
-7.09164864108
-7.20928888312
-7.33200659011
-7.45962654857
-7.59192230008
-7.72863222544
-7.86942483398
-8.01401788086
-8.16079484984
-6.34905583039
-6.38336517455
-6.44964630733
-6.53221341602
-6.62200059724
-6.71777560678
-6.81992352358
-6.92809392974
-7.04167765934
-7.1603050859
-7.28377030714
-7.41186298634
-7.54432437856
-7.68084796124
-7.82108788707
-7.96464283657
-8.11115609875
-8.25895810596
-6.32454567904
-6.36793571921
-6.44943684901
-6.54437526987
-6.64233243794
-6.74464487872
-6.85294807157
-6.96687044393
-7.08573313909
-7.20925578902
-7.337283382
-7.46958887047
-7.60585474853
-7.745724263
-7.88879317907
-8.03462905337
-8.18286315699
-8.33188144861
-6.2818385701
-6.33973443237
-6.44147715369
-6.54904526152
-6.65358486897
-6.76109307832
-6.87425590615
-6.99237289218
-7.11478576291
-7.2414322193
-7.37227639574
-7.5070990726
-7.64558025892
-7.78733962697
-7.93194052676
-8.07887665977
-8.22769024087
-8.37665264559
-6.22246067017
-6.30375882362
-6.43119708048
-6.55006937417
-6.65940132912
-6.7716074634
-6.88943544188
-7.01145207302
-7.13712181933
-7.266651067
-7.40008700299
-7.53721020261
-7.6776945895
-7.82116600709
-7.96717364478
-8.11518192118
-8.26470467408
-8.41403868298
-6.14652126528
-6.26550425732
-6.42274892046
-6.54885601587
-6.65992397083
-6.77499189067
-6.89563319133
-7.0197451607
-7.14713608178
-7.27827480832
-7.41323888942
-7.55178396844
-7.69357432754
-7.83821783784
-7.9852341678
-8.13401589519
-8.28389702225
-8.43282377006
-6.05354569021
-6.23167056121
-6.41975139844
-6.5496626745
-6.6629682489
-6.78185309568
-6.90539008189
-7.03131292839
-7.16005667614
-7.29235955696
-7.42834187471
-7.5677865923
-7.71039838807
-7.85581273501
-8.00356206646
-8.15303172806
-8.30345765401
-8.45244991641
-5.94183508705
-6.20888920487
-6.41630390145
-6.54066075878
-6.65432963275
-6.77644219867
-6.9023639852
-7.02991988862
-7.16007917208
-7.293678592
-7.43081493569
-7.57129086252
-7.71484907393
-7.86116194744
-8.00980963248
-8.1602477543
-8.31168158328
-8.46113869441
-5.81046101718
-6.21715806871
-6.43561092734
-6.54873878558
-6.66023666979
-6.78289971946
-6.90885904523
-7.03624006784
-7.16636870345
-7.30006210007
-7.43735193042
-7.57802916174
-7.7218445379
-7.86848791555
-8.01760323682
-8.16884875301
-8.32190706377
-8.474828233
-5.63982747264
-6.19946682184
-6.43051890067
-6.54067989935
-6.65390097155
-6.7787088021
-6.90592483405
-7.03410790071
-7.16486685044
-7.29907044034
-7.43676802117
-7.57778089623
-7.72188584221
-7.86879541571
-8.01819431859
-8.16988898983
-8.3239960954
-8.48445799696
-0.407476634778
-0.417471993962
-0.432973858913
-0.474082702897
-0.560939017111
-0.700022197403
-0.895586239875
-1.150687194
-1.46754464062
-1.84723978388
-2.28974024898
-2.7939747042
-3.35785668319
-3.97838679624
-4.65170354234
-5.37321237312
-6.13766082983
-6.93928749591
-7.77191472058
-8.62910826215
-9.50427883586
-10.3908406169
-11.2823103398
-12.1724529919
-13.0553673272
-13.925605565
-14.7782339102
-15.6089143059
-16.41392934
-17.1902190473
-17.9353653646
-18.6475818625
-19.3256600617
-19.9689214668
-20.5771372031
-21.1504570721
-21.6893195801
-22.1943782954
-22.6664196397
-23.1063026426
-23.5148971319
-23.8930463344
-24.24152951
-24.5610492937
-24.8522154731
-25.1155502915
-25.3514825956
-25.5603645475
-25.7424702918
-25.8980096365
-26.0271129685
-26.1298367154
-26.2061506824
-26.2559478153
-26.2790071509
-26.2750251028
-26.2437169993
-26.1849553393
-26.0987635775
-25.9853462181
-25.8450455702
-25.678337872
-25.4858428303
-25.2683757009
-25.02691573
-24.762612999
-24.4767626703
-24.1708196318
-23.8463472489
-23.5050149206
-23.1485383533
-22.7786722685
-22.39715218
-22.0056962271
-21.6059604928
-21.1995616344
-20.7880512583
-20.372954315
-19.9557433082
-19.5378568829
-19.1206430818
-18.7053536307
-18.2930513741
-17.8845655358
-17.4803662751
-17.0805350774
-16.6846701584
-16.2918811186
-15.9007149792
-15.5091274426
-15.114446976
-14.7132757994
-14.3014588694
-13.8739506726
-13.4246868146
-12.9464031067
-12.4305500232
-11.8672658683
-11.2455670405
-10.5537622529
-9.78019201068
-8.91414190727
-7.94681541077
-6.87230372731
-5.68852339555
-4.39825309519
-3.01000802979
-1.53825768826
-0.00269080731365
1.57309083771
3.16293403957
4.74096028767
6.28020775359
7.75643800048
9.14753244178
10.4355769141
11.6100630449
12.6593200038
13.5777460361
14.3658751394
15.0229182596
15.5529159798
15.9734347099
16.2912250616
16.519877912
16.684322045
16.7786457323
16.7913568404
16.7362502448
16.6320027829
16.4938298756
16.3332455938
16.1591549442
15.9787023148
15.7976929061
15.6208375262
15.451870725
15.2936556175
15.1482543816
15.0170033972
14.9006132351
14.7991925364
14.7127249313
14.6414179669
14.5854041329
14.5442417031
14.5168694694
14.5018399802
14.4976435524
14.5028281214
14.516070909
14.5361382455
14.5619064431
14.5923258997
14.6264510595
14.6634130168
14.70244773
14.7428690101
14.784090643
14.8256002984
14.8669750528
14.9078559959
14.9479600945
14.9870602305
15.0249915029
15.0616349445
15.0969227107
15.1308283237
15.1633689573
15.1946006379
15.2246206629
15.2535726537
15.2816492798
15.3091069215
15.3362766623
15.3636013634
15.3916779514
15.4212634268
15.4544874051
15.4800696651
-0.320602185531
-0.369762768026
-0.419265220618
-0.474446838153
-0.566600779731
-0.709092119863
-0.909127335839
-1.17037313832
-1.49497654738
-1.88381812627
-2.33662850449
-2.85207500725
-3.42780815632
-4.06055906125
-4.74620492184
-5.47989023064
-6.25611721089
-7.06888734548
-7.91181007783
-8.77825500014
-9.66146879656
-10.5547263388
-11.4514439695
-12.3453169717
-13.230417512
-14.1013056302
-14.9530985756
-15.7815424929
-16.5830426122
-17.3546875471
-18.0942341047
-18.8000831182
-19.4712232622
-20.107168606
-20.7078750802
-21.2736581802
-21.8051019648
-22.3029777356
-22.7681646107
-23.201586658
-23.6041572292
-23.9767413021
-24.3201258003
-24.6350098755
-24.9219979298
-25.181604061
-25.4142482039
-25.6202762738
-25.7999752522
-25.9535739365
-26.0812293044
-26.1829961266
-26.2588516465
-26.3086791396
-26.3321081518
-26.3284234516
-26.2969601867
-26.2374715335
-26.1500037898
-26.0349302522
-25.8927218138
-25.7238468934
-25.5289828163
-25.3090052404
-25.0648951989
-24.7978120872
-24.5091126011
-24.2002913574
-23.8729559898
-23.5288017895
-23.169569348
-22.797019205
-22.4128940475
-22.0189055087
-21.6167145559
-21.2079407889
-20.7941621684
-20.3769339397
-19.9577808978
-19.5381923114
-19.1195791844
-18.7032362155
-18.2902672647
-17.8815208276
-17.4775002087
-17.0783161698
-16.683638768
-16.292674539
-15.904100552
-15.516020373
-15.1258395777
-14.7302052428
-14.3248888638
-13.9047106992
-13.4634331071
-12.9936779669
-12.4868630207
-11.9332111806
-11.3218491093
-10.6411014366
-9.87910885645
-9.0247389955
-8.0686777423
-7.00451773834
-5.82982012158
-4.54707834404
-3.16473971412
-1.69723023986
-0.164041401529
1.41249202518
3.00609646916
4.58992076565
6.13698474863
7.6224471559
9.02481208652
10.3222408598
11.5027093365
12.5558703922
13.4749106965
14.2578552669
14.9145985676
15.4475186486
15.8753392939
16.2140998435
16.4602531521
16.6259936734
16.7165317975
16.7318100242
16.6828988173
16.5853935414
16.4533170924
16.2979345033
16.1282293991
15.951480105
15.7736252197
15.5994783638
15.4328573507
15.2766756356
15.1330482095
15.0033773985
14.8884748413
14.7887483903
14.7042108779
14.6343953263
14.5792389201
14.5387366579
14.5119819006
14.4975368035
14.4938806552
14.4995599513
14.5132520158
14.5337254335
14.5598578489
14.5906021784
14.6250150205
14.6622299633
14.7014857316
14.7420988843
14.7834866009
14.825138134
14.8666333578
14.9076151269
14.9478036535
14.9869722191
15.0249582158
15.0616429896
15.0969609314
15.1308846048
15.1634321473
15.1946586854
15.2246622772
15.2535831764
15.2816123315
15.3090010791
15.3360753744
15.3632648922
15.3911482775
15.4204024093
15.4532073292
15.4760113165
-0.257218218044
-0.330204028912
-0.433301791194
-0.561231528928
-0.723857944386
-0.928496246467
-1.18208198164
-1.49008808348
-1.85613557601
-2.28205693427
-2.76815579829
-3.3134211463
-3.91566460667
-4.5716754333
-5.27732953813
-6.02773670573
-6.81735370625
-7.64013800804
-8.48967000578
-9.35931100876
-10.2423291359
-11.1320534285
-12.0219939199
-12.9059805711
-13.7782660565
-14.6336362688
-15.4674813074
-16.275863247
-17.0555424647
-17.8039923236
-18.5193743586
-19.2004996634
-19.8467591238
-20.4580454646
-21.0346573622
-21.5772055467
-22.086514822
-22.5635386108
-23.0092807986
-23.4247355713
-23.8108377531
-24.1684321248
-24.4982594135
-24.8009540233
-25.0770427931
-25.326941401
-25.5509819273
-25.7494482257
-25.9225597807
-26.0704667737
-26.1931848039
-26.2907217545
-26.3630057425
-26.4095858333
-26.4294639486
-26.4219751595
-26.3868986344
-26.324057634
-26.2336080294
-26.1156686356
-25.9703570652
-25.7980766253
-25.5995369698
-25.3755781964
-25.1272191486
-24.8557247876
-24.5624998254
-24.2490940806
-23.9171642934
-23.5684412944
-23.204691876
-22.8276908781
-22.4391947051
-22.0409287171
-21.6345790215
-21.2217998554
-20.804218313
-20.3834407758
-19.9610451069
-19.5385656282
-19.1174554742
-18.6990435548
-18.2844785127
-17.8746736756
-17.4702374579
-17.0714196783
-16.6780665492
-16.289576172
-15.904818058
-15.5220075144
-15.1386072461
-14.7512052396
-14.3554485062
-13.9460070346
-13.5165280833
-13.0596098769
-12.5667125349
-12.0281096139
-11.4328777877
-10.7690449253
-10.0241755844
-9.18644951054
-8.24601790115
-7.19612949927
-6.03400769488
-4.76130730386
-3.38543061259
-1.92020239503
-0.38594654407
1.19462600225
2.79616414817
4.38990105053
5.94860833829
7.44467833384
8.85419562516
10.1573989724
11.3402334457
12.3901283388
13.3096036339
14.0947987032
14.7591105984
15.3146115719
15.7595915008
16.1047355144
16.3564677997
16.5256511959
16.6189628052
16.6404373953
16.5998635563
16.5107003988
16.3860485868
16.2370541952
16.0728699369
15.9009698889
15.7274554972
15.5572477149
15.3942380428
15.2413994056
15.1008856373
14.9741414249
14.8620110798
14.7649031903
14.6828529248
14.6154787757
14.5625010878
14.5238491392
14.4987668632
14.4858617298
14.483613074
14.4905912924
14.5054734992
14.5270455271
14.5541795784
14.5858422465
14.6210850335
14.6590549077
14.6989867588
14.7402093769
14.7821366237
14.8242690089
14.8661836433
14.9075329802
14.9480343737
14.9874683051
15.025669408
15.0625240243
15.0979630092
15.131961924
15.1645340293
15.1957325643
15.225647114
15.2544106969
15.282197952
15.3092385009
15.3358196993
15.3623066066
15.3891501315
15.4167870222
15.4464722135
15.464924606
-0.460197177687
-0.55718592862
-0.692159642397
-0.866282747328
-1.08153903553
-1.34061523781
-1.64742231841
-2.00554402
-2.4176146442
-2.88509123097
-3.40817961754
-3.98587028013
-4.61599871116
-5.29537140905
-6.01987219097
-6.7846140225
-7.58406301066
-8.41220040619
-9.26265474111
-10.1288657379
-11.0042173774
-11.8821956501
-12.7565141204
-13.6212554295
-14.4709772856
-15.300823081
-16.1065919912
-16.8848010834
-17.6327032897
-18.34828876
-19.0302441419
-19.677895215
-20.2911185176
-20.8702454939
-21.4159527173
-21.9291574677
-22.4109158233
-22.8623379126
-23.2845144475
-23.6784645421
-24.0450954693
-24.3851906678
-24.6994059909
-24.988272937
-25.2521929543
-25.4914687187
-25.7063381882
-25.8969723568
-26.0634711044
-26.2057847955
-26.3238846377
-26.4176905528
-26.4867864349
-26.5302659346
-26.5473908712
-26.5374843154
-26.5001305832
-26.4350653247
-26.3420375255
-26.2210885156
-26.0722067928
-25.8958822594
-25.6928271906
-25.4638820506
-25.2101558952
-24.9329936848
-24.6338864759
-24.3144669745
-23.9764632131
-23.6216653334
-23.2518928671
-22.8689706116
-22.4747088703
-22.0708892866
-21.6592541715
-21.2415054388
-20.8193056742
-20.3942785945
-19.9680056296
-19.5420218014
-19.1178018372
-18.6967393335
-18.2801148683
-17.8690465501
-17.4644042731
-17.0667055691
-16.6760214413
-16.2918928263
-15.9132260042
-15.5381913819
-15.1641161487
-14.7874671228
-14.4038331417
-14.0079098742
-13.5934899967
-13.1533947176
-12.6792936127
-12.1614871561
-11.5888993007
-10.9490773876
-10.2287404924
-9.41510299092
-8.49752930148
-7.46855352042
-6.32420151058
-5.0642904076
-3.6944724806
-2.22902674399
-0.68976155406
0.899484618841
2.51417864647
4.12112173973
5.68872952029
7.19413424898
8.60823460382
9.9096553431
11.0947111267
12.1488937854
13.0789986793
13.8884896108
14.5713623321
15.1363053578
15.5899625716
15.9423230868
16.2013970196
16.376309045
16.4746806449
16.5032171404
16.4716036614
16.3919943965
16.2766001927
16.136250974
15.9800716089
15.8156031391
15.6490190626
15.4853007702
15.3283828381
15.1812759371
15.0461589548
14.9245079503
14.8171909092
14.7246221653
14.6468180933
14.583544531
14.5345522591
14.4995342918
14.4776218356
14.4674901198
14.4676992015
14.4768864324
14.4937629046
14.5171421804
14.5459074791
14.5790423301
14.6156045631
14.6547558631
14.6957364264
14.7378891082
14.7806323217
14.8234787871
14.8660089009
14.9078851159
14.94882709
14.9886229954
15.0271080807
15.0641742054
15.0997509442
15.1338143977
15.166372734
15.1974755799
15.2272018316
15.2556698616
15.2830297608
15.3094735576
15.3352271791
15.3605504056
15.3856999124
15.4107468381
15.4360506625
15.4491166603
-1.00522206533
-1.10287246036
-1.24435112888
-1.43727528932
-1.68014599925
-1.97316198066
-2.31752619079
-2.71439790416
-3.16450680965
-3.66790973227
-4.22380926687
-4.83049026789
-5.48530064226
-6.18471514769
-6.92440315339
-7.6993526192
-8.50397958054
-9.33227823445
-10.1779483419
-11.0345536871
-11.895654526
-12.7549638078
-13.6064747438
-14.4446029715
-15.2642950976
-16.0611385236
-16.831429388
-17.5722272002
-18.2813613357
-18.9574153837
-19.5996665412
-20.208006049
-20.782829832
-21.3249244244
-21.8353438624
-22.3152980007
-22.7660502023
-23.1888363185
-23.5847996948
-23.9549476922
-24.3001310328
-24.6210431657
-24.9182216123
-25.1920606209
-25.4428219907
-25.6706842176
-25.8757427844
-26.057992213
-26.2173475214
-26.3537072273
-26.466853364
-26.5564510583
-26.6219936673
-26.66258867
-26.6773892787
-26.6656185435
-26.6263519882
-26.5591203146
-26.4635677501
-26.3393242271
-26.1865207591
-26.0056961697
-25.7975067271
-25.5628529387
-25.3029890422
-25.0193411362
-24.7135066959
-24.3872115774
-24.0422677393
-23.680540153
-23.3039169926
-22.9142852009
-22.5135099459
-22.103415174
-21.6857681673
-21.2622756703
-20.8345942807
-20.4043446119
-19.973127732
-19.5425434946
-19.1141985626
-18.6896938009
-18.270585064
-17.8582942815
-17.4539617042
-17.0582600789
-16.671239089
-16.292262574
-15.9200008972
-15.5524015637
-15.1867116826
-14.819475936
-14.4465715178
-14.063118359
-13.6633934337
-13.24070035
-12.7870863055
-12.2929724279
-11.7472349297
-11.1371064889
-10.4481393932
-9.66563986881
-8.77680862969
-7.77277380376
-6.64793265501
-5.40156326379
-4.03757189492
-2.56973492938
-1.02394352228
0.572106652194
2.19383923116
3.80791681611
5.37617182084
6.88016473207
8.29534917113
9.5984878481
10.7942122123
11.8706917369
12.8169004155
13.6361212371
14.3295598858
14.9041882785
15.367425513
15.7282120279
15.9951409876
16.1771354632
16.282632153
16.3198765182
16.2986702326
16.2303185128
16.1262261984
15.9968014209
15.8510138044
15.6963878219
15.5391204624
15.3842287239
15.235682593
15.0965103035
14.9689238364
14.8544055181
14.7538518022
14.6676592729
14.5958309265
14.5382946916
14.4949236889
14.4650930145
14.4477237281
14.4415455931
14.4452703933
14.4576162348
14.4773626243
14.5033387537
14.5344605789
14.5697134229
14.6081813815
14.6490282108
14.6915187745
14.7349983193
14.7789076501
14.8227620674
14.8661615446
14.9087706063
14.9503247797
14.9906133215
15.029483575
15.0668256874
15.1025755397
15.136705149
15.1692242365
15.2001716711
15.2296165913
15.2576549699
15.2844084304
15.310018748
15.3346351687
15.3583865845
15.3813088765
15.403088771
15.4233380989
15.4298766805
-1.79803179634
-1.88693771333
-2.02390588071
-2.22078065811
-2.47423038714
-2.7835114843
-3.14814580832
-3.56756775695
-4.04093053305
-4.56692105346
-5.14360425143
-5.76835812032
-6.4378355264
-7.1479982778
-7.89415884049
-8.67107698971
-9.47304980126
-10.2940423631
-11.1278032464
-11.9680113761
-12.8084036391
-13.642926554
-14.4658649364
-15.2719844358
-16.0566426157
-16.8158977056
-17.5465731537
-18.2463019028
-18.9135177357
-19.547418198
-20.1478800154
-20.7153546176
-21.2507367454
-21.7552329909
-22.2302283925
-22.6771718447
-23.0974765497
-23.4924469774
-23.8632255898
-24.2107658906
-24.5358264648
-24.8389803368
-25.1206286547
-25.3810255679
-25.6203095985
-25.838514363
-26.0355696502
-26.2113078233
-26.3654672314
-26.4977526838
-26.6077274437
-26.6948687784
-26.7586498918
-26.7984504815
-26.8129626451
-26.8008823791
-26.7610926706
-26.6926407044
-26.5949941725
-26.4677040504
-26.3110570204
-26.1255729009
-25.9119131592
-25.6711942773
-25.404800228
-25.1142725115
-24.801325994
-24.4677864629
-24.1155520199
-23.7465597122
-23.3627543617
-22.9660631053
-22.5583764254
-22.1415373707
-21.7173349833
-21.2875093405
-20.8537752136
-20.4178487669
-19.9814731529
-19.5464355824
-19.1145583811
-18.6876578582
-18.267461661
-17.8554732724
-17.4527848184
-17.0598669285
-16.6764307098
-16.301476191
-15.9334717508
-15.5704993243
-15.2102129121
-14.8498094673
-14.4858915136
-14.1142799069
-13.7297597087
-13.3260095975
-12.8953934123
-12.428329078
-11.9133278376
-11.3368630999
-10.6822895415
-9.9316337573
-9.06907470346
-8.0859673308
-6.97697281024
-5.74130719528
-4.38208678966
-2.91302921774
-1.36679704664
0.226291533749
1.84366232802
3.45318538544
5.01519163597
6.51682429986
7.94167114977
9.26006775873
10.465381266
11.5490429536
12.5044800157
13.3324143514
14.0352519516
14.6189059661
15.090886193
15.4598992761
15.7348909334
15.9249818586
16.039188144
16.0865914384
16.0771086546
16.0214850629
15.9304730027
15.8140329108
15.6809063142
15.5385198529
15.3930380563
15.249469783
15.1117865302
14.9830140882
14.8653683856
14.7603302901
14.6687946028
14.5911465344
14.5273712201
14.4776185422
14.441799234
14.4188959959
14.4076339899
14.4068422199
14.415384721
14.4320797789
14.4557678708
14.4853094108
14.5196472036
14.5577843844
14.5988284419
14.6419596265
14.6864656506
14.7317079827
14.7771495132
14.8223202246
14.8668395559
14.9103838158
14.9527049365
14.993601127
15.0329311439
15.0705894803
15.106519772
15.1406942648
15.1731215665
15.2038308724
15.2328795664
15.2603400009
15.2862996003
15.3108425384
15.3340321089
15.3558579802
15.3761328257
15.3941909975
15.4090596899
15.4087339369
-2.71029738821
-2.78984666512
-2.92073219342
-3.11557540462
-3.37017759273
-3.68394099052
-4.05570572905
-4.48403202552
-4.96711401893
-5.50268712474
-6.08794038737
-6.7194865523
-7.39334203604
-8.10496072586
-8.84927193356
-9.62076394457
-10.4135635895
-11.2215523876
-12.038473125
-12.8580666943
-13.6741964153
-14.4809967412
-15.273004551
-16.0453032794
-16.7936373019
-17.5145189463
-18.205287565
-18.8641399024
-19.4901017732
-20.0829652197
-20.6431768982
-21.1717070583
-21.6698967848
-22.1393120863
-22.5816041701
-22.9983959794
-23.3911900405
-23.7613076196
-24.1098506039
-24.4376922527
-24.7454830187
-25.0336722554
-25.3025335278
-25.5521940677
-25.7826618483
-25.9938239852
-26.1854454775
-26.3571781723
-26.5085605076
-26.6390528469
-26.748034551
-26.834845142
-26.8988754637
-26.9395695991
-26.9553259869
-26.9441134301
-26.9044191635
-26.8349408466
-26.7350056551
-26.6044741839
-26.4436767593
-26.2531287305
-26.0336887031
-25.7866237135
-25.5133923936
-25.215655825
-24.8952363512
-24.5540624967
-24.194121554
-23.8174218456
-23.4259619954
-23.021714041
-22.6066185115
-22.1825907551
-21.7515209934
-21.3152733302
-20.8756971601
-20.4346471891
-19.9940041595
-19.555665527
-19.1215047735
-18.6933005928
-18.2726242994
-17.8607145774
-17.4583532488
-17.0657490997
-16.6824613062
-16.3075500062
-15.9399044596
-15.5783759544
-15.2215354561
-14.8673978477
-14.5131718254
-14.1549879452
-13.7877149856
-13.4048843443
-12.9988782965
-12.5596205
-12.0742932491
-11.527973649
-10.9019153366
-10.1757810268
-9.3323080121
-8.36416292313
-7.26735529057
-6.04356682366
-4.6977682519
-3.24087937934
-1.70771716031
-0.130960264543
1.47213890568
3.07503905807
4.6388910104
6.14138761616
7.5656441234
8.88834750387
10.0978884582
11.1858277473
12.1468564982
12.9807258498
13.6901795223
14.2808413873
14.7601944203
15.1368833965
15.4200461462
15.6190284111
15.7432340425
15.8021788923
15.805818166
15.7644820734
15.6883844732
15.5870376399
15.4688991529
15.341227759
15.2100928873
15.0804534486
14.9562333949
14.8404425551
14.7352587927
14.6421609133
14.5620062648
14.4951792306
14.4416905349
14.4019224733
14.3755762207
14.3612461206
14.3575998174
14.3636190063
14.3782854517
14.4005297969
14.4292327162
14.4633106961
14.5017201978
14.543508054
14.5877926687
14.6337953521
14.680816434
14.7282564472
14.7755907224
14.8223841288
14.8682670266
14.9129456903
14.9561812609
14.9977957141
15.0376532067
15.0756658788
15.1117794199
15.145973868
15.1782510259
15.2086374718
15.2371730732
15.2639089423
15.2888905048
15.3121445317
15.3336426103
15.3532379918
15.3705360894
15.3845789507
15.3939809777
15.3870557178
-3.62818541529
-3.6998382095
-3.82541750029
-4.01603852646
-4.26723729284
-4.57894084094
-4.94980485327
-5.37806686413
-5.86145683167
-6.39717443702
-6.98186117197
-7.61160913442
-8.28196910997
-8.98799741298
-9.72430261915
-10.4851277233
-11.2644287701
-12.0559844717
-12.8535000551
-13.6507392349
-14.4416491779
-15.2205093325
-15.9820673656
-16.7216859308
-17.435460104
-18.1203212888
-18.7740883788
-19.3954804458
-19.9840653222
-20.5401689033
-21.064736766
-21.5591784458
-22.0251966402
-22.4646311053
-22.879317908
-23.2709816146
-23.6411539272
-23.9911275022
-24.3219334357
-24.6343463526
-24.9289014844
-25.2059245274
-25.4655616007
-25.7078079222
-25.9325271355
-26.1394566845
-26.3281972655
-26.4982182313
-26.6488723561
-26.7794084598
-26.8890508259
-26.9769903342
-27.0424038249
-27.0845458854
-27.1021879254
-27.09276098
-27.0537454998
-26.9837397595
-26.8820972945
-26.7488832621
-26.5843572323
-26.3890501513
-26.1640132286
-25.9106176787
-25.6304413902
-25.3253036073
-24.9971801393
-24.6481458427
-24.2803146248
-23.8958019336
-23.4967003664
-23.0850746969
-22.6629666389
-22.2323974313
-21.7953613827
-21.3538075166
-20.9096322881
-20.4646940485
-20.0208555537
-19.579947859
-19.1437010315
-18.7136751385
-18.2911718617
-17.8771812509
-17.4723820411
-17.0771318232
-16.691406482
-16.3149006977
-15.9472129792
-15.5878349103
-15.2357196991
-14.8890567291
-14.5450890183
-14.1996993748
-13.8474765386
-13.4814189229
-13.0937808423
-12.673764518
-12.2072436392
-11.6789544767
-11.0705749971
-10.3616930688
-9.53530066446
-8.58601900163
-7.51026572009
-6.30792143371
-4.98501442866
-3.55281546325
-2.03926136072
-0.479335457633
1.10785349189
2.69706087196
4.25402868723
5.75234373784
7.17150484477
8.49154206656
9.69930388102
10.7862717743
11.7477821889
12.5834143031
13.2960124982
13.8910967456
14.3760731371
14.7595407022
15.0507152288
15.2590909123
15.3942761206
15.4659707564
15.4840610072
15.4585242807
15.399096988
15.3148588448
15.2139414728
15.1033828245
14.9891044417
14.8759650045
14.7678070848
14.667585057
14.5774238635
14.4987612255
14.4324158315
14.3787145247
14.3379048396
14.3104212332
14.2954391693
14.2913046041
14.2968381851
14.3111665003
14.3333705932
14.362454931
14.3973491841
14.4370127519
14.4804347732
14.5266985606
14.5749529617
14.624456358
14.6745395326
14.7246387852
14.7742576618
14.8229938917
14.8705029456
14.9165202834
14.9608275086
15.0032696335
15.0437262803
15.0821266473
15.1184239969
15.1526053083
15.1846714934
15.2146450651
15.2425509178
15.268415578
15.292243849
15.3140040053
15.3335783687
15.3506928759
15.3647755728
15.3746468226
15.3786692292
15.3656830972
-4.45797025751
-4.52367666013
-4.6451569055
-4.83107170178
-5.07715214354
-5.3838599374
-5.74982420731
-6.17322782867
-6.65163112262
-7.18199421501
-7.76068308848
-8.3835034423
-9.04573204865