/*--------------------------------*- C++ -*----------------------------------*\
| =========                 |                                                 |
| \\      /  F ield         | OpenFOAM: The Open Source CFD Toolbox           |
|  \\    /   O peration     | Version:  v1806                                 |
|   \\  /    A nd           | Web:      www.OpenFOAM.com                      |
|    \\/     M anipulation  |                                                 |
\*---------------------------------------------------------------------------*/
FoamFile
{
    version     2.0;
    format      ascii;
    class       volScalarField;
    location    "26";
    object      pa;
}
// * * * * * * * * * * * * * * * * * * * * * * * * * * * * * * * * * * * * * //

dimensions      [0 2 -2 0 0 0 0];


internalField   nonuniform List<scalar> 
12225
(
-4382.60827574
-4382.04869866
-4381.71846792
-4381.38972686
-4380.83589565
-4380.25017509
-4379.6469317
-4379.13308943
-4378.69970694
-4378.24635873
-4377.60282815
-4376.7236274
-4375.90293987
-4375.46385239
-4374.32313041
-4368.72855393
-4356.74907087
-4353.1712602
-4361.15986071
-4367.98065631
-4367.68546354
-4367.13356019
-4366.49861681
-4365.84524455
-4365.22932305
-4364.66908294
-4364.09290658
-4363.3476346
-4362.29176143
-4361.00454981
-4359.91267728
-4359.24114724
-4357.59261686
-4351.7363708
-4342.69504709
-4346.28945353
-4388.8859809
-4376.45164025
-4375.69496987
-4375.43927533
-4375.0972899
-4374.82233359
-4374.63152974
-4374.53374224
-4374.41386217
-4374.09137734
-4373.41861213
-4372.495054
-4371.71080691
-4371.12999209
-4369.33154973
-4363.94684988
-4357.00791316
-4359.15744241
-4363.19735501
-4372.12324535
-4372.02892681
-4371.5247617
-4371.08110298
-4370.71720955
-4370.47290288
-4370.35094778
-4370.25126146
-4370.02004942
-4369.56135396
-4369.0133741
-4368.70315147
-4368.57126264
-4367.49331919
-4364.37716762
-4361.72794871
-4365.16232912
-4383.67666374
-4375.28823291
-4374.76612306
-4374.31606345
-4373.88121446
-4373.48387863
-4373.15889804
-4372.89509875
-4372.60001073
-4372.15029376
-4371.49545392
-4370.77348156
-4370.18625135
-4369.53699994
-4368.04226889
-4365.62216117
-4364.72479803
-4368.03102398
-4368.09856788
-4373.58220858
-4373.65255768
-4373.23096189
-4372.92831471
-4372.66316716
-4372.47102332
-4372.32121545
-4372.13920434
-4371.84105362
-4371.424233
-4371.01185431
-4370.68269921
-4370.15254978
-4368.9150402
-4367.34483426
-4367.30150777
-4369.93132075
-4380.66920756
-4375.04022258
-4374.11264069
-4373.8543835
-4373.501444
-4373.22719977
-4372.98352947
-4372.75587204
-4372.47769907
-4372.10878056
-4371.68804261
-4371.32879762
-4371.04735816
-4370.59148289
-4369.71607995
-4368.90934832
-4369.33794967
-4371.3789735
-4371.23291125
-4374.11797034
-4374.12761478
-4373.78519485
-4373.5473244
-4373.34029431
-4373.16446929
-4372.97920009
-4372.73315814
-4372.40767728
-4372.05373954
-4371.7558127
-4371.49801185
-4371.11280921
-4370.55561773
-4370.27308189
-4370.91275779
-4372.52369801
-4376.3216392
-4374.53696087
-4374.17804387
-4373.92394056
-4373.68929279
-4373.50329253
-4373.33960587
-4373.1674901
-4372.94783454
-4372.6783578
-4372.40529632
-4372.17905134
-4371.97015125
-4371.69132086
-4371.40403498
-4371.44695281
-4372.14414464
-4373.44294535
-4374.32620788
-4374.48077454
-4374.26967516
-4374.04214915
-4373.84222126
-4373.67765516
-4373.52760151
-4373.3678915
-4373.17528335
-4372.95890151
-4372.75640217
-4372.59452705
-4372.44815321
-4372.28975886
-4372.21487702
-4372.44726217
-4373.13158988
-4374.19448899
-4374.78035417
-4374.50528543
-4374.34621153
-4374.15702099
-4373.99028404
-4373.84872776
-4373.71628677
-4373.57590029
-4373.41672356
-4373.25285815
-4373.11238212
-4373.00915938
-4372.93037489
-4372.88511498
-4372.96288796
-4373.29669658
-4373.93662852
-4374.82160815
-4374.71517857
-4374.55396053
-4374.42686847
-4374.2735179
-4374.13418232
-4374.01381108
-4373.89965909
-4373.78161171
-4373.65625826
-4373.53835536
-4373.44827894
-4373.39537026
-4373.37830359
-4373.4196393
-4373.5901479
-4373.96382056
-4374.55295285
-4375.30596336
-4374.73380322
-4374.60106286
-4374.50587165
-4374.38434181
-4374.27207085
-4374.17317419
-4374.07970435
-4373.98673822
-4373.89615196
-4373.82105346
-4373.77701737
-4373.77146219
-4373.81089736
-4373.92184617
-4374.15135618
-4374.5389956
-4375.07345565
-4375.72341165
-4374.77423228
-4374.66778824
-4374.59818146
-4374.50948705
-4374.42710891
-4374.35405146
-4374.2870207
-4374.22545613
-4374.17387902
-4374.14421179
-4374.14679249
-4374.19061327
-4374.28472317
-4374.4515365
-4374.71929106
-4375.1006035
-4375.58260495
-4376.13306413
-4374.80185327
-4374.74226358
-4374.69408751
-4374.63904582
-4374.58854216
-4374.54662558
-4374.5120532
-4374.48715029
-4374.47817413
-4374.49299537
-4374.54272447
-4374.63163333
-4374.77291421
-4374.97671579
-4375.26077384
-4375.62128978
-4376.04576918
-4376.51140517
-4375.03544157
-4374.90070976
-4374.86971925
-4374.84521761
-4374.82946001
-4374.82191501
-4374.82459634
-4374.84006319
-4374.8732347
-4374.93279203
-4375.02296377
-4375.1534818
-4375.32591072
-4375.55331527
-4375.83211446
-4376.16713039
-4376.53151169
-4376.92822317
-4374.42726889
-4374.75964156
-4374.80573246
-4374.81540163
-4374.83958437
-4374.87564787
-4374.92379486
-4374.98520741
-4375.06497865
-4375.16804283
-4375.29980309
-4375.46344255
-4375.66268132
-4375.89781221
-4376.17021917
-4376.47108903
-4376.79156907
-4377.11216501
-4376.90405919
-4375.76896123
-4375.4660809
-4375.47400132
-4375.53594529
-4375.6046158
-4375.68048102
-4375.76588379
-4375.86702724
-4375.98700366
-4376.13064791
-4376.29761016
-4376.49088903
-4376.7060124
-4376.94480786
-4377.19577169
-4377.45759516
-4377.72297541
-4370.50941959
-4373.03628205
-4374.21812287
-4374.57878484
-4374.77770213
-4374.92596287
-4375.06839129
-4375.21617537
-4375.37444175
-4375.5457211
-4375.73249649
-4375.93243825
-4376.14742235
-4376.37127931
-4376.60817592
-4376.84856934
-4377.09329777
-4377.31279282
-4383.20356049
-4378.34053829
-4376.41029459
-4376.20466797
-4376.20969419
-4376.28742901
-4376.39034655
-4376.502888
-4376.63993334
-4376.78416574
-4376.95337123
-4377.1278399
-4377.32475477
-4377.52065194
-4377.73414204
-4377.9364063
-4378.14655563
-4378.3588313
-4364.86555447
-4372.44663827
-4374.92382286
-4375.07770216
-4375.1746631
-4375.2503092
-4375.3584879
-4375.48813918
-4375.62514419
-4375.7782828
-4375.93533993
-4376.10575125
-4376.27543528
-4376.45593224
-4376.63332044
-4376.8257221
-4377.01070381
-4377.16716746
-4391.13669821
-4379.90269619
-4376.46499265
-4376.53094793
-4376.57076452
-4376.71320004
-4376.84937545
-4377.00420874
-4377.16908614
-4377.34279978
-4377.52230776
-4377.70848669
-4377.8951699
-4378.08571132
-4378.27277684
-4378.45469537
-4378.62048625
-4378.8197993
-4353.9348095
-4370.46264811
-4374.81873687
-4374.62386073
-4374.72167117
-4374.74543811
-4374.84633717
-4374.95404888
-4375.08106002
-4375.21747771
-4375.36809678
-4375.52369192
-4375.69104053
-4375.85641501
-4376.03350867
-4376.20711966
-4376.39538613
-4376.50424773
-4402.26503553
-4381.57879966
-4376.41419221
-4376.88364339
-4376.90134175
-4377.09822794
-4377.24642698
-4377.42958622
-4377.61787057
-4377.8152484
-4378.01532383
-4378.2150791
-4378.409948
-4378.60265208
-4378.78780849
-4378.96159131
-4379.11277033
-4379.32779112
-4348.56935576
-4370.07781452
-4374.55001517
-4374.01813475
-4374.16397033
-4374.18181225
-4374.29891342
-4374.40711009
-4374.53192108
-4374.65778656
-4374.7854384
-4374.91251681
-4375.03755905
-4375.16276986
-4375.29100412
-4375.42949962
-4375.58238632
-4375.65086249
-4400.03576391
-4379.66194448
-4376.72513788
-4377.21617576
-4377.27473061
-4377.46231608
-4377.61246903
-4377.796717
-4377.98656635
-4378.18508233
-4378.38905774
-4378.60000169
-4378.815447
-4379.0384231
-4379.26687872
-4379.48441063
-4379.6606328
-4379.9167164
-4352.10314248
-4371.46279155
-4373.28074636
-4373.06340555
-4373.21974384
-4373.33541671
-4373.48322757
-4373.63293919
-4373.79112724
-4373.94709737
-4374.10083762
-4374.2581837
-4374.40344222
-4374.53720691
-4374.6523995
-4374.73892987
-4374.80565404
-4374.75722103
-4396.93083312
-4379.11142841
-4377.88045291
-4378.11068444
-4378.23096781
-4378.36988842
-4378.49493773
-4378.63361214
-4378.7747489
-4378.9139616
-4379.05730737
-4379.20698806
-4379.35162091
-4379.49053024
-4379.62655195
-4379.7602135
-4379.89676492
-4380.21018405
-4359.9967047
-4369.59717793
-4370.33267459
-4370.39568819
-4370.58074806
-4370.73301615
-4370.90035947
-4371.07225758
-4371.25222136
-4371.43482945
-4371.63055546
-4371.84209379
-4372.05918538
-4372.28222016
-4372.5190756
-4372.78584471
-4373.13061132
-4373.38384157
-4383.00761903
-4383.4274549
-4383.24292302
-4383.36670083
-4383.34348561
-4383.36644624
-4383.37982298
-4383.40279869
-4383.42777677
-4383.45632692
-4383.49621806
-4383.54821797
-4383.60206525
-4383.65173007
-4383.69535831
-4383.72065869
-4383.66856906
-4383.56633385
-4384.33756927
-4384.35210539
-4384.37509975
-4384.38836502
-4384.38134235
-4384.34551706
-4384.28996091
-4384.2136445
-4384.1308546
-4384.03499274
-4383.94122996
-4383.83826377
-4383.74220628
-4383.6357517
-4383.53474248
-4383.41528948
-4383.29491448
-4383.14504555
-4382.98934079
-4382.79952595
-4382.6048752
-4382.3765807
-4382.14950922
-4381.89559772
-4381.65110564
-4381.38721348
-4381.13823318
-4380.87282718
-4380.62598396
-4380.36695317
-4380.12822393
-4379.87689216
-4379.64590336
-4379.40414638
-4379.18171379
-4378.94464996
-4378.72482465
-4378.48972734
-4378.27070942
-4378.03608064
-4377.81670595
-4377.58114237
-4377.35952889
-4377.11962216
-4376.89154883
-4376.64040222
-4376.39834126
-4376.12995824
-4375.8685701
-4375.57678804
-4375.29102426
-4374.97363015
-4374.66272695
-4374.32120633
-4373.98313167
-4373.60851884
-4373.23758283
-4372.83518068
-4372.43925726
-4372.01186985
-4371.59373543
-4371.15089409
-4370.71853293
-4370.25805593
-4369.80710514
-4369.3291168
-4368.86209152
-4368.36842411
-4367.88424279
-4367.36805476
-4366.85524124
-4366.3023416
-4365.74719657
-4365.14431709
-4364.53581503
-4363.87913926
-4363.21976837
-4362.51723133
-4361.80919282
-4361.04759844
-4360.27724199
-4359.45451868
-4358.6197675
-4357.72506499
-4356.82217399
-4355.87277902
-4354.92143043
-4353.92289393
-4352.87920808
-4351.69330501
-4350.30142808
-4348.72520534
-4347.01278177
-4345.17724225
-4343.20696506
-4341.0798624
-4338.77027636
-4336.25766101
-4333.52600976
-4330.56965949
-4327.3957367
-4324.02927605
-4320.553168
-4317.00801794
-4313.48266219
-4309.92480787
-4306.36098243
-4302.68350353
-4298.92580476
-4294.99222233
-4290.94753535
-4286.70998481
-4282.35445416
-4277.80605027
-4273.15499101
-4268.29279265
-4263.30895004
-4258.11912056
-4252.7827997
-4247.30280605
-4241.75611571
-4236.19798289
-4230.8422385
-4225.59753012
-4220.71303017
-4215.62296852
-4209.38456949
-4201.42516466
-4192.30863802
-4182.20630681
-4171.28148301
-4159.48096012
-4146.85043168
-4133.18182332
-4118.40245408
-4102.13155274
-4084.15561497
-4063.94074213
-4041.13181837
-4015.16945921
-3985.83529216
-3953.01932728
-3916.87648713
-3877.51555441
-3835.04819008
-3789.55942393
-3741.1886285
-3690.08221668
-3636.42902626
-3580.48010477
-3522.52946883
-3463.03412833
-3402.48943645
-3341.70756193
-3281.5168161
-3223.28170589
-3168.33114109
-3118.82192591
-3076.76795345
-3045.36343436
-3027.44601275
-3027.43124426
-3049.02714166
-3098.03296077
-3179.0798312
-3299.4842015
-3464.88546494
-3684.44344812
-3965.11542551
-4318.02703641
-4751.29768364
-5278.23500616
-5908.06951682
-6655.42974495
-7530.90559901
-8549.93616571
-9720.54800892
-11050.7047145
-12539.8380108
-14188.226663
-4384.21854863
-4384.32347475
-4384.38612108
-4384.39025787
-4384.36157826
-4384.31327711
-4384.2558736
-4384.18672382
-4384.1143547
-4384.03277468
-4383.9503548
-4383.85767234
-4383.76368195
-4383.65560379
-4383.54252409
-4383.40821991
-4383.26331399
-4383.08972216
-4382.90168395
-4382.68196291
-4382.44917527
-4382.18625038
-4381.91375788
-4381.61678027
-4381.31741671
-4380.99953538
-4380.68320039
-4380.35312018
-4380.02996206
-4379.69820874
-4379.37595571
-4379.04868936
-4378.73451523
-4378.41857502
-4378.11666473
-4377.81384394
-4377.52542587
-4377.23701372
-4376.96360025
-4376.69132385
-4376.43412616
-4376.17827434
-4375.93663242
-4375.69484384
-4375.46502041
-4375.23135706
-4375.00583727
-4374.77288154
-4374.54580344
-4374.30778384
-4374.07158371
-4373.82345837
-4373.57728696
-4373.31726746
-4373.05355403
-4372.7709886
-4372.48115099
-4372.16977453
-4371.84889618
-4371.50962027
-4371.16765296
-4370.81461787
-4370.46327831
-4370.1035944
-4369.74757309
-4369.38385906
-4369.02348707
-4368.65441031
-4368.28604657
-4367.90307814
-4367.51280648
-4367.09843323
-4366.66846403
-4366.206412
-4365.72198624
-4365.20281531
-4364.66326672
-4364.08908362
-4363.48808629
-4362.8445786
-4362.17119405
-4361.45225738
-4360.69746166
-4359.89252671
-4359.05557929
-4358.17695289
-4357.27077293
-4356.32287924
-4355.30803794
-4354.13780991
-4352.73943946
-4351.14070074
-4349.38528182
-4347.49146113
-4345.44395979
-4343.22455743
-4340.80383432
-4338.16583152
-4335.28999722
-4332.17880116
-4328.83210588
-4325.30170925
-4321.64941847
-4317.96074654
-4314.27284826
-4310.59181812
-4306.87560802
-4303.08645083
-4299.18817625
-4295.15790763
-4290.97928813
-4286.64784327
-4282.15597252
-4277.51875681
-4272.74072707
-4267.81690009
-4262.74195403
-4257.52769162
-4252.15069897
-4246.67927612
-4241.2274287
-4235.9142677
-4230.91867602
-4226.20896342
-4222.01203915
-4218.05711492
-4212.83214079
-4206.04411194
-4198.02170345
-4188.98331927
-4179.04732384
-4168.2459323
-4156.5508134
-4143.84323391
-4129.94970416
-4114.58187475
-4097.41193563
-4077.99436285
-4055.87040141
-4030.56533791
-4001.81993448
-3969.58384902
-3934.02692598
-3895.30986482
-3853.52427
-3808.69032795
-3760.94957568
-3710.44154407
-3657.36813076
-3601.95161225
-3544.51710516
-3485.46433789
-3425.34707051
-3364.88245475
-3304.99500884
-3246.90714186
-3192.09488123
-3142.51772205
-3100.40111276
-3068.67616359
-3050.46632687
-3049.85002107
-3070.90948955
-3119.03981671
-3199.31655858
-3318.52885853
-3482.85450104
-3700.86892302
-3980.1824382
-4331.30607562
-4762.98372489
-5288.29177512
-5917.17651054
-6664.18553986
-7541.48332623
-8564.86185306
-9744.75180436
-11083.1586609
-12564.9697943
-14211.3808927
-4383.92927178
-4384.39579142
-4384.62720526
-4384.67395713
-4384.65769323
-4384.62275606
-4384.58763533
-4384.55258538
-4384.52504791
-4384.49685181
-4384.47377455
-4384.44615908
-4384.42179226
-4384.38896507
-4384.3558197
-4384.30815425
-4384.25573035
-4384.18332463
-4384.1036564
-4384.00168559
-4383.89295985
-4383.76257842
-4383.62739382
-4383.47299011
-4383.31700842
-4383.14471824
-4382.97286563
-4382.78720032
-4382.60441286
-4382.41094285
-4382.22216893
-4382.02550107
-4381.83520115
-4381.6393662
-4381.45057035
-4381.256806
-4381.0697478
-4380.87823276
-4380.69278815
-4380.50286576
-4380.31800105
-4380.12786113
-4379.94094742
-4379.74668295
-4379.5527139
-4379.34770109
-4379.13890264
-4378.91514059
-4378.68392002
-4378.43456295
-4378.17422765
-4377.89320187
-4377.59921221
-4377.28261281
-4376.9492366
-4376.59181194
-4376.21737742
-4375.81943825
-4375.40299571
-4374.96400651
-4374.51016607
-4374.03942471
-4373.55785032
-4373.06300532
-4372.56059625
-4372.04782821
-4371.52893871
-4370.9993527
-4370.46138082
-4369.90835744
-4369.3404265
-4368.7503984
-4368.13909428
-4367.50011628
-4366.83552151
-4366.14224206
-4365.42445281
-4364.67830472
-4363.90435676
-4363.0980756
-4362.26252387
-4361.3933975
-4360.49229173
-4359.55675127
-4358.59442083
-4357.60632668
-4356.5978907
-4355.56531882
-4354.47844964
-4353.24500794
-4351.80103673
-4350.16732949
-4348.39451992
-4346.49310777
-4344.4540114
-4342.24849775
-4339.85420919
-4337.24320254
-4334.40349958
-4331.32403506
-4328.0162432
-4324.53525019
-4320.93364134
-4317.30505279
-4313.64894833
-4309.99014724
-4306.24904785
-4302.43257884
-4298.47767576
-4294.41039848
-4290.17774617
-4285.82992022
-4281.33098935
-4276.74294136
-4272.03101685
-4267.22629021
-4262.27745314
-4257.24687202
-4252.10286794
-4246.91105004
-4241.78225707
-4236.63379339
-4231.55771296
-4226.93558836
-4222.71654803
-4218.15128655
-4212.23142344
-4204.91314449
-4196.37417362
-4186.82474036
-4176.33214186
-4164.9689228
-4152.65572635
-4139.32906199
-4124.75623977
-4108.71538062
-4090.81620732
-4070.67025723
-4047.77605804
-4021.72881542
-3992.26986106
-3959.40790153
-3923.30905321
-3884.14043299
-3841.88944015
-3796.56293734
-3748.31415763
-3697.3072209
-3643.72798823
-3587.82315123
-3529.89515856
-3470.37558449
-3409.78888006
-3348.89207129
-3288.57098532
-3230.09459656
-3174.88936193
-3124.96634517
-3082.48771153
-3050.43575059
-3031.86316122
-3030.90954665
-3051.61434179
-3099.42465192
-3179.38728463
-3298.36336194
-3462.55351514
-3680.5529067
-3959.91044287
-4311.06302976
-4743.07553194
-5268.2681916
-5896.7363051
-6643.373975
-7520.47837698
-8546.60820468
-9739.1939437
-11115.486269
-12681.4208825
-14458.1802212
-4383.66042475
-4384.87339268
-4385.21060682
-4385.17274576
-4385.0770568
-4384.97994535
-4384.89138855
-4384.80884047
-4384.73817728
-4384.66855856
-4384.60464778
-4384.53655468
-4384.47256947
-4384.40161738
-4384.33226821
-4384.25118356
-4384.16825218
-4384.06919928
-4383.96614384
-4383.84447037
-4383.7183274
-4383.57282343
-4383.42335205
-4383.25487785
-4383.08352919
-4382.89422357
-4382.70304736
-4382.49546438
-4382.28767076
-4382.06616495
-4381.84643504
-4381.61622761
-4381.3902005
-4381.1568408
-4380.92915359
-4380.69653927
-4380.47042722
-4380.24075735
-4380.01780727
-4379.79207396
-4379.57254675
-4379.35009591
-4379.13261164
-4378.91092291
-4378.69197579
-4378.46620452
-4378.23982003
-4378.00327609
-4377.76293755
-4377.50933979
-4377.24833618
-4376.9713675
-4376.68370795
-4376.37661129
-4376.05348843
-4375.70650161
-4375.34106677
-4374.9538105
-4374.55087881
-4374.13040927
-4373.69859735
-4373.25542907
-4372.80627856
-4372.3505607
-4371.89190884
-4371.42913801
-4370.96400427
-4370.49339502
-4370.01660966
-4369.52837996
-4369.026294
-4368.50459655
-4367.96116439
-4367.39184516
-4366.79531325
-4366.1692904
-4365.51404539
-4364.8271728
-4364.10744261
-4363.35275868
-4362.5631298
-4361.7368443
-4360.87401356
-4359.97509674
-4359.04423464
-4358.08487745
-4357.10004445
-4356.08764172
-4355.0147047
-4353.79221924
-4352.35046623
-4350.715745
-4348.93480267
-4347.02379868
-4344.96812263
-4342.74551425
-4340.32709181
-4337.69239638
-4334.82496696
-4331.72091824
-4328.40486109
-4324.92818757
-4321.36232868
-4317.76116943
-4314.1421258
-4310.47630178
-4306.72399733
-4302.85012371
-4298.83695264
-4294.66799861
-4290.34576111
-4285.88868964
-4281.31769858
-4276.66248572
-4271.93296566
-4267.13985545
-4262.26178768
-4257.34960184
-4252.42357319
-4247.30442457
-4241.97156654
-4236.59795692
-4231.3757962
-4226.45159932
-4221.60310801
-4216.24376467
-4209.81164434
-4202.24141363
-4193.62168736
-4184.07998197
-4173.67188778
-4162.42967389
-4150.2813056
-4137.12902571
-4122.74754738
-4106.8810193
-4089.1367122
-4069.08811077
-4046.24452833
-4020.21091233
-3990.75701938
-3957.91928284
-3921.85595027
-3882.75054768
-3840.5688415
-3795.3000094
-3747.11649992
-3696.18670474
-3642.70345345
-3586.90546057
-3529.10961427
-3469.7269117
-3409.31050389
-3348.57764604
-3288.46241464
-3230.16572877
-3175.18790985
-3125.43505431
-3083.17466118
-3051.23644149
-3032.82610865
-3031.88747199
-3052.68879337
-3100.40723354
-3180.4249626
-3299.34050111
-3463.79883334
-3681.97937896
-3961.79602613
-4313.16415227
-4746.12747418
-5271.55254421
-5899.74185665
-6644.85646963
-7519.49642227
-8542.48388966
-9736.46136732
-11141.5230199
-12802.6080599
-14714.3828341
-4383.6310802
-4385.8734271
-4386.01627734
-4385.66770372
-4385.39863112
-4385.20835562
-4385.06378713
-4384.94528804
-4384.85089215
-4384.76447979
-4384.68893824
-4384.61337364
-4384.54598567
-4384.47562894
-4384.41101271
-4384.33919639
-4384.27001491
-4384.18958907
-4384.10943412
-4384.01500518
-4383.91951457
-4383.80787137
-4383.69445127
-4383.56391913
-4383.43144595
-4383.28155722
-4383.12998243
-4382.96176112
-4382.79281575
-4382.60932151
-4382.42693727
-4382.23319508
-4382.04266972
-4381.84420223
-4381.65092787
-4381.4523287
-4381.25995259
-4381.06410785
-4380.87457615
-4380.68225249
-4380.49559228
-4380.30587007
-4380.12038431
-4379.93050117
-4379.74250398
-4379.54750699
-4379.35103634
-4379.14409528
-4378.93170496
-4378.70519185
-4378.4692023
-4378.21493063
-4377.94672293
-4377.65615944
-4377.34615968
-4377.00832924
-4376.64686774
-4376.25718855
-4375.84455584
-4375.40736996
-4374.95154499
-4374.47737464
-4373.99033796
-4373.49181166
-4372.98561632
-4372.47156634
-4371.95138527
-4371.42293204
-4370.88532465
-4370.33474691
-4369.76861546
-4369.18299887
-4368.57551116
-4367.9431981
-4367.28442363
-4366.59760864
-4365.88153768
-4365.13506342
-4364.35691186
-4363.54630404
-4362.7029204
-4361.82661971
-4360.91814226
-4359.97909834
-4359.01348174
-4358.02524997
-4357.01695419
-4355.98658933
-4354.90180574
-4353.67020497
-4352.2249663
-4350.58825765
-4348.80964728
-4346.90393801
-4344.85691112
-4342.64313945
-4340.23323628
-4337.60542166
-4334.74555965
-4331.65374352
-4328.37543982
-4324.95036754
-4321.47191612
-4317.94890607
-4314.4186515
-4310.80822287
-4307.11578913
-4303.26314286
-4299.26593341
-4295.07667826
-4290.74234601
-4286.24557986
-4281.65870732
-4276.98271434
-4272.25166179
-4267.49379401
-4262.68392187
-4257.68302751
-4252.53586479
-4247.20593064
-4241.69608762
-4236.12580592
-4230.70758831
-4225.41776725
-4220.04712729
-4214.16565572
-4207.47004141
-4199.81332886
-4191.25934986
-4181.81332653
-4171.56084153
-4160.43579903
-4148.42859381
-4135.34215686
-4121.02611561
-4105.12369385
-4087.30201337
-4067.05801883
-4043.97400179
-4017.65048036
-3987.94251455
-3954.89148402
-3918.68610513
-3879.487069
-3837.24149878
-3791.90746765
-3743.67845142
-3692.71755384
-3639.2226652
-3583.43175815
-3525.66027605
-3466.32443427
-3405.96913859
-3345.32163384
-3285.30064945
-3227.11839606
-3172.25421358
-3122.62268798
-3080.46813325
-3048.62272121
-3030.27563107
-3029.36948402
-3050.17422698
-3097.86138351
-3177.86137424
-3296.80997932
-3461.45972157
-3679.98588313
-3960.40332514
-4312.62495422
-4746.94088425
-5273.65662005
-5902.4588071
-6646.39860043
-7517.80380763
-8533.13412286
-9714.21090458
-11109.572398
-12782.2616237
-14713.6569912
-4383.93411722
-4387.28559885
-4386.79188211
-4385.97935907
-4385.54918109
-4385.31033248
-4385.1536778
-4385.03514466
-4384.94438645
-4384.86169429
-4384.78966253
-4384.71689115
-4384.65180198
-4384.58321643
-4384.52032286
-4384.45062678
-4384.38426087
-4384.30771138
-4384.23240613
-4384.14400238
-4384.05512986
-4383.95085912
-4383.84502286
-4383.72205971
-4383.59675402
-4383.45348984
-4383.30760835
-4383.14399046
-4382.97840782
-4382.79687973
-4382.61500124
-4382.42023807
-4382.22747949
-4382.02539729
-4381.82732945
-4381.62319613
-4381.4244542
-4381.22161472
-4381.0245649
-4380.82437548
-4380.62943424
-4380.43131716
-4380.2372425
-4380.03898882
-4379.84277422
-4379.64023851
-4379.43672302
-4379.22370465
-4379.00610658
-4378.77519265
-4378.53539735
-4378.2779782
-4378.00679324
-4377.71296674
-4377.39861306
-4377.05537025
-4376.68844184
-4376.29360572
-4375.87668436
-4375.43607523
-4374.97829009
-4374.50405166
-4374.01921682
-4373.52436328
-4373.02381378
-4372.51730742
-4372.0059015
-4371.48709559
-4370.95924162
-4370.41805092
-4369.86044562
-4369.28225595
-4368.68060163
-4368.05284213
-4367.39654045
-4366.71009405
-4365.99163334
-4365.24039818
-4364.45498979
-4363.63569778
-4362.78213577
-4361.89566061
-4360.97736381
-4360.03036944
-4359.05828706
-4358.06579212
-4357.05500319
-4356.0231107
-4354.93767892
-4353.70827073
-4352.26351274
-4350.62694431
-4348.85014125
-4346.94749231
-4344.90668141
-4342.69832728
-4340.29222004
-4337.66424711
-4334.8025614
-4331.72419788
-4328.46985565
-4325.10611694
-4321.68380025
-4318.23484114
-4314.74545792
-4311.18987285
-4307.52602249
-4303.7119335
-4299.71866846
-4295.56819399
-4291.25059581
-4286.78552612
-4282.23520298
-4277.64364887
-4272.91584119
-4268.0033597
-4262.95758518
-4257.76304559
-4252.39564696
-4246.82973653
-4241.12287007
-4235.40015025
-4229.76737866
-4224.15980796
-4218.37781371
-4212.14288728
-4205.2273681
-4197.50964774
-4188.97589368
-4179.62567961
-4169.47665522
-4158.48016499
-4146.56941413
-4133.57323584
-4119.28531882
-4103.36960271
-4085.43350529
-4065.01036799
-4041.67984515
-4015.11010636
-3985.19676606
-3952.01029147
-3915.73859851
-3876.49739642
-3834.20890828
-3788.8540494
-3740.6263427
-3689.68519411
-3636.23205985
-3580.49720585
-3522.80532046
-3463.55801284
-3403.31665131
-3342.78206029
-3282.89959217
-3224.8374288
-3170.11744543
-3120.58652126
-3078.55842008
-3046.77000359
-3028.51946962
-3027.61584868
-3048.48362621
-3096.12542933
-3176.19949298
-3295.12500806
-3459.9640805
-3678.65441001
-3959.65987884
-4312.64643069
-4748.11349254
-5276.14055015
-5906.36584662
-6650.41461252
-7520.39112725
-8529.92384514
-9697.28553462
-11062.6689051
-12680.0164952
-14540.7748004
-4384.56194326
-4388.84890263
-4387.34210238
-4386.12152595
-4385.6504537
-4385.43099535
-4385.29585919
-4385.19160577
-4385.11012156
-4385.03344674
-4384.96607165
-4384.89667524
-4384.83410045
-4384.76715079
-4384.70550312
-4384.63700189
-4384.57210643
-4384.49769362
-4384.4251275
-4384.34035391
-4384.25591768
-4384.15688854
-4384.05677176
-4383.9401874
-4383.82146647
-4383.68491583
-4383.54570964
-4383.38860882
-4383.22921815
-4383.05346028
-4382.87693568
-4382.68706941
-4382.49857018
-4382.30043802
-4382.10606318
-4381.90529472
-4381.70982295
-4381.5103397
-4381.3166068
-4381.11990438
-4380.9286081
-4380.73444199
-4380.54464604
-4380.35118725
-4380.16029017
-4379.96378947
-4379.76705636
-4379.56166404
-4379.35228766
-4379.13037611
-4378.90009481
-4378.65246836
-4378.39126745
-4378.10724742
-4377.8019561
-4377.4656738
-4377.10300802
-4376.70876911
-4376.28854515
-4375.84009073
-4375.37029958
-4374.8795626
-4374.37491833
-4373.85803291
-4373.33394427
-4372.80272556
-4372.26674013
-4371.72333723
-4371.1714105
-4370.60649777
-4370.02583471
-4369.42518517
-4368.80202877
-4368.15319757
-4367.47655031
-4366.76997744
-4366.0312992
-4365.25953348
-4364.4531876
-4363.61293564
-4362.73833628
-4361.83214633
-4360.89543166
-4359.93320663
-4358.94831206
-4357.9471997
-4356.92979376
-4355.8950283
-4354.80875936
-4353.57933585
-4352.13428422
-4350.49816234
-4348.72430034
-4346.83113242
-4344.8055392
-4342.61583616
-4340.22705693
-4337.61620776
-4334.77603662
-4331.74212736
-4328.55184657
-4325.28474305
-4321.94509821
-4318.57165917
-4315.12427988
-4311.62161906
-4308.00426297
-4304.23813944
-4300.27021715
-4296.18197733
-4291.97479818
-4287.60469576
-4283.0238793
-4278.31635371
-4273.43887886
-4268.36904053
-4263.10869387
-4257.69248585
-4252.08756302
-4246.33345375
-4240.47816408
-4234.63984423
-4228.81595378
-4222.96043525
-4216.87200708
-4210.39408024
-4203.3108957
-4195.56236413
-4187.05491229
-4177.82255428
-4167.7870151
-4156.95023736
-4145.14620248
-4132.26461174
-4117.99752597
-4102.05295392
-4083.9622472
-4063.31956559
-4039.70053977
-4012.86684726
-3982.73246364
-3949.40928607
-3913.06659193
-3873.76169042
-3831.38983114
-3786.00442029
-3737.76568023
-3686.84503349
-3633.4262636
-3577.7529941
-3520.13261423
-3460.9818333
-3400.84204006
-3340.43063827
-3280.6670493
-3222.73967596
-3168.1362274
-3118.73185073
-3076.80028993
-3045.12217364
-3026.95196716
-3026.15109117
-3047.09060009
-3094.83877061
-3175.00957163
-3294.05568421
-3459.01319904
-3677.89653813
-3959.30420009
-4313.01189649
-4749.31649094
-5278.75095222
-5911.0986399
-6657.5658787
-7529.75898095
-8540.34383695
-9703.73478256
-11046.0791928
-12598.4825626
-14372.3039299
-4385.42189457
-4390.28461949
-4387.62942221
-4386.22977394
-4385.83426521
-4385.65348048
-4385.53289028
-4385.42818752
-4385.34267261
-4385.26115512
-4385.18954991
-4385.11590287
-4385.04908099
-4384.97745424
-4384.91096003
-4384.83743718
-4384.76759419
-4384.6884319
-4384.61149495
-4384.52290922
-4384.43497255
-4384.33309969
-4384.23055997
-4384.11195115
-4383.99143101
-4383.85343163
-4383.71273564
-4383.55424766
-4383.39330946
-4383.2159997
-4383.03758265
-4382.84566386
-4382.65492814
-4382.45435549
-4382.25715583
-4382.05364414
-4381.85510885
-4381.65245495
-4381.45536442
-4381.25530016
-4381.0604401
-4380.86282196
-4380.66950079
-4380.47280675
-4380.27878133
-4380.07968732
-4379.88061238
-4379.67359787
-4379.46311127
-4379.24092577
-4379.01105471
-4378.76485835
-4378.50592627
-4378.22560823
-4377.92480985
-4377.59318825
-4377.23464514
-4376.84400187
-4376.42661483
-4375.98029424
-4375.51143125
-4375.02055936
-4374.51440396
-4373.99438866
-4373.46613182
-4372.93009697
-4372.38822503
-4371.83811841
-4371.27832319
-4370.70439398
-4370.1134847
-4369.50157446
-4368.86621101
-4368.20486771
-4367.51524073
-4366.79553487
-4366.04343109
-4365.25771037
-4364.43682309
-4363.58104481
-4362.69077966
-4361.76852929
-4360.81715994
-4359.84126263
-4358.84568535
-4357.83635512
-4356.81457879
-4355.77648117
-4354.68924362
-4353.45399423
-4352.0015037
-4350.35731274
-4348.57805266
-4346.68546315
-4344.66977236
-4342.4956693
-4340.12166898
-4337.52604209
-4334.72120982
-4331.74125132
-4328.65582557
-4325.4965931
-4322.26987081
-4318.94724173
-4315.54781645
-4312.0765246
-4308.55159162
-4304.89582959
-4301.01801411
-4296.93025484
-4292.69612471
-4288.29389016
-4283.68740606
-4278.87387737
-4273.83339266
-4268.57096922
-4263.12001366
-4257.504826
-4251.72912714
-4245.83775538
-4239.89328383
-4233.94273251
-4227.96943106
-4221.89864579
-4215.59315232
-4208.91505545
-4201.72073967
-4193.92899189
-4185.4698152
-4176.32052073
-4166.41467276
-4155.69314315
-4144.00376133
-4131.17593024
-4116.90965578
-4100.84995637
-4082.55717448
-4061.62248693
-4037.69028688
-4010.57290342
-3980.23153306
-3946.78253485
-3910.38111358
-3871.00334804
-3828.54822024
-3783.13560987
-3734.90297384
-3684.01735937
-3630.65417894
-3575.06001892
-3517.53229017
-3458.49549763
-3398.47610259
-3338.20283735
-3278.57285116
-3220.79049268
-3166.31306461