/*--------------------------------*- C++ -*----------------------------------*\
| =========                 |                                                 |
| \\      /  F ield         | OpenFOAM: The Open Source CFD Toolbox           |
|  \\    /   O peration     | Version:  v1806                                 |
|   \\  /    A nd           | Web:      www.OpenFOAM.com                      |
|    \\/     M anipulation  |                                                 |
\*---------------------------------------------------------------------------*/
FoamFile
{
    version     2.0;
    format      ascii;
    class       surfaceScalarField;
    location    "26";
    object      phi;
}
// * * * * * * * * * * * * * * * * * * * * * * * * * * * * * * * * * * * * * //

dimensions      [0 3 -1 0 0 0 0];
oriented        oriented;


internalField   nonuniform List<scalar> 
24170
(
3.07331979971e-06
1.15082083265e-07
2.98604469293e-06
8.72708444587e-08
2.9055517894e-06
8.04875463192e-08
2.82781364241e-06
7.77335014027e-08
2.75305245282e-06
7.47561676811e-08
2.6813662835e-06
7.16821287128e-08
2.61256487629e-06
6.87966102351e-08
2.54638876689e-06
6.61722869726e-08
2.48255509853e-06
6.38292923246e-08
2.42075422236e-06
6.1797323896e-08
2.36063324893e-06
6.01169419446e-08
2.30178361451e-06
5.88462711679e-08
2.24370979045e-06
5.80702594694e-08
2.18577838435e-06
5.7928285655e-08
2.12710560478e-06
5.86697810102e-08
2.06626213478e-06
6.0841337185e-08
2.00030371482e-06
6.59573138811e-08
8.18860896483e-08
1.91841621522e-06
3.4313930617e-06
1.00933732766e-07
3.42595296069e-06
9.27065697228e-08
3.41848338759e-06
8.79519349804e-08
3.40779607418e-06
8.84162486062e-08
3.39435510037e-06
8.81924711735e-08
3.37877699288e-06
8.72563465344e-08
3.36137571951e-06
8.6193639906e-08
3.3423234457e-06
8.52210288513e-08
3.32171373561e-06
8.44353185442e-08
3.29956696157e-06
8.39409749997e-08
3.27581907286e-06
8.38616378327e-08
3.25031058836e-06
8.43520124432e-08
3.22275646341e-06
8.56217670346e-08
3.19269190072e-06
8.79905642903e-08
3.15935550897e-06
9.20042268369e-08
3.12147163093e-06
9.87239463861e-08
3.07684880614e-06
1.10579812586e-07
1.31610578597e-07
3.02712282486e-06
3.67981121653e-06
8.36356808773e-08
3.68385158734e-06
8.86624808227e-08
3.68597155447e-06
8.58274878465e-08
3.68679598087e-06
8.75878709886e-08
3.68608546498e-06
8.88989172002e-08
3.68403157986e-06
8.93068275021e-08
3.68072793458e-06
8.94935155979e-08
3.67617291628e-06
8.97728779388e-08
3.67032320062e-06
9.0281660392e-08
3.66310290264e-06
9.11583614061e-08
3.65439190664e-06
9.25695685399e-08
3.6440157221e-06
9.47254712833e-08
3.63172466261e-06
9.79101025542e-08
3.61716608571e-06
1.02546617184e-07
3.59985122453e-06
1.09316704413e-07
3.57919058938e-06
1.19382591371e-07
3.55498714037e-06
1.34781609213e-07
1.57143737809e-07
3.52945106503e-06
3.93951222114e-06
6.95077398523e-08
3.94519932795e-06
8.29712092511e-08
3.94811628574e-06
8.29058111788e-08
3.9501552859e-06
8.55445791488e-08
3.95109384216e-06
8.79561522386e-08
3.95101139963e-06
8.93855673898e-08
3.95000206176e-06
9.04990856362e-08
3.94806706461e-06
9.17045384894e-08
3.94515747795e-06
9.31879778086e-08
3.94119584571e-06
9.51170441456e-08
3.93607277955e-06
9.76897882907e-08
3.92964383276e-06
1.01151841432e-07
3.92172388382e-06
1.05827635843e-07
3.91208898153e-06
1.12179295157e-07
3.90050648401e-06
1.20897187867e-07
3.88687171257e-06
1.33015670911e-07
3.8716531248e-06
1.49998802572e-07
1.72588485841e-07
3.8562064178e-06
4.21831541238e-06
5.83160190152e-08
4.22444517682e-06
7.6837927927e-08
4.2274527527e-06
7.98941722723e-08
4.22954141916e-06
8.34522452367e-08
4.23066283832e-06
8.6831041069e-08
4.23080830332e-06
8.92368663326e-08
4.23006075513e-06
9.12432272866e-08
4.22843681257e-06
9.3325452911e-08
4.22590074804e-06
9.57209558555e-08
4.22239086626e-06
9.86241047059e-08
4.2178225604e-06
1.0225525554e-07
4.21209040307e-06
1.06881347126e-07
4.20507368647e-06
1.12841753193e-07
4.19665738737e-06
1.20593089247e-07
4.18679024504e-06
1.30761915792e-07
4.17562708616e-06
1.44176643154e-07
4.16381760809e-06
1.61806164916e-07
1.83994843597e-07
4.15240823662e-06
4.51791953246e-06
4.94797699701e-08
4.52403925446e-06
7.07141619611e-08
4.52717620045e-06
7.67529229568e-08
4.52925935685e-06
8.13650018635e-08
4.53043418252e-06
8.56523774888e-08
4.53064158792e-06
8.90258855822e-08
4.52993612368e-06
9.1945283118e-08
4.52834206835e-06
9.4916302844e-08
4.52583560094e-06
9.82244285816e-08
4.52236903882e-06
1.02087810625e-07
4.5178802291e-06
1.06741419327e-07
4.51229923142e-06
1.12459823949e-07
4.505562e-06
1.19576614923e-07
4.49764158493e-06
1.28511196567e-07
4.48861287549e-06
1.39788429427e-07
4.47876985183e-06
1.54017570696e-07
4.46879450232e-06
1.71779536295e-07
1.93140947647e-07
4.4596465026e-06
4.8396699311e-06
4.25266351281e-08
4.84549212369e-06
6.48885671477e-08
4.84874038664e-06
7.35009692435e-08
4.85082153852e-06
7.92803090634e-08
4.85202390324e-06
8.44466442622e-08
4.85228339341e-06
8.8763208871e-08
4.8516236299e-06
9.26019545547e-08
4.85007012556e-06
9.64668394742e-08
4.84761038263e-06
1.00681327874e-07
4.84421155447e-06
1.05483872154e-07
4.83983468291e-06
1.11115646417e-07
4.83444597387e-06
1.17845964188e-07
4.82803553505e-06
1.25984556885e-07
4.82065229258e-06
1.35891963551e-07
4.81246330204e-06
1.47975002662e-07
4.80383846869e-06
1.62640158393e-07
4.79543587795e-06
1.80180131706e-07
2.0046445268e-07
4.788108645e-06
5.18505569172e-06
3.70482023971e-08
5.19040944404e-06
5.95310089639e-08
5.19371503985e-06
7.01913566522e-08
5.19581759961e-06
7.71739472771e-08
5.19705998751e-06
8.32006258462e-08
5.19739862662e-06
8.84212330075e-08
5.19683063287e-06
9.31667150864e-08
5.19537759014e-06
9.79169134746e-08
5.19303838829e-06
1.0301763654e-07
5.18979794417e-06
1.08721669063e-07
5.18564349648e-06
1.15267529787e-07
5.18057956837e-06
1.22907487233e-07
5.1746487922e-06
1.31912949443e-07
5.16796544866e-06
1.42572996315e-07
5.1607631916e-06
1.55174943721e-07
5.15344925147e-06
1.69951981582e-07
5.14663721239e-06
1.86989470942e-07
2.06029679911e-07
5.14106953698e-06
5.5556644607e-06
3.27181889888e-08
5.56047176623e-06
5.47204470396e-08
5.56376868143e-06
6.68909889523e-08
5.56591023057e-06
7.50290406782e-08
5.56721124549e-06
8.18964049578e-08
5.56765592945e-06
8.79734992713e-08
5.56722563795e-06
9.35940721979e-08
5.5659369729e-06
9.92027567936e-08
5.56380092297e-06
1.05150979992e-07
5.56082290833e-06
1.11697070415e-07
5.55701880464e-06
1.19069177514e-07
5.55243161131e-06
1.27492249193e-07
5.54715221402e-06
1.37189983355e-07
5.54134762716e-06
1.48375196296e-07
5.53529523212e-06
1.61225036212e-07
5.52941117156e-06
1.7583381752e-07
5.5242515085e-06
1.92146868594e-07
2.09837371195e-07
5.52044006467e-06
5.95322019209e-06
2.92705322942e-08
5.95747200415e-06
5.04649600783e-08
5.96070186999e-06
6.36574093178e-08
5.96289525735e-06
7.28320282814e-08
5.96428460754e-06
8.05036817695e-08
5.96487538838e-06
8.73794925976e-08
5.96464362453e-06
9.38228576633e-08
5.96360191414e-06
1.00241589385e-07
5.96177268267e-06
1.0697756686e-07
5.95918263947e-06
1.14284671749e-07
5.95587628699e-06
1.22373157975e-07
5.95193257537e-06
1.31433611292e-07
5.9474832418e-06
1.41637117265e-07
5.94273392808e-06
1.53122249226e-07
5.93798525155e-06
1.65971618159e-07
5.9336421217e-06
1.80174919218e-07
5.93019806338e-06
1.9558819652e-07
2.11858945292e-07
5.92817380777e-06
6.37958344843e-06
2.64960748816e-08
6.38331853972e-06
4.67265197653e-08
6.38644472905e-06
6.05276630273e-08
6.38870353962e-06
7.05697773433e-08
6.3902212262e-06
7.89826349375e-08
6.3910105729e-06
8.65870087407e-08
6.39104903154e-06
9.37813274435e-08
6.39034781154e-06
1.0093995719e-07
6.38893996635e-06
1.08382686327e-07
6.38687303765e-06
1.16349063604e-07
6.38421864403e-06
1.25025043182e-07
6.38108721506e-06
1.34562774777e-07
6.37764213734e-06
1.45079783054e-07
6.37411347673e-06
1.56648726223e-07
6.37080736275e-06
1.69275512595e-07
6.36810251304e-06
1.82877712079e-07
6.36642647635e-06
1.97262020735e-07
2.12085165734e-07
6.36619684259e-06
5.74278723366e-06
2.45396487192e-08
5.74559582278e-06
4.39143943716e-08
5.7481490538e-06
5.79708308556e-08
5.75012340181e-06
6.8591994183e-08
5.75154357671e-06
7.75591276567e-08
5.75241476438e-06
8.57127346083e-08
5.75272130549e-06
9.34717941122e-08
5.75247354295e-06
1.01184960563e-07
5.75170666456e-06
1.09146962212e-07
5.75047495381e-06
1.17578382856e-07
5.74885673479e-06
1.26641040624e-07
5.74696377998e-06
1.36452866886e-07
5.74495039369e-06
1.4709127396e-07
5.74301810396e-06
1.58578332126e-07
5.74141889617e-06
1.708729258e-07
5.74044508597e-06
1.83849231587e-07
5.74041106378e-06
1.97293421526e-07
2.10869563354e-07
5.74162370409e-06
7.00005177265e-06
2.26405606126e-08
7.00293385782e-06
4.10292713481e-08
7.00576404264e-06
5.51375929758e-08
7.00811722929e-06
6.62356982309e-08
7.00994207247e-06
7.57313978797e-08
7.01122972908e-06
8.44221859525e-08
7.011966199e-06
9.2732693316e-08
7.01216658991e-06
1.00981995367e-07
7.01187953425e-06
1.09431730708e-07
7.01118166524e-06
1.18274117014e-07
7.0101798059e-06
1.27639847208e-07
7.0090195746e-06
1.37611078338e-07
7.00788782362e-06
1.48219976827e-07
7.00701760862e-06
1.59446845527e-07
7.00667986914e-06
1.71207879076e-07
7.00717352994e-06
1.83353814403e-07
7.00879769978e-06
1.95665955499e-07
2.07847452263e-07
7.01181762514e-06
8.5326897233e-06
2.07950033101e-08
8.53564670157e-06
3.80694846575e-08
8.53879466668e-06
5.19866599698e-08
8.54164214706e-06
6.33856401149e-08
8.54405511439e-06
7.3315536682e-08
8.5459993427e-06
8.24755517934e-08
8.54746075899e-06
9.12685755293e-08
8.54846128047e-06
9.99793021572e-08
8.54906398213e-06
1.08826705792e-07
8.54936870792e-06
1.17966743087e-07
8.54951199495e-06
1.27493785126e-07
8.54966891579e-06
1.37451167602e-07
8.5500547896e-06
1.47831710372e-07
8.55091989213e-06
1.58579084265e-07
8.55254198484e-06
1.69583890665e-07
8.55520618995e-06
1.80686805862e-07
8.55918583778e-06
1.91684451958e-07
2.02323956843e-07
8.56470556375e-06
1.04010556276e-05
1.89557344305e-08
1.04041578587e-05
3.49643524343e-08
1.04077352548e-05
4.84067125314e-08
1.04112724165e-05
5.98454958304e-08
1.041456279e-05
7.00229062079e-08
1.04175367519e-05
7.9498661152e-08
1.04201773324e-05
8.86259726383e-08
1.04225120483e-05
9.76418320777e-08
1.0424618408e-05
1.06718359201e-07
1.04266156604e-05
1.15965991528e-07
1.04286648318e-05
1.25442170592e-07
1.04309607299e-05
1.35151505191e-07
1.04337332556e-05
1.45057392342e-07
1.04372319583e-05
1.55077282774e-07
1.04417203518e-05
1.6509407036e-07
1.04474506564e-05
1.7495380222e-07
1.0454650534e-05
1.84482771161e-07
1.93478346199e-07
1.04634944489e-05
1.26787353862e-05
1.70073818886e-08
1.26821697303e-05
3.15272096556e-08
1.26864260243e-05
4.41474001078e-08
1.26909996148e-05
5.52693860346e-08
1.2695628725e-05
6.53908040929e-08
1.27002063336e-05
7.49188187024e-08
1.27047029782e-05
8.41263518302e-08
1.27091496485e-05
9.31932631351e-08
1.27136284946e-05
1.02236066633e-07
1.27182718073e-05
1.11320605435e-07
1.27232457994e-05
1.2046384373e-07
1.27287526267e-05
1.29643248052e-07
1.27350079134e-05
1.38798173329e-07
1.27422440446e-05
1.47840474777e-07
1.27506793328e-05
1.56655188078e-07
1.27605199355e-05
1.65113164577e-07
1.27719244607e-05
1.73074548878e-07
1.80394026734e-07
1.27850094362e-05
1.54554474586e-05
1.47369596141e-08
1.54595793544e-05
2.73922687777e-08
1.54649919594e-05
3.8731755077e-08
1.54711964105e-05
4.90619643728e-08
1.54778915639e-05
5.86927775541e-08
1.54849291902e-05
6.78783461553e-08
1.54922588483e-05
7.67940447479e-08
1.54998994126e-05
8.55499374939e-08
1.55079265827e-05
9.42062980193e-08
1.55164607331e-05
1.02783211663e-07
1.55256565955e-05
1.11265463935e-07
1.55356879815e-05
1.19608779526e-07
1.55467389753e-05
1.27745208375e-07
1.55589868247e-05
1.35589828568e-07
1.55725941877e-05
1.4304641711e-07
1.55876902953e-05
1.50014495446e-07
1.56043683977e-05
1.56395722499e-07
1.62093909779e-07
1.56226657674e-05
1.88405785313e-05
1.17925723336e-08
1.88460338594e-05
2.19336303231e-08
1.88534158034e-05
3.13465570077e-08
1.88622109046e-05
4.026352802e-08
1.88720685311e-05
4.88321020697e-08
1.88827898451e-05
5.71537640102e-08
1.88942859106e-05
6.52952348706e-08
1.89065423139e-05
7.3290306803e-08
1.89196031809e-05
8.11429509649e-08
1.893355075e-05
8.88322410685e-08
1.89484964575e-05
9.63175193692e-08
1.89645588546e-05
1.03542968544e-07
1.89818598538e-05
1.10442363907e-07
1.90005026045e-05
1.16943728542e-07
1.90205734893e-05
1.22974140832e-07
1.9042120506e-05
1.28464107353e-07
1.90651637356e-05
1.33351834022e-07
1.37582202489e-07
1.90896717771e-05
2.29675922405e-05
7.53378325862e-09
2.29754543164e-05
1.40677127058e-08
2.29861678608e-05
2.06290386859e-08
2.29990768637e-05
2.73506797956e-08
2.30137293412e-05
3.41758630393e-08
2.3029851848e-05
4.10275012051e-08
2.30472914116e-05
4.78522248257e-08
2.30659720177e-05
5.46059369083e-08
2.30858755351e-05
6.12363943865e-08
2.31070168496e-05
6.7687133902e-08
2.31294341899e-05
7.38975483319e-08
2.31531653356e-05
7.98079732641e-08
2.31782469548e-05
8.53585386135e-08
2.32046930205e-05
9.04938877599e-08
2.32325022167e-05
9.51632826457e-08
2.32616376397e-05
9.93248512973e-08
2.32920430614e-05
1.02945592337e-07
1.06001808744e-07
2.33236194826e-05
1.68145764769e-05
3.65932584152e-09
1.68215996202e-05
7.04064949161e-09
1.68309988984e-05
1.1227102919e-08
1.6842159425e-05
1.61858168201e-08
1.6854717656e-05
2.16153953408e-08
1.68684601009e-05
2.72802987516e-08
1.68832576532e-05
3.30529288815e-08
1.68990211802e-05
3.8837668543e-08
1.69157069077e-05
4.45494479851e-08
1.69332826624e-05
5.01067962847e-08
1.69517370614e-05
5.54421587658e-08
1.6971048305e-05
6.04922432513e-08
1.69912016817e-05
6.52044250042e-08
1.70121613377e-05
6.95298299881e-08
1.70338926297e-05
7.34313311578e-08
1.70563354318e-05
7.68776720878e-08
1.70794301499e-05
7.9850517315e-08
8.23364665762e-08
1.71030911237e-05
1.46387031571e-05
-4.78344907504e-10
1.4646058649e-05
-3.17696963328e-10
1.46555950432e-05
1.68703895714e-09
1.46666343831e-05
5.14365868948e-09
1.46788650262e-05
9.38078934848e-09
1.46921246494e-05
1.40183768806e-08
1.47062930699e-05
1.88803742603e-08
1.47212904447e-05
2.38385371551e-08
1.47370616102e-05
2.87745613956e-08
1.47535722255e-05
3.35945732817e-08
1.47707868762e-05
3.82239627887e-08
1.47886745035e-05
4.26032237616e-08
1.48071939109e-05
4.6681518714e-08
1.4826304253e-05
5.04182372416e-08
1.48459514625e-05
5.37806497609e-08
1.48660823691e-05
5.6745792562e-08
1.48866312493e-05
5.9298118085e-08
6.14308632254e-08
1.49075363973e-05
1.27446884582e-05
-5.03752799576e-09
1.27524871069e-05
-8.11942118128e-09
1.27620862034e-05
-7.91481638298e-09
1.27728018648e-05
-5.57522485033e-09
1.27844523032e-05
-2.27243190573e-09
1.27969355488e-05
1.53156753459e-09
1.28101532673e-05
5.66016989826e-09
1.28240368911e-05
9.95209957671e-09
1.28385441684e-05
1.42648901702e-08
1.28536410547e-05
1.84954105178e-08
1.28692922935e-05
2.25702269108e-08
1.2885460286e-05
2.64330820556e-08
1.29021019216e-05
3.00371998856e-08
1.29191706099e-05
3.33475079432e-08
1.29366128256e-05
3.63359463572e-08
1.29543718294e-05
3.89848916088e-08
1.29723853449e-05
4.12826740745e-08
4.32268786304e-08
1.29905870939e-05
1.1096163965e-05
-1.02752502493e-08
1.11045284375e-05
-1.64865981603e-08
1.11140779777e-05
-1.74673834824e-08
1.11243053541e-05
-1.58054677795e-08
1.11352308337e-05
-1.32010025923e-08
1.11468032937e-05
-1.00434975097e-08
1.11589421874e-05
-6.48147942398e-09
1.11716049819e-05
-2.71326560642e-09
1.11847682301e-05
1.09960211362e-09
1.11984044255e-05
4.85647298459e-09
1.12124820177e-05
8.49081438846e-09
1.12269618388e-05
1.19502028239e-08
1.12418035939e-05
1.51939272349e-08
1.12569589479e-05
1.81888754849e-08
1.12723815272e-05
2.09122592861e-08
1.12880190329e-05
2.33444758971e-08
1.13038283175e-05
2.54725625917e-08
2.72858153273e-08
1.13197665196e-05
9.66147268499e-06
-1.65359466635e-08
9.67048288462e-06
-2.5499502572e-08
9.67980562039e-06
-2.67926517794e-08
9.68939970155e-06
-2.54024660013e-08
9.69949675246e-06
-2.33007564658e-08
9.71005723076e-06
-2.06069592906e-08
9.72102755582e-06
-1.74544028456e-08
9.73239930749e-06
-1.40873695918e-08
9.744166316e-06
-1.06697668426e-08
9.75631027018e-06
-7.28945562598e-09
9.76880490664e-06
-4.00622962072e-09
9.78161946788e-06
-8.66411326546e-10
9.79471588925e-06
2.09461337352e-09
9.8080510709e-06
4.85181563304e-09
9.82157588567e-06
7.38519913185e-09
9.83523926495e-06
9.67935244053e-09
9.84898860295e-06
1.1721498708e-08
1.35001954408e-08
9.86277234428e-06
8.41319312602e-06
-2.43793791783e-08
8.42280147427e-06
-3.51106110486e-08
8.43167182657e-06
-3.56658996875e-08
8.4405755747e-06
-3.43091080131e-08
8.44985350217e-06
-3.25814709755e-08
8.45943628415e-06
-3.01920983471e-08
8.46930399914e-06
-2.73248122577e-08
8.47947881851e-06
-2.42646260327e-08
8.48996687907e-06
-2.11599474198e-08
8.50075696764e-06
-1.8081817691e-08
8.51182865001e-06
-1.50801834807e-08
8.52315440057e-06
-1.21946285795e-08
8.53469962061e-06
-9.45268857857e-09
8.54642399848e-06
-6.87479731321e-09
8.55828318178e-06
-4.476017693e-09
8.57023140845e-06
-2.27043076064e-09
8.58222906095e-06
-2.78762809517e-10
1.46452886752e-09
8.59426335468e-06
7.32729859304e-06
-3.43962546293e-08
7.33720635671e-06
-4.50210545672e-08
7.34536645429e-06
-4.38285806108e-08
7.35350065657e-06
-4.24462735775e-08
7.36187710995e-06
-4.09606833943e-08
7.37042091259e-06
-3.87385815465e-08
7.37917067398e-06
-3.60770940449e-08
7.38817095103e-06
-3.32672142566e-08
7.39743174024e-06
-3.04228747262e-08
7.40694466262e-06
-2.75968206168e-08
7.41669277285e-06
-2.48305530974e-08
7.42665283751e-06
-2.21568954296e-08
7.43679451782e-06
-1.95967190926e-08
7.4470811969e-06
-1.7163570473e-08
7.45746837117e-06
-1.48650950863e-08
7.46790162063e-06
-1.27055858226e-08
7.47831662179e-06
-1.06957040191e-08
-8.87375919795e-09
7.48865244644e-06
6.38320771665e-06
-4.75404699437e-08
6.39285729909e-06
-5.46731754691e-08
6.40032114512e-06
-5.12949444073e-08
6.40782478332e-06
-4.99531019377e-08
6.41537397502e-06
-4.85120992632e-08
6.42295532644e-06
-4.63219807109e-08
6.4306701021e-06
-4.37942406725e-08
6.43857550886e-06
-4.11747824723e-08
6.44668636667e-06
-3.8535680527e-08
6.45500071036e-06
-3.59130955967e-08
6.46350758521e-06
-3.33400904926e-08
6.47219009394e-06
-3.08411112475e-08
6.48102355689e-06
-2.84320058434e-08
6.48997777234e-06
-2.6119751856e-08
6.49901406873e-06
-2.39031494047e-08
6.50807784073e-06
-2.17710056716e-08
6.51709136955e-06
-1.97111186601e-08
-1.77465911639e-08
6.52596158994e-06
5.5622533387e-06
-6.43319005123e-08
5.57033143621e-06
-6.27539060317e-08
5.57689160461e-06
-5.78577772533e-08
5.58347350607e-06
-5.65386247812e-08
5.58985171709e-06
-5.48931567981e-08
5.59613576606e-06
-5.26082547357e-08
5.60245114498e-06
-5.01120275079e-08
5.60885026269e-06
-4.75761004939e-08
5.61535409892e-06
-4.50414436334e-08
5.62197201282e-06
-4.25333115751e-08
5.62870534812e-06
-4.00759437277e-08
5.63554921612e-06
-3.76870757981e-08
5.64249262451e-06
-3.53772375957e-08
5.64952030237e-06
-3.31493502829e-08
5.65661020749e-06
-3.09947814983e-08
5.66371877145e-06
-2.88810963636e-08
5.67073696998e-06
-2.67315444187e-08
-2.43372384938e-08
5.67732547608e-06
4.84630072984e-06
-8.30282804338e-08
4.84840819056e-06
-6.48643027494e-08
4.84985167124e-06
-5.93044543671e-08
4.85018439922e-06
-5.68755146301e-08
4.8495242779e-06
-5.42363198626e-08
4.84829876449e-06
-5.13853594226e-08
4.84675336822e-06
-4.8569355162e-08
4.84503200914e-06
-4.5857246222e-08
4.84324378909e-06
-4.3255543008e-08
4.84147466769e-06
-4.07669275046e-08
4.83979006951e-06
-3.8394424054e-08
4.83823888931e-06
-3.61383368787e-08
4.83685646913e-06
-3.39969861284e-08
4.83566992837e-06
-3.19649939664e-08
4.83470360033e-06
-3.00303970923e-08
4.83398056509e-06
-2.81600226941e-08
4.83351316437e-06
-2.6266483476e-08
-2.35320309445e-08
4.83270527097e-06
4.11964773259e-06
4.05478318002e-06
3.99547835081e-06
3.93860251278e-06
3.88436592441e-06
3.83298025781e-06
3.78441059468e-06
3.7385530492e-06
3.69529713376e-06
3.65452972385e-06
3.6161348874e-06
3.57999617392e-06
3.54599877056e-06
3.51403337073e-06
3.48400257102e-06
3.45584201809e-06
3.42957485379e-06
3.40604239666e-06
4.25990008727e-08
-4.27510989447e-08
3.05952486231e-09
3.93990319789e-08
-1.73857876262e-07
1.76867614738e-07
-3.95178729647e-07
2.21281157901e-07
-6.35692726392e-07
2.40497362613e-07
-8.8974817687e-07
2.54033521066e-07
-1.15440039405e-06
2.64643767167e-07
-1.42741553513e-06
2.72999650619e-07
-1.7068523022e-06
2.79430755291e-07
-1.99100379366e-06
2.84139112367e-07
-2.27827449011e-06
2.87265895963e-07
-2.56720381217e-06
2.88918873764e-07
-2.85639687886e-06
2.89189061106e-07
-3.14456304939e-06
2.88157244445e-07
-3.43046700184e-06
2.85900656833e-07
-3.71296906543e-06
2.82494366617e-07
-3.99098652578e-06
2.78014870675e-07
-4.26353293829e-06
2.72539571528e-07
-4.52968455346e-06
2.66149128611e-07
-4.78861707734e-06
2.58926058585e-07
-5.03957612097e-06
2.50956501765e-07
-5.28191125886e-06
2.42328619772e-07
-5.51504865742e-06
2.33134239539e-07
-5.73852254443e-06
2.23467037542e-07
-5.95195051116e-06
2.13424095945e-07
-6.15506156928e-06
2.03103977566e-07
-6.34767347673e-06
1.92607737735e-07
-6.529717044e-06
1.82036385848e-07
-6.70121282844e-06
1.71491218574e-07
-6.86229038289e-06
1.61070357671e-07
-7.01316289704e-06
1.50868021038e-07
-7.15414016423e-06
1.40970194801e-07
-7.28559826945e-06
1.31453487512e-07
-7.40798576203e-06
1.22380558918e-07
-7.52178930104e-06
1.13799192558e-07
-7.62753474245e-06
1.05738600728e-07
-7.72574928629e-06
9.82100965295e-08
-7.81696123274e-06
9.12050037569e-08
-7.90166338021e-06
8.46975469384e-08
-7.98031545544e-06
7.86450226943e-08
-8.05331302437e-06
7.29929078968e-08
-8.1209967147e-06
6.76766619463e-08
-8.18362948022e-06
6.26282131507e-08
-8.24141507738e-06
5.77787050008e-08
-8.29448474416e-06
5.30654155829e-08
-8.34292477645e-06
4.84332627733e-08
-8.38676859971e-06
4.38396001394e-08
-8.42602997641e-06
3.92544689326e-08
-8.46069975957e-06
3.46654303817e-08
-8.49078036686e-06
3.00730632716e-08
-8.51627658482e-06
2.54910677249e-08
-8.53722048359e-06
2.09351571612e-08
-8.55365601767e-06
1.64290554182e-08
-8.56566379167e-06
1.19978496579e-08
-8.57332914553e-06
7.65813448788e-09
-8.57674743963e-06
3.40718064819e-09
-8.57603877004e-06
-7.17160551014e-10
-8.57140797247e-06
-4.64303090463e-09
-8.56307943487e-06
-8.33749820452e-09
-8.55128716349e-06
-1.18054849556e-08
-8.53623356543e-06
-1.50636017932e-08
-8.51811047635e-06
-1.81369659007e-08
-8.49707014733e-06
-2.10501729038e-08
-8.47325673594e-06
-2.38276922021e-08
-8.44678294369e-06
-2.64840390368e-08
-8.41776875347e-06
-2.9029130483e-08
-8.38631937317e-06
-3.14600388089e-08
-8.35256667232e-06
-3.3767978283e-08
-8.31664433214e-06
-3.59327710516e-08
-8.27872577501e-06
-3.79335585873e-08
-8.23899117626e-06
-3.97445804146e-08
-8.1976584322e-06
-4.13477098385e-08
-8.15494065596e-06
-4.2727842386e-08
-8.11107182551e-06
-4.38849694586e-08
-8.0662571611e-06
-4.48265535761e-08
-8.02069857933e-06
-4.55776500507e-08
-7.97454522174e-06
-4.61686884843e-08
-7.92792430283e-06
-4.66423083511e-08
-7.88090184354e-06
-4.7038607811e-08
-7.83352420041e-06
-4.74004383913e-08
-7.7857852078e-06
-4.77568058991e-08
-7.7376783276e-06
-4.81306121945e-08
-7.68917050086e-06
-4.85254947122e-08
-7.64025716063e-06
-4.89386787507e-08
-7.5909262152e-06
-4.93511578923e-08
-7.54120545136e-06
-4.9747432378e-08
-7.49111500038e-06
-5.01097165166e-08
-7.44069359205e-06
-5.04407622665e-08
-7.38994379441e-06
-5.07592978447e-08
-7.33882914397e-06
-5.11170380865e-08
-7.2872329776e-06
-5.16032294204e-08
-7.23489998807e-06
-5.23454989048e-08
-7.18140266251e-06
-5.35128197498e-08
-7.12610670145e-06
-5.53110686332e-08
-7.06814487339e-06
-5.7977040571e-08
-7.00639159048e-06
-6.17669523829e-08
-6.93946265812e-06
-6.69431378572e-08
-6.86572145471e-06
-7.3755167802e-08
-6.78331580865e-06
-8.24218113294e-08
-6.69022512309e-06
-9.31099151343e-08
-6.58434200357e-06
-1.05908253042e-07
-6.46357539134e-06
-1.2080815e-07
-6.32594998035e-06
-1.37676332733e-07
-6.16974514248e-06
-1.56278837778e-07
-5.99354235035e-06
-1.76273102992e-07
-5.7963772377e-06
-1.97249913123e-07
-5.57777430461e-06
-2.18669448668e-07
-5.33794381745e-06
-2.39907431407e-07
-5.07769471982e-06
-2.60303062164e-07
-4.79836422047e-06
-2.79397061179e-07
-4.50167083298e-06
-2.96735496612e-07
-4.18984322172e-06
-3.11884749558e-07
-3.865430282e-06
-3.24443022622e-07
-3.53111653843e-06
-3.34360016543e-07
-3.189823636e-06
-3.41308911308e-07
-2.84469178962e-06
-3.45164166518e-07
-2.49805698887e-06
-3.46633615689e-07
-2.15296129979e-06
-3.45095529332e-07
-1.81208780132e-06
-3.40834373662e-07
-1.47776506911e-06
-3.34302496022e-07
-1.15304868268e-06
-3.24703400479e-07
-8.3937362194e-07
-3.13737283155e-07
-5.43155206152e-07
-2.96319544026e-07
-2.46234029863e-07
-2.97086871551e-07
7.00068990603e-08
-3.16422522626e-07
3.72087159564e-07
-3.02251610107e-07
6.35358626467e-07
-2.63358959355e-07
8.66226071477e-07
-2.30956206527e-07
1.07190404477e-06
-2.05719745818e-07
1.25572761351e-06
-1.8387633022e-07
1.41950111773e-06
-1.63787441216e-07
1.5643783058e-06
-1.44905520436e-07
1.69136228644e-06
-1.26979600811e-07
1.801297481e-06
-1.09945486578e-07
1.89505764878e-06
-9.37406831673e-08
1.97344362292e-06
-7.83783364114e-08
2.03731535484e-06
-6.38346893466e-08
2.08748490875e-06
-5.013653324e-08
2.1248241061e-06
-3.72760763165e-08
2.1501803315e-06
-2.52999323318e-08
2.16452577777e-06
-1.428907007e-08
2.16916310619e-06
-4.61386300362e-09
2.16566310786e-06
3.50233079156e-09
2.15496761261e-06
1.06682358803e-08
2.13765606236e-06
1.72750632751e-08
2.1144654368e-06
2.31371808468e-08
2.08613917135e-06
2.82725381233e-08
2.05334498108e-06
3.27306317551e-08
2.01671920338e-06
3.65668424121e-08
1.97683399764e-06
3.98205940639e-08
1.93424351651e-06
4.25331801401e-08
1.88944480237e-06
4.47379232473e-08
1.84291927446e-06
4.64730104084e-08
1.79509356086e-06
4.77704521398e-08
1.7463800932e-06
4.86662371335e-08
1.6971390919e-06
4.9190974874e-08
1.64771800251e-06
4.93782756304e-08
1.59841482696e-06
4.92573426445e-08
1.54951583046e-06
4.885951453e-08
1.50126058601e-06
4.82127822158e-08
1.45387734258e-06
4.73465264097e-08
1.40755013037e-06
4.62880092497e-08
1.3624511461e-06
4.50652601453e-08
1.3187103842e-06
4.37055072592e-08
1.27644413146e-06
4.22364812809e-08
1.23572751364e-06
4.06866030059e-08
1.19661827971e-06
3.90848126525e-08
1.15913243192e-06
3.74626058183e-08
1.1232620913e-06
3.5852731371e-08
1.08895388636e-06
3.42931795539e-08
1.05611907546e-06
3.28252872145e-08
1.0246133737e-06
3.15000099536e-08
9.94235786912e-07
3.03769303414e-08
9.6470515623e-07
2.95345870538e-08
9.35638819939e-07
2.90741300078e-08
9.06509482371e-07
2.91416838736e-08
8.76581154566e-07
2.99429757513e-08
8.44650803165e-07
3.195197154e-08
8.09650747191e-07
3.50287430709e-08
4.42362024423e-08
7.6545772805e-07
-2.27373225446e-07
1.84577576538e-07
-4.84625453821e-07
2.96623067921e-07
-6.76658025193e-07
3.68884379452e-07
-8.83179501793e-07
4.27785708068e-07
-1.11265406088e-06
4.6996179803e-07
-1.36029412973e-06
5.01660908127e-07
-1.62163965295e-06
5.25981821599e-07
-1.89327548713e-06
5.44625126087e-07
-2.17246886948e-06
5.58618153084e-07
-2.45696199111e-06
5.68623270821e-07
-2.74479309678e-06
5.75091793987e-07
-3.0342327396e-06
5.78350675849e-07
-3.32370229465e-06
5.78654092994e-07
-3.61176589137e-06
5.76214012517e-07
-3.89708846459e-06
5.7121936981e-07
-4.1784474472e-06
5.63847410693e-07
-4.45470688453e-06
5.54271045111e-07
-4.72483529171e-06
5.42662744446e-07
-4.98788633195e-06
5.29197186926e-07
-5.24301744522e-06
5.14052172959e-07
-5.48947348439e-06
4.97409496107e-07
-5.72660472738e-06
4.79454899807e-07
-5.95385251109e-06
4.60378536567e-07
-6.17076564814e-06
4.40374763009e-07
-6.37698793117e-06
4.19642349454e-07
-6.57227336663e-06
3.98383789341e-07
-6.75647479886e-06
3.76804679087e-07
-6.92955619143e-06
3.55111745877e-07
-7.09158023856e-06
3.33510372709e-07
-7.24271645346e-06
3.12200446832e-07
-7.38322529045e-06
2.91371754243e-07
-7.51345931951e-06
2.71197945167e-07
-7.63384169635e-06
2.51830657844e-07
-7.74486045777e-06
2.33393102032e-07
-7.84704159524e-06
2.15975100346e-07
-7.9409380247e-06
1.99628785728e-07
-8.02710015254e-06
1.84366878266e-07
-8.10606413554e-06
1.70162616445e-07
-8.17832505429e-06
1.5695295626e-07
-8.24432972016e-06
1.44643252432e-07
-8.3044571626e-06
1.33114802128e-07
-8.35901997334e-06
1.22233111159e-07
-8.40825608899e-06
1.1185889893e-07
-8.45234104371e-06
1.01857486926e-07
-8.49138901365e-06
9.21081956193e-08
-8.52547132332e-06
8.25096421462e-08
-8.55462669923e-06
7.29898925936e-08
-8.5788895038e-06
6.35112256619e-08
-8.59829580683e-06
5.40664879661e-08
-8.61290328852e-06
4.46742087307e-08
-8.62278346051e-06
3.53652090413e-08
-8.62805759326e-06
2.62017935638e-08
-8.62889286048e-06
1.72572247387e-08
-8.62547129754e-06
8.56790153468e-09
-8.61795873815e-06
1.37352738444e-10
-8.60668948068e-06
-7.87187646239e-09
-8.59212104214e-06
-1.5295051482e-08
-8.57456779215e-06
-2.22070580129e-08
-8.55419825977e-06
-2.87175960745e-08
-8.53111293199e-06
-3.49028761593e-08
-8.50536319739e-06
-4.08249381718e-08
-8.47697446572e-06
-4.65384709983e-08
-8.44595138869e-06
-5.20854080329e-08
-8.41230153287e-06
-5.74909348265e-08
-8.3760386765e-06
-6.27597049418e-08
-8.33720423582e-06
-6.78776005673e-08
-8.29586682342e-06
-7.28107168359e-08
-8.25213702592e-06
-7.75119211918e-08
-8.20615799646e-06
-8.19247605597e-08
-8.15811171467e-06
-8.5993396888e-08
-8.10820041729e-06
-8.96682350309e-08
-8.0566452537e-06
-9.29161889492e-08
-8.00366165622e-06
-9.5723897e-08
-7.94945651121e-06
-9.81041392933e-08
-7.89420461888e-06
-1.00092784694e-07
-7.83805061422e-06
-1.01748604489e-07
-7.78109293572e-06
-1.03143404611e-07
-7.72339731333e-06
-1.04356725335e-07
-7.66499250822e-06
-1.05462072484e-07
-7.60589309202e-06
-1.06520510077e-07
-7.54610106187e-06
-1.0756881508e-07
-7.48563409169e-06
-1.08619063987e-07
-7.42452624419e-06
-1.09654507762e-07
-7.36284935254e-06
-1.10639249334e-07
-7.30069986427e-06
-1.11524344195e-07
-7.23820501822e-06
-1.12267450714e-07
-7.17549289098e-06
-1.12845520813e-07
-7.1126770357e-06
-1.13276557072e-07
-7.04981387605e-06
-1.13632007155e-07
-6.98688194472e-06
-1.14054111565e-07