/*--------------------------------*- C++ -*----------------------------------*\
| =========                 |                                                 |
| \\      /  F ield         | OpenFOAM: The Open Source CFD Toolbox           |
|  \\    /   O peration     | Version:  v1806                                 |
|   \\  /    A nd           | Web:      www.OpenFOAM.com                      |
|    \\/     M anipulation  |                                                 |
\*---------------------------------------------------------------------------*/
FoamFile
{
    version     2.0;
    format      ascii;
    class       surfaceScalarField;
    location    "26";
    object      phia;
}
// * * * * * * * * * * * * * * * * * * * * * * * * * * * * * * * * * * * * * //

dimensions      [0 3 -1 0 0 0 0];
oriented        oriented;


internalField   nonuniform List<scalar> 
24170
(
1.9829467489e-07
1.30742421406e-07
2.99932821597e-07
-9.26022860278e-08
2.87379795267e-07
1.88045235682e-08
3.00697717807e-07
-1.06270013772e-08
3.09484238862e-07
-5.92511164134e-09
3.19915415289e-07
-9.10271408575e-09
3.31551095189e-07
-1.01108753312e-08
3.44631051131e-07
-1.25720482581e-08
3.59885918029e-07
-1.47818065798e-08
3.77065930003e-07
-1.71522623834e-08
3.96389420206e-07
-1.93717557957e-08
4.19104247009e-07
-2.29778123705e-08
4.50246943481e-07
-3.15005208742e-08
4.97423335545e-07
-4.76555169835e-08
5.59321255581e-07
-6.23525866503e-08
6.11059126378e-07
-5.19799408777e-08
6.75590723097e-07
-6.41896717327e-08
-5.72855133035e-07
1.24882231122e-06
8.46052543635e-07
-3.55909691234e-07
3.99121919615e-07
3.66859674264e-07
4.9639558421e-07
-7.05367050763e-08
4.94821045549e-07
-4.77086188962e-09
5.12746899075e-07
-2.0223143113e-08
5.25925119838e-07
-2.02083275535e-08
5.42508241578e-07
-2.49645258216e-08
5.60243057174e-07
-2.96218936964e-08
5.80380176425e-07
-3.45123379707e-08
6.02522320099e-07
-3.92923712815e-08
6.26955548804e-07
-4.38942039428e-08
6.55010964276e-07
-5.12766831383e-08
6.89868575399e-07
-6.66594040472e-08
7.32557184415e-07
-9.0708895574e-08
7.74850347033e-07
-1.04930143928e-07
8.11248435267e-07
-8.84163631755e-08
9.04643706062e-07
-1.57170010788e-07
-6.92555938345e-07
1.02443100074e-06
-1.51848503e-07
1.66366878096e-07
4.83231984405e-07
-2.63977664453e-07
3.85200987202e-07
3.10344603666e-08
3.98095210231e-07
-1.62397706759e-08
3.97421589502e-07
-1.81140476159e-08
4.0195596456e-07
-2.42244345151e-08
4.06284022206e-07
-2.86904749449e-08
4.1197436546e-07
-3.52180625201e-08
4.1925993725e-07
-4.17171106041e-08
4.28356858491e-07
-4.85226276213e-08
4.40206789789e-07
-5.59208250895e-08
4.56828180194e-07
-6.817749829e-08
4.80717916151e-07
-9.08664005117e-08
5.10819943764e-07
-1.21178437447e-07
5.43287196735e-07
-1.37745284375e-07
5.9613542406e-07
-1.41530407459e-07
7.13022409451e-07
-2.74141920812e-07
-7.11682299116e-07
7.31412905628e-07
9.28351338865e-07
-3.567861367e-07
3.79866118397e-07
2.93808799929e-07
4.73052045712e-07
-5.58430436456e-08
4.71704137134e-07
-1.13308633884e-08
4.82626431571e-07
-2.64097700806e-08
4.88794452128e-07
-2.89318988049e-08
4.9716036195e-07
-3.60291620886e-08
5.05225824769e-07
-4.2898235158e-08
5.13965296638e-07
-5.02971446714e-08
5.23075502295e-07
-5.76954130338e-08
5.33470539191e-07
-6.64435085395e-08
5.46379489441e-07
-8.12786517476e-08
5.61827734804e-07
-1.06511914547e-07
5.76215301181e-07
-1.35760228434e-07
5.90402625634e-07
-1.52075880419e-07
6.28066494217e-07
-1.7921388773e-07
6.9067548655e-07
-3.36747718821e-07
-6.53096734326e-07
6.32028360809e-07
-1.03121511293e-08
7.42075338028e-08
5.24156519287e-07
-2.39257272734e-07
4.35122807369e-07
3.48766560602e-08
4.576728531e-07
-3.31128264696e-08
4.59261478256e-07
-2.72794140069e-08
4.6890191734e-07
-3.83489059012e-08
4.77385965075e-07
-4.42657197023e-08
4.87595506089e-07
-5.31110099635e-08
4.98899433424e-07
-6.16128652233e-08
5.11855202894e-07
-7.07899422943e-08
5.27460050832e-07
-8.22132404248e-08
5.4648737824e-07
-1.00536810412e-07
5.67338591107e-07
-1.27598871843e-07
5.86461607756e-07
-1.55150108852e-07
6.08659678137e-07
-1.74534948265e-07
6.49381104822e-07
-2.20206939125e-07
6.8009658062e-07
-3.67673101373e-07
-5.79417395904e-07
6.05588077733e-07
8.31865764477e-07
-2.99632879151e-07
4.15706501898e-07
1.82674059352e-07
5.0710241879e-07
-5.21876694592e-08
5.02403822476e-07
-2.56248123384e-08
5.12867114383e-07
-3.58047301347e-08
5.18010390266e-07
-4.23084613101e-08
5.25379160718e-07
-5.08516031325e-08
5.32731598503e-07
-6.00176369111e-08
5.40939496467e-07
-6.95725262621e-08
5.50363053445e-07
-8.0077661568e-08
5.62124562481e-07
-9.39332115004e-08
5.76457311057e-07
-1.1484834044e-07
5.91394623614e-07
-1.42541802113e-07
6.05700745223e-07
-1.69452126313e-07
6.26429361741e-07
-1.95289140257e-07
6.58633694492e-07
-2.52428209017e-07
6.66656969228e-07
-3.75915527597e-07
-5.13668249656e-07
6.00959827641e-07
1.91375704643e-07
-9.87811565333e-09
5.52090275629e-07
-1.78761604907e-07
5.18201287568e-07
-1.8050308084e-08
5.26334866859e-07
-3.34674733431e-08
5.33262497328e-07
-4.24069199577e-08
5.41619776027e-07
-5.04815516855e-08
5.50249194938e-07
-5.93262613323e-08
5.5940582145e-07
-6.90824589778e-08
5.6919708238e-07
-7.93258253785e-08
5.80106466659e-07
-9.09878568066e-08
5.92668338489e-07
-1.0655655245e-07
6.06211794586e-07
-1.28460070528e-07
6.18688349914e-07
-1.55096667391e-07
6.30587653889e-07
-1.81445356134e-07
6.47759229241e-07
-2.12600609427e-07
6.67221721429e-07
-2.7210860274e-07
6.59984524177e-07
-3.68755067979e-07
-4.60091449359e-07
6.05535713253e-07
7.48946152145e-07
-2.38812743482e-07
5.27116262547e-07
4.52324738718e-08
5.51659915399e-07
-4.02656441374e-08
5.62050353629e-07
-4.19819973383e-08
5.68641749641e-07
-4.75398927621e-08
5.7595852281e-07
-5.67889416665e-08
5.83621890939e-07
-6.62147862312e-08
5.91838532928e-07
-7.67646132227e-08
6.00868424031e-07
-8.79158738793e-08
6.11166751002e-07
-1.00996633701e-07
6.22856355099e-07
-1.17984766335e-07
6.34751585899e-07
-1.40167413847e-07
6.45270398431e-07
-1.65441281354e-07
6.55577498774e-07
-1.91644592315e-07
6.68468929012e-07
-2.25439648799e-07
6.76848169255e-07
-2.80520934858e-07
6.61139947544e-07
-3.53572914808e-07
-4.14813805874e-07
6.15950264528e-07
4.72757753105e-07
-1.5994173296e-07
5.8766743383e-07
-7.14956290606e-08
5.90999039826e-07
-4.42682935504e-08
5.96218908445e-07
-4.72843460246e-08
6.03977953817e-07
-5.51403827398e-08
6.1120137646e-07
-6.38022447146e-08
6.18803816812e-07
-7.35905864759e-08
6.26660206043e-07
-8.44156421983e-08
6.35160771751e-07
-9.62487719159e-08
6.44622151736e-07
-1.10325139585e-07
6.5481317042e-07
-1.28102458507e-07
6.64530235542e-07
-1.49787028073e-07
6.72860705245e-07
-1.73696618331e-07
6.80920866428e-07
-1.99649004634e-07
6.88736011746e-07
-2.33294853394e-07
6.88576075256e-07
-2.8063066824e-07
6.69366112447e-07
-3.34219700607e-07
-3.76933753103e-07
6.30761507879e-07
6.49325673678e-07
-2.14983854884e-07
6.17985391006e-07
-3.99901742067e-08
6.26829495367e-07
-5.21031599872e-08
6.34291614511e-07
-5.34721480229e-08
6.41288513876e-07
-6.09241945094e-08
6.48421595574e-07
-6.98829692944e-08
6.55655681521e-07
-7.99626540374e-08
6.63118176921e-07
-9.1133971329e-08
6.71042203496e-07
-1.03579774526e-07
6.79529717266e-07
-1.18323102402e-07
6.88100822191e-07
-1.36192407513e-07
6.95664342943e-07
-1.56928064474e-07
7.01778306051e-07
-1.79493812999e-07
7.07002261127e-07
-2.04566417489e-07
7.09669338001e-07
-2.3584549715e-07
7.03594249212e-07
-2.74476242406e-07
6.82801342011e-07
-3.13873131993e-07
-3.43081389056e-07
6.49498241006e-07
6.53125323991e-07
-2.34061930769e-07
6.63022866025e-07
-5.20929042362e-08
6.68196961082e-07
-5.81845397996e-08
6.74717442218e-07
-6.00947481144e-08
6.81372538748e-07
-6.72622683991e-08
6.88046237457e-07
-7.60908855149e-08
6.94772883075e-07
-8.61491872305e-08
7.01609655302e-07
-9.74725604241e-08
7.08717953938e-07
-1.10212640714e-07
7.15973754732e-07
-1.25149814909e-07
7.22786406897e-07
-1.42593258141e-07
7.2823755295e-07
-1.6203294082e-07
7.32096426052e-07
-1.82914386002e-07
7.34190880084e-07
-2.06370436599e-07
7.32340341328e-07
-2.33719263398e-07
7.22088003909e-07
-2.64351660577e-07
7.0127360715e-07
-2.92550548643e-07
-3.13335682068e-07
6.71577580956e-07
5.9159105319e-07
-2.5352292223e-07
5.935546412e-07
-5.5325360543e-08
5.97577933731e-07
-6.25113007238e-08
6.02592167255e-07
-6.47791146379e-08
6.07755034927e-07
-7.17650616387e-08
6.12939194239e-07
-8.05530760446e-08
6.1811061458e-07
-9.05659250358e-08
6.23275772676e-07
-1.01989105547e-07
6.28476625135e-07
-1.14839594665e-07
6.3349861034e-07
-1.29725272746e-07
6.37879324996e-07
-1.46427541197e-07
6.40958363483e-07
-1.64679040232e-07
6.42387851431e-07
-1.8438374991e-07
6.41907116394e-07
-2.05614090287e-07
6.37494579527e-07
-2.29626740873e-07
6.27081949437e-07
-2.539366961e-07
6.09597424674e-07
-2.75767576356e-07
-2.90058816077e-07
5.87109326759e-07
7.18334844629e-07
-2.74795631553e-07
7.20627071881e-07
-5.91953725241e-08
7.2432318883e-07
-6.68289196459e-08
7.29376048337e-07
-6.97974863639e-08
7.34631965268e-07
-7.66235335674e-08
7.39928812617e-07
-8.51859063457e-08
7.45121837848e-07
-9.50839331383e-08
7.50187002733e-07
-1.06325215578e-07
7.5502263229e-07
-1.19080738967e-07
7.59427497898e-07
-1.33332341112e-07
7.62789490916e-07
-1.49252958719e-07
7.64422678366e-07
-1.66087119162e-07
7.64151973403e-07
-1.83839869471e-07
7.60880571338e-07
-2.02812768411e-07
7.53510518228e-07
-2.22337109692e-07
7.39763852755e-07
-2.41388296738e-07
7.20886753061e-07
-2.56226724749e-07
-2.66775777674e-07
6.9671759292e-07
8.71287318007e-07
-2.94446979434e-07
8.74113838016e-07
-6.30525193294e-08
8.77305207315e-07
-7.09152835665e-08
8.82002331389e-07
-7.48127363656e-08
8.86977765619e-07
-8.14892512712e-08
8.91917087335e-07
-8.99127843485e-08
8.96702895203e-07
-9.93427683738e-08
9.01059661212e-07
-1.10359531824e-07
9.04997503413e-07
-1.22345661928e-07
9.07931599201e-07
-1.36054908515e-07
9.09681540965e-07
-1.50125277183e-07
9.09208320711e-07
-1.65499966588e-07
9.06252218308e-07
-1.80771141007e-07
8.99942026682e-07
-1.96730014276e-07
8.88822265708e-07
-2.11905262312e-07
8.72855359386e-07
-2.25522263022e-07
8.51166671347e-07
-2.35827687834e-07
-2.41695252055e-07
8.27343006281e-07
1.0585486088e-06
-3.14289087055e-07
1.058541229e-06
-6.4445398464e-08
1.0610855127e-06
-7.41716758675e-08
1.0649995167e-06
-7.92290283583e-08
1.06900230409e-06
-8.58331206602e-08
1.07301827437e-06
-9.38011162139e-08
1.07646033321e-06
-1.02956493734e-07
1.07948437458e-06
-1.13013561803e-07
1.08119519407e-06
-1.24451493116e-07
1.08234721654e-06
-1.36079707368e-07
1.08093883675e-06
-1.49049570848e-07
1.0779996237e-06
-1.61399883643e-07
1.07122352193e-06
-1.74591130166e-07
1.06169392495e-06
-1.86421354287e-07
1.04685326755e-06
-1.98055667931e-07
1.02832121596e-06
-2.06692831893e-07
1.00532952312e-06
-2.13482886705e-07
-2.16049139393e-07
9.79367931292e-07
1.26307141556e-06
-3.11240910289e-07
1.28118476419e-06
-8.3461095317e-08
1.28316034064e-06
-7.71803142174e-08
1.28532555306e-06
-8.20399964854e-08
1.28785174012e-06
-8.85621769015e-08
1.2898050016e-06
-9.6066284089e-08
1.29131072471e-06
-1.04297046637e-07
1.29138257617e-06
-1.13562763469e-07
1.29086115511e-06
-1.23217129813e-07
1.28786053589e-06
-1.33586905748e-07
1.28397845067e-06
-1.43667552557e-07
1.27608882093e-06
-1.54077649414e-07
1.26673637982e-06
-1.63510550332e-07
1.25192563609e-06
-1.7265282197e-07
1.23551221759e-06
-1.79778185913e-07
1.2126671051e-06
-1.85710791994e-07
1.19008954139e-06
-1.8858689973e-07
-1.90343313092e-07
1.16161971082e-06
1.62463880478e-06
-3.91537677484e-07
1.55117162794e-06
-1.12979270729e-08
1.54617459042e-06
-7.28175592645e-08
1.54763272197e-06
-8.37489794017e-08
1.54750669161e-06
-8.83847683586e-08
1.54623053544e-06
-9.4583197432e-08
1.54390318792e-06
-1.01740656736e-07
1.54028999254e-06
-1.09691487864e-07
1.53509778647e-06
-1.17832521002e-07
1.52828721609e-06
-1.26083681889e-07
1.51905288247e-06
-1.34035557634e-07
1.50755748089e-06
-1.41646637141e-07
1.49271317548e-06
-1.48433865787e-07
1.47545803888e-06
-1.5431661657e-07
1.45432242521e-06
-1.58809814411e-07
1.4316767971e-06
-1.61920118676e-07
1.40540030206e-06
-1.6327527795e-07
-1.62833556593e-07
1.37971446169e-06
1.56701046931e-06
-7.65908685344e-08
1.82681018008e-06
-2.71903846353e-07
1.86400293612e-06
-1.10334568614e-07
1.86226808178e-06
-8.15039572744e-08
1.85554985076e-06
-8.11114427421e-08
1.84835964956e-06
-8.64927987177e-08
1.84033384427e-06
-9.30779882988e-08
1.83140042865e-06
-9.9788994366e-08
1.82040567587e-06
-1.06380083491e-07
1.80811609792e-06
-1.12631341917e-07
1.7927503248e-06
-1.18401725539e-07
1.77599688612e-06
-1.23553941187e-07
1.75537269256e-06
-1.27866829747e-07
1.7337832435e-06
-1.3124466445e-07
1.707745842e-06
-1.33432076904e-07
1.68184406011e-06
-1.34362899045e-07
1.65059199251e-06
-1.33977259462e-07
-1.32912187637e-07
1.62280966732e-06
3.13989047879e-06
-9.21376888506e-07
2.47196658121e-06
3.9462356682e-07
2.32807781121e-06
3.45656756858e-08
2.28848314624e-06
-4.1877856812e-08
2.27130440493e-06
-6.24630930997e-08
2.25822318536e-06
-7.26777915129e-08
2.24570618227e-06
-7.91341763148e-08
2.23242549989e-06
-8.54486479545e-08
2.21718312868e-06
-9.01868660936e-08
2.2010268358e-06
-9.5193007429e-08
2.18182367314e-06
-9.88005743905e-08
2.16239205759e-06
-1.02435502809e-07
2.13905288008e-06
-1.04681556274e-07
2.11651657306e-06
-1.06726738862e-07
2.08963035228e-06
-1.07425529961e-07
2.06566316844e-06
-1.07932633561e-07
2.03676527415e-06
-1.07309154131e-07
-1.05486986304e-07
2.01260437916e-06
3.71607797265e-07
3.8414884862e-07
1.42157878641e-06
-6.55653328097e-07
1.54982711356e-06
-9.65572274915e-08
1.56092556728e-06
-5.09357901052e-08
1.55073879162e-06
-5.3823431967e-08
1.5424158639e-06
-6.08720100804e-08
1.52894652564e-06
-6.74860934964e-08
1.51841863539e-06
-7.1118245332e-08
1.50190605726e-06
-7.612172643e-08
1.48908634153e-06
-7.86564893005e-08
1.4700168844e-06
-8.24340260081e-08
1.45521994727e-06
-8.39063086093e-08
1.43380821436e-06
-8.64772864616e-08
1.41768494652e-06
-8.67522607195e-08
1.39473756053e-06
-8.8001821992e-08
1.3775717098e-06
-8.68179093496e-08
1.35229987115e-06
-8.65631277968e-08
-8.58046704852e-08
1.3362458824e-06
3.01048899452e-06
-1.16286867432e-06
1.53259766478e-06
8.20733348141e-07
1.45020841503e-06
-1.21175132772e-08
1.4476721613e-06
-4.93233574247e-08
1.45111203481e-06
-5.52689594269e-08
1.44439702513e-06
-5.50802380967e-08
1.43753008804e-06
-5.74871667978e-08
1.42604431487e-06
-6.10525812779e-08
1.41604750754e-06
-6.34127851224e-08
1.40240223233e-06
-6.63517265515e-08
1.39056260818e-06
-6.81582414783e-08
1.3750541073e-06
-7.00470926833e-08
1.36197970443e-06
-7.08427604196e-08
1.3448324461e-06
-7.15370564203e-08
1.33087183569e-06
-7.12479587847e-08
1.31276857154e-06
-7.13961101623e-08
1.30006405803e-06
-7.08778903125e-08
-6.82609170214e-08
1.27863036342e-06
-8.98927447029e-07
1.01005991326e-06
1.14796558107e-06
-1.22443365609e-06
1.17246725786e-06
-3.73003088036e-08
1.16272141918e-06
-3.81656712701e-08
1.14477486481e-06
-3.67287637358e-08
1.13757323077e-06
-4.56371509043e-08
1.12774894715e-06
-4.74424055828e-08
1.11783618501e-06
-4.98314682441e-08
1.10692935418e-06
-5.19828021862e-08
1.09548557323e-06
-5.42265603678e-08
1.08401691106e-06
-5.56331101367e-08
1.07155081025e-06
-5.73195711145e-08
1.05972378838e-06
-5.76217188453e-08
1.04672996908e-06
-5.85371381428e-08
1.03440748848e-06
-5.77672329322e-08
1.0201664798e-06
-5.73793725936e-08
1.00417376981e-06
-5.48651857618e-08
-5.67825687235e-08
9.93395358916e-07
3.70259852402e-06
-1.57936367934e-06
1.05149704443e-06
1.42915417865e-06
1.11197833403e-06
-9.44618232707e-08
1.1167743662e-06
-4.15690251735e-08
1.12949254623e-06
-4.78545041682e-08
1.12201431339e-06
-3.73637873076e-08
1.11574499921e-06
-4.01352584206e-08
1.1075473542e-06
-4.08053121207e-08
1.09840846887e-06
-4.24348275966e-08
1.08922933856e-06
-4.3573368692e-08
1.07852310812e-06
-4.49931792988e-08
1.06904208652e-06
-4.55089017517e-08
1.05736013487e-06
-4.6562960043e-08
1.04796929853e-06
-4.60580350559e-08
1.03527472297e-06
-4.67658555655e-08
1.02705869684e-06
-4.6606171798e-08
1.01816670438e-06
-4.83721613945e-08
-4.31066870509e-08
1.00700259472e-06
-1.92152491167e-06
1.31179626783e-06
1.08969565641e-06
-1.57833087641e-06
8.8618413183e-07
1.10672655538e-07
8.89094755165e-07
-4.20911791411e-08
8.60666078395e-07
-1.77945606127e-08
8.58075514348e-07
-3.31562504429e-08
8.48476620543e-07
-2.9764584371e-08
8.39760853448e-07
-3.14863094298e-08
8.29882530426e-07
-3.2000021028e-08
8.19694747636e-07
-3.29085142302e-08
8.09172020468e-07
-3.36291648418e-08
7.98348766691e-07
-3.41130645849e-08
7.88035785913e-07
-3.43313973166e-08
7.77009794175e-07
-3.48241249535e-08
7.66341249258e-07
-3.49175134744e-08
7.54087394414e-07
-3.43813084945e-08
7.38300978731e-07
-3.23878226768e-08
-3.72232939954e-08
7.32735842559e-07
3.4392556737e-06
-1.28047664538e-06
5.17212807748e-07
1.34842586076e-06
8.96025853263e-07
-2.64373399922e-07
8.55459337931e-07
1.4771751946e-09
8.82048746529e-07
-4.29175263158e-08
8.68766552349e-07
-1.90335730249e-08
8.65453662589e-07
-2.55531537185e-08
8.58656391118e-07
-2.42086571192e-08
8.52694593833e-07
-2.56994644797e-08
8.46608131472e-07
-2.65584321489e-08
8.40874472653e-07
-2.72112576072e-08
8.35113163699e-07
-2.75532849579e-08
8.29561345209e-07
-2.79990039781e-08
8.23769608401e-07
-2.82748665969e-08
8.17645249837e-07
-2.83245928373e-08
8.12179305334e-07
-2.90671538975e-08
8.12989842941e-07
-3.14375828383e-08
-2.3698283091e-08
7.98864091567e-07
-1.49520989008e-06
9.52706010415e-07
1.0562040679e-06
-1.1982855417e-06
6.25572205751e-07
1.69600575625e-07
6.88412338647e-07
-5.87855970577e-08
6.49750932246e-07
-1.78531005438e-09
6.53746864822e-07
-2.1698292044e-08
6.43569707136e-07
-1.46908346963e-08
6.36826536812e-07
-1.70978136256e-08
6.28154175867e-07
-1.68929189082e-08
6.19748529159e-07
-1.76305748116e-08
6.10925148984e-07
-1.81415393751e-08
6.01429010247e-07
-1.73593441995e-08
5.91638906683e-07
-1.75117273955e-08
5.81480194465e-07
-1.77059936316e-08
5.71067602184e-07
-1.7724482004e-08
5.59101673984e-07
-1.69744958573e-08
5.41882336779e-07
-1.34453251951e-08
-2.23570590458e-08
5.42119106605e-07
2.43574702937e-06
-8.40038762411e-07
3.83730854088e-07
8.58311861792e-07
7.28345750778e-07
-1.71986701002e-07
6.72101616257e-07
4.09298983766e-09
6.91011792812e-07
-2.16116182326e-08
6.77851792815e-07
-7.67067367378e-09
6.75592724102e-07
-1.17306312051e-08
6.6963606798e-07
-1.08207741629e-08
6.64787199697e-07
-1.18496188834e-08
6.59881334771e-07
-1.2708117947e-08
6.5598533113e-07
-1.24488577599e-08
6.51020949179e-07
-1.28310332977e-08
6.46754581999e-07
-1.29226833712e-08
6.42785183465e-07
-1.34296026739e-08
6.38895944391e-07
-1.38620899208e-08
6.36944744463e-07
-1.49684852359e-08
6.43567567472e-07
-1.9682950131e-08
-9.01861479331e-09
6.32455264696e-07
-8.33411578774e-07
5.54487848753e-07
7.67526234682e-07
-7.37947523584e-07
4.75589656971e-07
1.24864903137e-07
5.16776876654e-07
-3.11682180325e-08
4.93478767247e-07
2.54893686428e-09
4.93972186419e-07
-7.64711729801e-09
4.87364492688e-07
-4.4112158561e-09
4.82486910261e-07
-5.64602135595e-09
4.7656387994e-07
-5.95305504138e-09
4.71403921071e-07
-6.28469009552e-09
4.6619385588e-07
-6.41434643934e-09
4.60198701105e-07
-6.72897069706e-09
4.54279632732e-07
-7.07043011987e-09
4.48529576588e-07
-7.51041998587e-09
4.42564748923e-07
-8.00766784264e-09
4.34978832654e-07
-7.68382927484e-09
4.18426086294e-07
-1.72138567824e-09
-1.45616734078e-08
4.24760341771e-07
1.31217489757e-06
-2.67656060739e-07
4.3761704873e-07
1.42132308006e-07
6.02308089256e-07
-3.41195162097e-08
5.70128096968e-07
7.74496225853e-09
5.77430144616e-07
-3.45246057929e-09
5.7078307863e-07
-3.263891652e-10
5.68643967924e-07
-1.51913419582e-09
5.64788323895e-07
-1.47416715136e-09
5.61129044424e-07
-1.95792348628e-09
5.57766710333e-07
-1.74142769877e-09
5.5430476267e-07
-1.80857767189e-09
5.49978680136e-07
-2.37464484675e-09
5.45403237618e-07
-2.5443826703e-09
5.40450821071e-07
-2.46793914567e-09
5.344473211e-07
-2.21920530205e-09
5.29448021256e-07
-2.53111250862e-09
5.35658971659e-07
-7.26003456834e-09
1.15222964565e-08
5.11071898536e-07
1.53031921129e-07
2.95607532371e-07
2.62140621477e-07
2.70019102611e-07
2.66633353748e-07
2.66397089807e-07
2.64922660382e-07
2.6347461276e-07
2.61674295771e-07
2.6013802968e-07
2.58343543589e-07
2.55948401943e-07
2.53428547671e-07
2.50932131401e-07
2.4868692896e-07
2.46307851678e-07
2.3940964863e-07
2.50812161794e-07
1.82994795365e-07
-2.08646844621e-07
2.01586648551e-07
-2.38254007477e-08
1.15482950156e-07
6.53837395658e-08
5.81902101224e-08
6.08085570832e-08
9.79126065155e-10
4.38641799396e-08
-2.58147623635e-08
3.087940999e-08
-6.05239054046e-08
2.2213312245e-08
-7.35545979449e-08
1.74425954979e-08
-9.88053360533e-08
1.43736707269e-08
-1.06854931608e-07
1.31528027632e-08
-1.28709633343e-07
1.22012504567e-08
-1.35226289539e-07
1.22035382283e-08
-1.55927753599e-07
1.18118112717e-08
-1.62138155797e-07
1.20341809949e-08
-1.82581376095e-07
1.16052533528e-08
-1.88768577115e-07
1.17339406284e-08
-2.09564928645e-07
1.11363782941e-08
-2.15571128739e-07
1.12385452437e-08
-2.3522429532e-07
1.05605226656e-08
-2.40494074411e-07
1.05530087625e-08
-2.59292410195e-07
9.8073925083e-09
-2.63573708668e-07
9.8787455386e-09
-2.80316384705e-07
9.06699788923e-09
-2.83389206825e-07
9.02626726626e-09
-2.98292947251e-07
8.16175033758e-09
-3.00752667697e-07
7.98804132188e-09
-3.14969184232e-07
6.85272842991e-09
-3.16748615754e-07
6.57156455998e-09
-3.29250478259e-07
5.44945473056e-09
-3.30225339796e-07
5.12676857545e-09
-3.4208726094e-07
3.8354414178e-09
-3.42345954285e-07
3.56511818107e-09
-3.52529502389e-07
2.44896004672e-09
-3.52154800167e-07
2.23689934781e-09
-3.62390379656e-07
1.09130928903e-09
-3.61664357747e-07
1.14246026335e-09
-3.70958586895e-07
2.58485876089e-10
-3.69673128776e-07
5.32091872506e-10
-3.78078558043e-07
-1.68134745473e-10
-3.76319969588e-07
3.00441974358e-10
-3.8412389315e-07
-2.85187018057e-10
-3.8228919736e-07
2.89917071889e-10
-3.90169932423e-07
-2.58439072989e-10
-3.88737777427e-07
3.84863264224e-10
-3.97698489738e-07
-1.69304840255e-10
-3.97059479602e-07
6.26144105566e-10
-4.06790932715e-07
8.56588086967e-11
-4.06783236919e-07
9.04023775863e-10
-4.17647270422e-07
3.89745485475e-10
-4.17946507411e-07
1.43806419698e-09
-4.29137735108e-07
7.67073391136e-10
-4.29246730268e-07
1.82472862875e-09
-4.40132740672e-07
1.15720613075e-09
-4.40921414823e-07
1.96215710191e-09
-4.53499471715e-07
6.352426029e-10
-4.54091359536e-07
1.10740179392e-09
-4.65340982023e-07
-3.98145193495e-10
-4.64990265735e-07
-1.22789529613e-10
-4.75938236108e-07
-2.24205422127e-09
-4.73791453896e-07
-1.92580891686e-09
-4.81734000599e-07
-3.84294041755e-09
-4.77922137523e-07
-3.60183278974e-09
-4.85681385647e-07
-5.7335600308e-09
-4.80907563208e-07
-5.07983603152e-09
-4.8751393173e-07
-6.76867546248e-09
-4.8171341544e-07
-5.58074715917e-09
-4.87701055523e-07
-6.88340349887e-09
-4.81842110511e-07
-5.28790091724e-09
-4.89123516902e-07
-6.44944876176e-09
-4.84966371606e-07
-4.60402454506e-09
-4.94846104659e-07
-5.80109692749e-09
-4.92508747106e-07
-3.82430882608e-09
-5.05116918987e-07
-5.2115854646e-09
-5.03854430862e-07
-2.8340414373e-09
-5.16742384141e-07
-4.33157341325e-09
-5.14265355564e-07
-1.94483225858e-09
-5.25502598877e-07
-3.4129837296e-09
-5.23763436177e-07
-1.65246823262e-09
-5.38818756269e-07
-4.59238582524e-09
-5.38245969791e-07
-2.93631516162e-09
-5.53330959669e-07
-5.68316259985e-09
-5.5405888681e-07
-4.34601237765e-09
-5.72316241867e-07
-8.05252946258e-09
-5.71633796485e-07
-5.94486930499e-09
-5.85271652677e-07
-8.6205037381e-09
-5.82304821662e-07
-6.24855858227e-09
-5.96882874524e-07
-9.0456506666e-09
-6.11511182988e-07
-5.64284479063e-09
-6.63263468068e-07
-4.91494183771e-09
-7.40935769488e-07
-3.60311049531e-09
-8.11031487723e-07
-2.54897732185e-09
-8.64290774884e-07
5.34485872825e-10
-9.12991449633e-07
4.15442391491e-09
-9.67051134121e-07
9.46731596428e-09
-1.03038502885e-06
1.48197999372e-08
-1.10597121459e-06
2.11707875122e-08
-1.19214653725e-06
2.69727552216e-08
-1.28906687754e-06
3.34857080232e-08
-1.39302942414e-06
3.86276758976e-08
-1.50088601597e-06
4.51580394127e-08
-1.60559792559e-06
4.90497126407e-08
-1.68438229918e-06
6.18569371023e-08
-1.7549772946e-06
7.10019270003e-08
-1.7966925879e-06
9.7235702657e-08
-1.8709885123e-06
1.09093444352e-07
-1.94465187155e-06
1.37138973264e-07
-2.08204570187e-06
1.39717045937e-07
-2.21834796999e-06
1.59177505333e-07
-2.41776668347e-06
1.48297095193e-07
-2.60296771648e-06
1.63202068624e-07
-2.86037751237e-06
1.49924861043e-07
-3.10762195037e-06
1.74441067742e-07
-3.4581538067e-06
1.67620292287e-07
-3.82108366041e-06
2.10809100852e-07
-4.34123576106e-06
2.19938722955e-07
-4.92532261254e-06
2.98562774046e-07
-5.75615394611e-06
3.41090117918e-07
-6.80103743937e-06
4.58174081689e-07
-8.23669925447e-06
5.60195154455e-07
-9.97193819377e-06
8.03632137642e-07
-1.22308006933e-05
1.15375286026e-06
-1.55524099478e-05
2.22447093166e-06
-2.14048558538e-05
4.48528896941e-06
-2.90985998523e-05
6.11230994264e-06
-3.33416922151e-05
2.39983911296e-06
-3.15505597812e-05
-3.01985409114e-06
-2.88562219178e-05
-3.73565964011e-06
-2.67901134477e-05
-2.76376698e-06
-2.55329560941e-05
-2.08484878829e-06
-2.461857991e-05
-1.51736178294e-06
-2.42422000737e-05
-1.21295992582e-06
-2.4031110465e-05
-8.68430740298e-07
-2.43121116839e-05
-7.12696201148e-07
-2.47616114166e-05
-4.53275550152e-07
-2.57953860942e-05
-3.69019962085e-07
-2.7111885697e-05
-1.63860231966e-07
-2.91488614626e-05
-1.326067252e-07
-3.16554072537e-05
-7.44638335641e-09
-3.4917089943e-05
-5.85996555956e-08
-3.8519903964e-05
-6.83828983525e-08
-4.23416423148e-05
-1.62064411685e-07
-4.60448961734e-05
-2.21022484936e-07
-4.96295214317e-05
-2.56628157924e-07
-5.31671211544e-05
-1.89795890476e-07
-5.6752665978e-05
-8.33417950152e-08
-6.03649343207e-05
-1.2309032776e-08
-6.39784663811e-05
7.04405545849e-08
-6.76006057292e-05
1.23570447302e-07
-7.1127972709e-05
2.3394222939e-07
-7.45867554086e-05
2.80226450977e-07
-7.77254936291e-05
4.30800091574e-07
-8.06031671657e-05
4.53125154328e-07
-8.27269794617e-05
6.4438110269e-07
-8.4218821484e-05
6.06232763654e-07
-8.42078685078e-05
8.22190041817e-07
-8.29184553847e-05
6.58853096767e-07
-7.89216216014e-05
8.58890843625e-07
-7.26196963117e-05
4.69090970943e-07
-6.18258362543e-05
5.82704314635e-07
-4.7286556892e-05
-1.72931742582e-07
-2.5854112695e-05
-2.42817712121e-07
1.10745146416e-06
-1.53561856925e-06
3.79417287926e-05
-1.89839872807e-06
8.23156266178e-05
-3.86938508398e-06
0.000140126009173
-4.61178934698e-06
0.000207863484076
-7.44386765806e-06
0.000293452157493
-8.73602335395e-06
0.00039203153134
-1.26617337012e-05
0.00051374812782
-1.45925076964e-05
0.000651767597282
-1.93598261898e-05
0.000818955042419
-2.2052638172e-05
0.00100789177335
-2.90620815598e-05
0.00123537298715
-3.50656238434e-05
0.00149400417118
-4.70705835908e-05
0.00180263043532
-5.74235589846e-05
0.00215134348383
-7.28364733725e-05
0.00255581381655
-8.21357655895e-05
0.00299641416267
-9.53553295691e-05
0.00349005761264
-0.000111356865593
-2.37501029948e-05
0.00389786993651
1.2845362576e-08
-2.29189767339e-07
-4.33032328169e-08
3.09107204715e-08
-5.17771766115e-08
6.86554191146e-08
-4.13460437857e-08
5.12047859495e-08
-3.25970877431e-08
2.9969962776e-08
-1.66171993395e-08
1.61487581633e-08
-8.80424218077e-09
9.15155673121e-09
3.84117448093e-09
6.51185482181e-09
6.81898745504e-09
6.28178000465e-09
1.49677696954e-08
7.30910794292e-09
1.37475682476e-08
8.75569431774e-09
1.82768798658e-08
1.03686964201e-08
1.38405572821e-08
1.17988981165e-08
1.5455242474e-08
1.31195585313e-08
8.26355379449e-09
1.41120208208e-08
7.32572389743e-09
1.4979144988e-08
-2.41074799199e-09
1.55226173358e-08
-5.58750484444e-09
1.60327459136e-08
-1.68979296518e-08
1.62882669354e-08
-2.12286262299e-08
1.65428045969e-08
-3.33757278765e-08
1.65153873036e-08
-3.87814530501e-08
1.65218514352e-08
-5.08549893509e-08
1.63036966892e-08
-5.6105130868e-08
1.60475199043e-08
-6.79656165963e-08
1.54367138427e-08
-7.38439188027e-08
1.47620576895e-08
-8.54921234963e-08
1.38349638143e-08
-9.08237356817e-08
1.28881685254e-08
-1.0152117604e-07
1.16271328377e-08
-1.06525413009e-07
1.03738403511e-08
-1.16164085474e-07
8.93428360523e-09
-1.19883088614e-07
7.61355719123e-09
-1.28027814281e-07
6.05970024154e-09
-1.30776125707e-07
4.69302413365e-09
-1.3770534058e-07
3.20233144063e-09
-1.39245848051e-07
2.00126011678e-09
-1.44598421834e-07
7.15282363757e-10
-1.4459106813e-07
-2.07204490062e-10
-1.48083797153e-07
-1.26532024315e-09
-1.46526397774e-07
-2.00085541752e-09
-1.48308801514e-07
-2.92420132268e-09
-1.45410320544e-07
-3.56452387473e-09
-1.45924962492e-07
-4.44330989163e-09
-1.42066641906e-07
-5.03665400316e-09
-1.41952571225e-07
-5.89140476276e-09
-1.3761495534e-07
-6.38693169687e-09
-1.3689348677e-07
-7.11099303024e-09
-1.31626265328e-07
-7.45133140304e-09
-1.30305975859e-07
-8.17151247748e-09
-1.2465181935e-07
-8.40976822871e-09
-1.22126152003e-07
-8.91765346774e-09
-1.14898218059e-07
-9.11743170216e-09
-1.11478736989e-07
-9.91588324509e-09
-1.0440722017e-07
-1.03963798671e-08
-1.01071747764e-07
-1.12420815943e-08
-9.33114360417e-08
-1.19068264265e-08
-8.87197909986e-08
-1.36230659811e-08
-7.9755209333e-08
-1.50881024318e-08
-7.33501485129e-08
-1.7050975104e-08
-6.18224806586e-08
-1.83612963676e-08
-5.27265556772e-08
-2.03591394581e-08
-3.92837123906e-08
-2.1732040883e-08
-2.87790083312e-08
-2.3669069254e-08
-1.38402941332e-08
-2.45428691678e-08
-1.87147074638e-09
-2.57839033037e-08
1.42219926787e-08
-2.58173774027e-08
2.67496412979e-08
-2.62513208386e-08
4.25352875901e-08
-2.55624613406e-08
5.35112529397e-08
-2.55334358712e-08
6.69069028742e-08
-2.44293024157e-08
7.47916943093e-08
-2.41907582079e-08
8.53472958205e-08
-2.27880607041e-08
9.02518254348e-08
-2.23731132386e-08
9.81472845536e-08
-2.06989221769e-08
1.01560190969e-07
-1.9987926433e-08
1.09601478344e-07
-1.80420942114e-08
1.12255231856e-07
-1.79775899046e-08
1.17149832753e-07
-1.71656940849e-08
1.15758691622e-07
-1.80411500437e-08
1.18142212692e-07
-1.75441708484e-08