/*--------------------------------*- C++ -*----------------------------------*\
| =========                 |                                                 |
| \\      /  F ield         | OpenFOAM: The Open Source CFD Toolbox           |
|  \\    /   O peration     | Version:  v1806                                 |
|   \\  /    A nd           | Web:      www.OpenFOAM.com                      |
|    \\/     M anipulation  |                                                 |
\*---------------------------------------------------------------------------*/
FoamFile
{
    version     2.0;
    format      ascii;
    class       volScalarField;
    location    "26";
    object      sensitivity;
}
// * * * * * * * * * * * * * * * * * * * * * * * * * * * * * * * * * * * * * //

dimensions      [0 2 -3 0 0 0 0];


internalField   nonuniform List<scalar> 
12225
(
-5.43258857779
-9.78381002082
-8.2446799067
-8.71198386424
-8.66171002716
-8.83405100883
-8.94234206928
-9.05834174507
-9.13700730017
-9.22703744874
-9.38504699981
-9.64744320024
-9.91901576673
-10.0309954152
-10.2846853462
-12.1098516167
-16.7288523536
-19.5506023755
-29.1542991388
-9.65024931289
-13.94752854
-13.0966304936
-13.8375173644
-14.1337940095
-14.5516764611
-14.9122029756
-15.2873759347
-15.7183973757
-16.2653650289
-16.9147491311
-17.517174111
-17.9235732149
-18.5507111462
-20.7099357656
-24.602082788
-24.8319576703
10.3164119098
-12.8614669829
-9.87942825454
-11.0713563236
-10.8919622039
-11.121234466
-11.1824535951
-11.2527061487
-11.3104496782
-11.4450239675
-11.714392841
-12.1032983838
-12.4664035977
-12.7230778777
-13.3405302681
-15.3593259992
-18.5013325024
-18.8331249094
-29.6237388863
-8.54430997968
-12.2218303335
-11.3616460036
-11.9658062979
-12.0915946182
-12.3098734188
-12.4443651625
-12.5756564707
-12.7479133878
-13.0091174931
-13.3195915196
-13.5471618423
-13.6612180105
-14.0548147452
-15.297501999
-16.7294219405
-15.9824662927
5.81397972565
-12.3551653822
-9.51936143242
-10.7846431893
-10.6582844116
-10.9733695963
-11.1157067496
-11.2889197024
-11.456513592
-11.6907905624
-12.0120943839
-12.3801520959
-12.7032662371
-13.0165726642
-13.6228900778
-14.6939054251
-15.4123731523
-14.4194054753
-24.4701918964
-8.09252277317
-11.4649641475
-10.6078767686
-11.1188825717
-11.179387206
-11.3406318508
-11.448574199
-11.5749594628
-11.7430801118
-11.9650309153
-12.1973592239
-12.3933196107
-12.6363199631
-13.1489651341
-13.896878852
-14.1803084843
-13.2816653037
-0.581786821801
-10.9558116867
-10.0293667283
-10.6434467513
-10.6917100559
-10.8950766367
-11.0293886536
-11.1766377998
-11.3347724523
-11.5323894859
-11.7573419256
-11.9663033693
-12.1355604253
-12.3487521654
-12.7336694599
-13.1676627824
-13.1657283702
-12.4025845694
-15.5718177426
-9.82070936002
-10.501412979
-10.4612351721
-10.6663933977
-10.7782824445
-10.8971510461
-11.0154689809
-11.1558064797
-11.3304627892
-11.5230825569
-11.698188774
-11.8484283951
-12.0350039658
-12.3031763314
-12.5082017499
-12.3505031953
-11.7100973217
-8.7462522641
-9.86456500489
-10.3180571473
-10.3889968919
-10.5446243722
-10.6567350693
-10.7642720586
-10.8742327347
-11.00078456
-11.150016322
-11.3050467495
-11.4424749892
-11.5650020403
-11.7089674148
-11.8694349703
-11.9197885676
-11.6921290089
-11.1557913869
-10.8642192925
-9.96466311867
-10.2275200697
-10.3045290004
-10.4349174868
-10.5360146475
-10.6330964286
-10.7342514564
-10.846933632
-10.9717614507
-11.0934302457
-11.1977563805
-11.2895398106
-11.3837665761
-11.453185589
-11.4049412063
-11.1528587813
-10.7017382013
-10.3837621843
-9.88524891316
-10.178965748
-10.2212111622
-10.3380407923
-10.424153571
-10.5108044981
-10.6002306211
-10.6964548414
-10.7965438333
-10.8881924209
-10.9627733335
-11.0227928654
-11.0682724167
-11.0674039426
-10.9594369461
-10.7066751058
-10.3235232069
-10.3408188971
-9.87667536109
-10.1046269727
-10.1428272717
-10.2408035011
-10.3157056192
-10.3914309019
-10.4686817751
-10.5484763174
-10.626633353
-10.6935944328
-10.7434295625
-10.7749271126
-10.7814775162
-10.7353583633
-10.5993802894
-10.3583538913
-10.0278637359
-10.267249386
-9.85335304277
-10.0473571969
-10.0738341174
-10.1560858098
-10.2185446317
-10.2826994285
-10.346374712
-10.4088023585
-10.4656145003
-10.5095754346
-10.5354938582
-10.5402801151
-10.5140002888
-10.4362899122
-10.2857081861
-10.0607601031
-9.77301438031
-10.1544821149
-9.82845330507
-9.98027719638
-9.99773998178
-10.0620265027
-10.1096432968
-10.15908003
-10.2058381259
-10.248593608
-10.2826563499
-10.3029253013
-10.3047892999
-10.2832918864
-10.2296902118
-10.1301300598
-9.97604347001
-9.76981932786
-9.5231391398
-10.0341243394
-9.79754249695
-9.90116834652
-9.91073955389
-9.95554509083
-9.98580569509
-10.017306949
-10.0442906196
-10.0648489786
-10.0756752715
-10.0720011872
-10.0501875799
-10.0053427326
-9.93112650659
-9.82007997585
-9.66972995057
-9.48594688475
-9.27432034195
-9.85112354749
-9.72891311148
-9.82832833246
-9.82067908231
-9.84837304786
-9.85865520707
-9.87065727351
-9.87580316917
-9.87436059341
-9.86184893063
-9.83609760529
-9.79290316639
-9.72984157585
-9.64216845691
-9.52805209107
-9.38669281594
-9.22557890992
-9.04564606737
-10.1320813882
-9.7533127824
-9.73216328641
-9.71735142533
-9.72463600611
-9.71427382955
-9.70444348245
-9.68726263281
-9.66339820594
-9.6296111057
-9.58384414055
-9.52392180714
-9.44801931088
-9.35494405291
-9.24379763464
-9.11690062672
-8.97833456037
-8.83296182685
-8.2070986762
-9.4040745912
-9.58007361608
-9.60115174393
-9.58237718972
-9.54327672504
-9.5088818088
-9.46791956207
-9.4217369081
-9.3669644096
-9.30213792964
-9.22623159264
-9.13836867401
-9.03886714862
-8.92758020432
-8.80741584632
-8.68054466331
-8.54565771676
-14.0519940982
-10.2168609771
-10.0735579574
-9.6962136439
-9.65155175613
-9.58920854984
-9.54799214007
-9.50194247069
-9.45252251286
-9.39688089526
-9.33416545924
-9.2646236927
-9.18787486379
-9.10488509932
-9.0151772021
-8.92054929071
-8.82226196716
-8.72580921481
0.621586045764
-8.77834350334
-8.41876496723
-9.06357453299
-8.95942400403
-8.93420334772
-8.87319182192
-8.81037154165
-8.74092274088
-8.66587638669
-8.58475302524
-8.49861735729
-8.4072535916
-8.31278188092
-8.21521024232
-8.11808051909
-8.02231077925
-7.92041681116
-24.5492207398
-9.55361572429
-10.5526099654
-9.53163743086
-9.72977283251
-9.64136621263
-9.61789619456
-9.56241057696
-9.50416705265
-9.43825363418
-9.3668097624
-9.28975609943
-9.20901991865
-9.12420948011
-9.03631927995
-8.94302631446
-8.84688742671
-8.75688349622
15.5285627777
-10.1165155433
-7.44772491537
-9.16171513746
-8.67973210667
-8.75046311481
-8.6588874649
-8.60458393825
-8.53565688239
-8.46515872668
-8.39193125693
-8.31577390344
-8.23802905277
-8.15803326125
-8.07624757953
-7.99457281888
-7.91510824941
-7.81976039414
-45.3891572856
-7.35231589453
-11.8851379143
-9.32608731234
-10.0740008151
-9.82643090552
-9.85358534797
-9.78185976844
-9.72858423898
-9.66321887961
-9.59485358838
-9.52388499183
-9.45070958826
-9.37773256281
-9.30289096049
-9.22713401727
-9.1488093657
-9.09104032315
40.3476018032
-14.0555531286
-5.97007311293
-9.71570278523
-8.50502056578
-8.79340751921
-8.61799128504
-8.57547718238
-8.48272750241
-8.39717142087
-8.30379151779
-8.20885313692
-8.11360762724
-8.01748045407
-7.92071740919
-7.82663065892
-7.73945999884
-7.62950035715
-66.2384174677
-1.85498792217
-13.7312426879
-8.92409296546
-10.5007370631
-9.97728730337
-10.0933023128
-9.99569122223
-9.96116534462
-9.90646363304
-9.86013899215
-9.81405664447
-9.77085450622
-9.72855177589
-9.68464851963
-9.63497522442
-9.57818448512
-9.54279862518
46.4495686074
-18.4095935634
-5.21436599515
-10.185013701
-8.44698515661
-8.92204192544
-8.66849473712
-8.64019814768
-8.5262815016
-8.43134485085
-8.32406239689
-8.21356886777
-8.0973157204
-7.97629471059
-7.850213303
-7.72567701348
-7.61732902712
-7.48593531125
-58.0332832817
-2.2913397524
-13.5079005939
-9.40262939866
-10.7516515149
-10.2487376725
-10.3482645269
-10.2470430858
-10.2102798953
-10.1542418704
-10.1100604978
-10.0634608132
-10.0194393325
-9.98128742925
-9.94884802399
-9.92601839703
-9.91259107735
-9.93791410988
33.8086101931
-16.1612036215
-6.51116372162
-9.81975093515
-8.67260196531
-8.93639140429
-8.75480101041
-8.70876408503
-8.61190693322
-8.52912965439
-8.44109077768
-8.34948176
-8.2558373657
-8.16497286756
-8.07521946844
-7.98612383778
-7.89863193041
-7.74955180925
-36.0521349505
-6.45427642441
-13.0418244448
-10.769968889
-11.4610723319
-11.1843092263
-11.2183999843
-11.147551344
-11.1051053326
-11.0517678683
-10.9989585111
-10.9359561476
-10.8666609116
-10.793407124
-10.7117396125
-10.6146402793
-10.4860981883
-10.3717126791
0.315336600107
-8.76805931132
-5.51733845751
-6.35567895822
-5.96059320483
-5.95138158019
-5.81891552209
-5.72657176709
-5.62086061444
-5.5217658846
-5.42063111371
-5.31613361467
-5.21096656241
-5.1094606028
-5.01204354354
-4.92348629755
-4.86799359178
-4.84217853255
-0.0203622393962
-0.0138205761046
-0.0051987331902
-0.00848123126402
-0.00832660671843
-0.0159289879963
-0.0335416920743
-0.058376098765
-0.0891570078093
-0.123711034188
-0.161612938968
-0.201172273594
-0.242655045161
-0.285274006554
-0.33055113788
-0.378663136206
-0.432064083287
-0.49084828604
-0.555986821707
-0.626985585579
-0.704155006408
-0.785980751313
-0.871009637412
-0.957856810639
-1.04488765779
-1.13126875494
-1.21631788088
-1.29904092358
-1.37790230961
-1.45281968332
-1.52380388007
-1.59066206929
-1.65239618638
-1.70976547774
-1.76378821191
-1.81449251725
-1.86154972251
-1.90557267995
-1.94650503286
-1.98501080308
-2.02122499769
-2.05588224219
-2.08941224875
-2.1222682727
-2.15536201082
-2.18849993182
-2.22163624465
-2.25459955724
-2.28771647733
-2.32007578795
-2.3512666719
-2.38072277782
-2.40765982497
-2.43312320487
-2.45791359293
-2.48027692667
-2.49836645161
-2.5123290543
-2.52149201589
-2.52520856916
-2.52223891275
-2.51474183672
-2.50466273717
-2.49212155139
-2.4771818313
-2.46047224418
-2.44240072876
-2.42398277861
-2.40651697022
-2.39070048946
-2.37707348975
-2.36509932657
-2.35520008093
-2.34608906715
-2.33670379409
-2.32640032103
-2.31480482897
-2.30502868463
-2.29948450846
-2.29595914203
-2.29318077655
-2.29304229768
-2.29661112406
-2.30030387714
-2.30173124776
-2.30482566873
-2.31340785531
-2.34243620622
-2.40648782893
-2.52078064844
-2.63879786565
-2.72787045708
-2.79995061105
-2.88020091492
-2.98255613513
-3.11288253815
-3.27132572055
-3.45477225595
-3.65764016116
-3.87087584796
-4.08226327828
-4.2654079623
-4.41782561495
-4.53831338896
-4.65012864224
-4.76001072973
-4.87841955978
-4.98560451027
-5.04959309329
-5.05346624916
-5.01785550158
-4.95670611821
-4.86646261685
-4.71625144838
-4.51644206646
-4.3277224727
-4.17078208619
-4.06225619027
-3.93179770089
-3.68019473925
-3.2525073673
-2.59566963129
-1.74515795211
-0.511451470311
0.82097139331
2.08003492792
3.55883405171
5.32553734268
6.87079470288
8.21220074346
9.36484942344
10.3190873624
11.0709233436
11.609092228
11.9440602931
12.0981282228
12.1232635794
12.1175926291
12.1735858164
12.341032
12.5205242059
12.5844527375
12.3846677233
11.8829882471
11.1385135341
10.1809066889
9.0213262022
7.6849187206
6.1908232225
4.58113906426
2.8809978674
1.14940661894
-0.582092026563
-2.23068583578
-3.7594890117
-5.06173694846
-6.10211175772
-6.7616487382
-7.02848258075
-6.78884908736
-6.06852913672
-4.79639780921
-3.04184931267
-0.603451417541
2.42800919372
6.20802387773
10.695689732
16.09579275
22.563168572
30.0359260196
40.1785080891
51.6101577626
61.044020983
68.1855465663
69.9359440607
60.7915339796
34.1487674207
-22.353933179
-77.3095815339
-216.721548599
-0.0230724471489
-0.0453002289742
-0.0681608686127
-0.0742604241439
-0.0632150324887
-0.0415221975525
-0.0141344067917
0.0168566088564
0.0500921666506
0.0851245837387
0.121049203934
0.157464791191
0.193399516043
0.228058614271
0.259861112585
0.287526452076
0.309257012747
0.32391751664
0.330712061153
0.329457540364
0.32018922827
0.30280621192
0.278629272918
0.248521245247
0.213586162369
0.173832799409
0.130804218058
0.0855069192393
0.0394348354041
-0.0073638189486
-0.0534081398258
-0.0979415446126
-0.139861342568
-0.17927874642
-0.21539154753
-0.247993979345
-0.276209604348
-0.299866267093
-0.318183341968
-0.331318359427
-0.338786144415
-0.340882471549
-0.337503967399
-0.328971941544
-0.315558405952
-0.297546440661
-0.274773122037
-0.247032854685
-0.214579396261
-0.177923742102
-0.136098836884
-0.088867359761
-0.036786007031
0.018708380813
0.0776274148507
0.1401499815
0.207631905585
0.278771932968
0.35352783394
0.432960274739
0.517646696854
0.60686319598
0.700173935938
0.797473778522
0.898126232001
1.00094784726
1.10459388007
1.20763555408
1.30836236819
1.40550498243
1.49798995569
1.58564683168
1.66797474622
1.74487865773
1.81710265484
1.88553338775
1.94866306851
2.00385875618
2.0502478691
2.08906436166
2.11967901538
2.14083425447
2.15266625456
2.15741319763
2.15529264479
2.14359517167
2.11904959974
2.06686847929
1.96442950483
1.80367907613
1.62775786454
1.47004889422
1.31917763747
1.15056690347
0.949978301273
0.711269018614
0.434129772935
0.120476280266
-0.224582982573
-0.593679386041
-0.968279855455
-1.32779692224
-1.66251820886
-1.97503246539
-2.28386496073
-2.60060078715
-2.91687500224
-3.2043878563
-3.45322002275
-3.6549903695
-3.80540846011
-3.88974634246
-3.91023014689
-3.86746596475
-3.78914695916
-3.67012818774
-3.49140714505
-3.24818138539
-2.84344582695
-2.21568932005
-1.31304071121
-0.103935032563
1.8006509449
2.5202684634
2.78422490489
3.66075658036
5.34767369403
7.09107937078
8.56060915833
9.77128499284
10.7367870673
11.4646668723
11.9491225186
12.1925813391
12.2059746124
12.0259906807
11.7193500208
11.3962665642
11.1654842046
11.0621958187
10.9982721807
10.8349833277
10.4508818809
9.82194800156
8.9637032923
7.94042212181
6.7467763261
5.40425988842
3.94153431568
2.39292881918
0.794290694272
-0.806314172785
-2.36267105059
-3.80600068381
-5.07501589332
-6.07448859999
-6.7384770633
-6.9539630419
-6.6674440301
-5.76496023831
-4.20070802945
-1.88029031832
1.34934395197
5.64661287497
10.9342859249
17.530681758
25.5785198946
35.4497376684
47.7987820501
61.1623749762
77.8924466514
96.4291882785
119.106866966
146.007346722
174.723743877
195.165052008
188.405766524
114.980973284
80.5417552125
17.9511811794
-0.125561723359
-0.109322490655
-0.0303383236275
0.0543229421016
0.135346168768
0.210316856994
0.278824146617
0.343266744635
0.404974913486
0.465159123562
0.524058486297
0.582525785449
0.640508849165
0.69819313198
0.754721212853
0.809675833785
0.861988040374
0.9113281068
0.957214078395
0.999774107699
1.03908403446
1.07529844946
1.10892259839
1.1403219362
1.17001334463
1.19796922619
1.22477605356
1.25064089014
1.27629141548
1.30155858885
1.32708619072
1.35267913595
1.37882878824
1.40508453554
1.43150786958
1.45767633156
1.48387721195
1.50957376748
1.53491025345
1.55934179983
1.58284228983
1.60481113757
1.62506150655
1.64303925111
1.65841026351
1.6707523555
1.68007040582
1.68623181733
1.68942007561
1.68939080108
1.68649090334
1.68080459064
1.67244228475
1.66067211854
1.6460621938
1.62972942971
1.61149718271
1.59104059581
1.5689095402
1.5454497712
1.52095179311
1.49483954076
1.46697209724
1.43726350415
1.40588705577
1.37280220288
1.33765511021
1.29995959946
1.25932985735
1.21552318326
1.16883568322
1.11990164092
1.06925252229
1.01758242403
0.965972974424
0.914993045705
0.864077668482
0.811962986911
0.758376170097
0.704244122488
0.64959437505
0.594210912451
0.538914054421
0.485714411424
0.435209261972
0.386111347335
0.335391955242
0.270179660242
0.164227684027
0.0139606245105
-0.138841645391
-0.261820922708
-0.367301803525
-0.479476294683
-0.61289855036
-0.772986937321
-0.960492928686
-1.17318246989
-1.4057428458
-1.64962748559
-1.88389205229
-2.0990317383
-2.28397642307
-2.45528593859
-2.63244070055
-2.82594914976
-3.0175646978
-3.19339887685
-3.34107994627
-3.44184566403
-3.47651076211
-3.43662525358
-3.33742286402
-3.18417448268
-2.9711225412
-2.66002842028
-2.22425241435
-1.62962884836
-0.726925807742
0.366368394871
2.05541731618
3.04067758198
3.60949281054
4.18613959262
4.95347754136
5.95191925202
7.29284514145
8.64352086555
9.85249673621
10.8909493211
11.743431573
12.4002028943
12.846157574
13.0765419963
13.0969586057
12.9404155009
12.6833010983
12.4326044451
12.3000044274
12.3064711256
12.3675960497
12.3414641906
12.1539306622
11.8489647764
11.2449021852
10.4708329491
9.51844971959
8.41507559616
7.18636607767
5.86461417473
4.47921487446
3.07532163788
1.69127588304
0.392501302652
-0.769548332605
-1.70370894216
-2.35168617363
-2.60901792569
-2.43160034496
-1.70972139365
-0.39672623755
1.62929648408
4.48265077592
8.34640717498
13.2423970981
19.4085543167
26.9132682857
36.0116258563
46.910962148
59.0741060059
73.8444308548
89.253890364
109.062120357
135.813792785
170.445682866
213.21124411
259.563693461
292.317024208
324.233558961
288.906813845
-0.193681848871
0.0887253244805
0.317951804489
0.428112535372
0.481344470562
0.508435978005
0.524840289756
0.541101624566
0.561402403169
0.587247299752
0.618403653587
0.655194661133
0.697045491367
0.743577863306
0.793430612513
0.84568468571
0.898868638985
0.95220780952
1.00467105457
1.0558313956
1.10516897696
1.15244030385
1.19740946024
1.23999830937
1.2802270373
1.31792535358
1.35333542125
1.3864741096
1.41785103016
1.44734819075
1.4755575186
1.50239449722
1.52835443027
1.5530902167
1.57712094798
1.60011686617
1.62246656787
1.64394908197
1.66495551285
1.68517755838
1.70488769997
1.72375092515
1.74182476574
1.75870909602
1.77425231268
1.78800109475
1.79983718581
1.80956138144
1.81712118857
1.82213657679
1.82481680844
1.82491341165
1.82243406805
1.81673994141
1.80947372341
1.80140610847
1.79312137208
1.78490842631
1.77809967634
1.77309708266
1.77052918462
1.770108431
1.77161529886
1.77425821655
1.77725888881
1.77939947759
1.77961887246
1.77672538724
1.76973078414
1.75796591736
1.74130802287
1.72000423329
1.69471264679
1.66578711707
1.63383782822
1.59927463969
1.56172084385
1.52046823273
1.47540622862
1.42674577332
1.37432722573
1.31800078754
1.25818658216
1.19575426524
1.13092075921
1.06247993888
0.987335575364
0.892620647922
0.753232461829
0.565709548395
0.371583819063
0.203138245207
0.0490113263862
-0.114925098561
-0.302275225345
-0.517848335699
-0.761030616042
-1.0265978616
-1.30693509334
-1.58661115433
-1.84690480318
-2.07232757531
-2.25954554235
-2.42851594136
-2.5954679055
-2.75953314396
-2.90353198898
-3.02649594749
-3.10477736862
-3.12021304105
-3.04710721968
-2.89604744054
-2.67394209826
-2.36298685708
-1.93635040273
-1.35051241568
-0.537040541087
0.499641189828
1.9728580651
2.961844771
3.80427132015
4.53739180751
5.13615971013
5.76284489736
6.52282090173
7.42018161302
8.4894316008
9.58049085556
10.6164626894
11.5431455499
12.3312878623
12.9479478984
13.3731368026
13.587819072
13.5972957556
13.4299815739
13.1730042251
12.9346614446
12.8167326178
12.8320415204
12.8859544631
12.8434955647
12.6342676242
12.3513911778
11.7453926943
10.9767129449
10.0278587221
8.93486008367
7.7264717519
6.43153241519
5.08409522716
3.72262192867
2.39196602936
1.14826897215
0.0495554548322
-0.826837655913
-1.41397374399
-1.63192237123
-1.43155274964
-0.731385343902
0.522605181639
2.46957668082
5.21088826039
8.92554010102
13.8274771243
20.1775476429
28.1318540361
37.9966246904
49.4714875737
63.6423710125
80.3590378881
94.8371159707
112.272038391
135.646539881
166.107784811
213.724976631
294.861607509
443.012493734
569.557721478
600.377990288
-0.14520365443
0.641835981336
0.843885365434
0.767614497478
0.665720062246
0.585246406555
0.531683099837
0.504471972874
0.498933817862
0.510293617734
0.534465918541
0.569359556434
0.612941068826
0.663855066626
0.720225095024
0.780753307141
0.843794533819
0.908345280453
0.973194486675
1.03772785238
1.10114680947
1.16303413381
1.22296977219
1.28069236209
1.3360036447
1.3887899789
1.43918079708
1.48711411233
1.53304298023
1.57693552251
1.61941942428
1.660321397
1.70031006606
1.73915970618
1.77732996191
1.81450892454
1.85117479536
1.88689761622
1.92198132137
1.95601755188
1.98913377888
2.02084304846
2.05107854563
2.07929012046
2.10522737853
2.12834146068
2.1484131637
2.16500016692
2.17806731507
2.18731984013
2.19262420787
2.19387728657
2.19117782886
2.18417740467
2.17379693377
2.15974102999
2.14282173255
2.12313741911
2.10143977075
2.07770804169
2.0523400707
2.02501953791
1.99601577984
1.96489261177
1.93134187697
1.89476866175
1.85459192638
1.81014979772
1.76126858194
1.70792988291
1.65075587409
1.59047102285
1.52800816863
1.46414900977
1.39960230164
1.33455622226
1.26904984612
1.20293454693
1.13617340885
1.06899070734
1.00145064304
0.933792597128
0.866372516352
0.799865821486
0.734417393323
0.668862398889
0.59992006905
0.515672796663
0.390391705568
0.220436785266
0.046465479827
-0.100627332655
-0.232141352932
-0.372829834751
-0.536523502726
-0.728094876836
-0.945485746688
-1.182342125
-1.42946832743
-1.66574922467
-1.87580580729
-2.04248707966
-2.17755101242
-2.29583599015
-2.40534255225
-2.49615567296
-2.56536395681
-2.60525194485
-2.5911738807
-2.49004659306
-2.28783383053
-1.99936493406
-1.62109775455
-1.08196801721
-0.404930306931
0.543326710689
1.70989722972
2.65067925302
3.58488012297
4.4195853997
5.12227415234
5.70212747568
6.23695956852
6.85286930946
7.57198869863
8.39542290791
9.33113820624
10.3105062838
11.2750125698
12.1651746392
12.9387561724
13.5529906005
13.9796623938
14.1965323226
14.2054485862
14.049076885
13.8156248902
13.6232607762
13.55230366
13.6078061605
13.6836630186
13.6595136383
13.4771388234
13.2497291259
12.6734893031
11.9561862704
11.0575430945
10.0180436028
8.86355257346
7.62372493747
6.32819694517
5.01596093851
3.72764957782
2.51954135226
1.44605715101
0.582354212092
-0.00700206176889
-0.247266872506
-0.0906587103142
0.53772589803
1.69174243253
3.52539151069
6.14711448203
9.7630265998
14.6838027299
21.2519992503
29.7375260849
40.5450340186
53.1708447563
69.2336708824
88.032846818
103.242869455
118.749175342
136.542111018
156.435081765
189.800855734
260.552771082
431.831928301
596.970664171
676.495664776
0.139324401348
1.58047512431
1.39178541418
0.9470447141
0.669728196114
0.516956667687
0.439583305006
0.40907442352
0.408771447892
0.428699991895
0.462675598961
0.50766862586
0.561257938914
0.6219075322
0.687779765151
0.757596207075
0.829784322418
0.903343912251
0.977040567118
1.05011496038
1.12170060391
1.19131198744
1.25831158623
1.32238333641
1.38325493196
1.44069429905
1.4947526327
1.5453650909
1.59294614179
1.63746301493
1.6795912444
1.71933670409
1.75744020947
1.79375692038
1.82908121755
1.86318449489
1.89658668575
1.92902893762
1.96086192541
1.9916469268
2.02151150081
2.04992132331
2.07675388156
2.10139396352
2.1235380145
2.14256676638
2.15819876604
2.17004179444
2.17792951459
2.18160719666
2.18114389707
2.1763742456
2.16733258991
2.1539728425
2.13758629278
2.11751458456
2.09509297083
2.07092961704
2.04600280813
2.02032001965
1.99444542434
1.96797701025
1.94061016701
1.91147836412
1.88001487911
1.84497727755
1.80557192888
1.76095123651
1.71077064089
1.65496921778
1.59414762422
1.52903346286
1.46078050283
1.39003078162
1.31747952995
1.2434528171
1.16813335265
1.09156388678
1.01398578557
0.935689478239
0.856981303934
0.778349897626
0.700280636074
0.623488013359
0.548147083639
0.473461412819
0.39647495835
0.305937825743
0.177928505719
0.00879347760329
-0.163259053435
-0.306817647708
-0.433418233369
-0.567420750561
-0.722857895397
-0.904299486622
-1.10834223122
-1.32653947647
-1.54208153287
-1.7332153233
-1.88204300718
-1.98231228985
-2.04768081962
-2.0834973453
-2.09469454461
-2.07138179474
-2.02142991897
-1.91776991957
-1.74698412278
-1.46782424923
-1.08199009182
-0.610273657175
-0.03655051386
0.772621070347
1.57413850627
2.41131675094
3.27205760792
4.09679138308
4.86201958707
5.45573139617
5.95599318168
6.43973051662
6.95316639359
7.56706029442
8.26526066531
9.05644296788
9.93023325297
10.855565208
11.7721203072
12.6316219633
13.377124253
13.9717989761
14.3751695976
14.5729919471
14.5652033435
14.4131886952
14.2096576665
14.0656348106
14.0488674802
14.1410942959
14.2377824737
14.2312216473
14.095531241
13.8884801825
13.338411467
12.6496592643
11.7880068441
10.7864883413
9.67439443041
8.47720424641
7.22555862922
5.95343856772
4.70333613942
3.52514583695
2.47796906906
1.62872457802
1.04966273981
0.807896560169
0.966529143314
1.59064622605
2.75110985118
4.57452247006
7.20054013546
10.8413437335
15.8101111687
22.4572824922
31.124613343
42.2512179289
55.5295374941
72.0941741025
91.5864980199
108.414613655
124.226960375
139.667970559
153.284069957
171.669457962
212.17168165
331.450027932
468.711458343
552.635290547
0.679184699539
2.7242538127
1.7630712126
0.946816171816
0.594111932399
0.442227591747
0.381138124963
0.363313915326
0.37169012161
0.39734574683
0.435283745202
0.483004874666
0.53834732129
0.599893610883
0.665956863116
0.735363605465
0.80668676702
0.878981377009
0.95109946984
1.02238103366
1.09194855562
1.15930358711
1.22390397186
1.28541379919
1.34352144844
1.39808578333
1.44919342386
1.49679524435
1.54136843549
1.58298378279
1.62243250457
1.65974370822
1.69585705573
1.73078452812
1.76525275084
1.7990867947
1.83285002908
1.86608771801
1.89901809356
1.93109013882
1.96226383502
1.99189574097
2.01979538915
2.04532488366
2.06821099423
2.08793410891
2.10429027531
2.11693086529
2.12582933642
2.1308059741
2.131824905
2.12871761999
2.12137460675
2.10884907028
2.09282783316
2.07158136295
2.04673912758
2.01846161791
1.98743488316
1.95362807443
1.9175115934
1.87886149929
1.83805929246
1.79456146726
1.74806346773
1.69800843837
1.64394088667
1.58524232445
1.52189746288
1.45398969766
1.38226743583
1.30744781352
1.23047925241
1.15195955974
1.0724320177
0.991846469753
0.910390854279
0.828044759195
0.745136555701
0.661940826885
0.579141553355
0.49730760516
0.417262426047
0.339593167865
0.264736437932
0.191865493804
0.118345468148
0.0340401418837
-0.0840457945472
-0.240112792555
-0.397056452779
-0.52482256354
-0.634523117236
-0.74930717601
-0.883237063987
-1.04022939222
-1.2147708971
-1.39368468066
-1.55330730298
-1.6747200424
-1.73917612383
-1.75042713033
-1.71080491153
-1.63335881341
-1.50893466374
-1.33653813595
-1.10562689372
-0.782336124179
-0.394134249371
0.0797469731983
0.657557181297
1.21961422404
1.77680681098
2.41525627388
3.13164731871
3.87901696471
4.55121961998
5.12222620203
5.62534587142
6.0326936452
6.44485153752
6.90985515229
7.44599404906
8.07415890149
8.7802188585
9.56492879202
10.419205924
11.3160297389
12.2058444582
13.0400204262
13.7644926353
14.3377547426
14.7217985256
14.8994771639
14.8879806288
14.7526190924
14.5969436627
14.5121956343
14.5517295641
14.6768973102
14.7924480243
14.8039751744
14.7364005606
14.4920283374
13.981283686
13.3076254256
12.4757015066
11.5083445106
10.4342622873
9.27713040687
8.06571547899
6.83188913802
5.61569438059
4.46579224198
3.43982086696
2.6058249191
2.03536983749
1.8021439653
1.97460001603
2.62540981657
3.82961098345
5.68996300719
8.35661034518
12.0449046407
17.0066903906
23.5512379452
32.020149461
42.8388322541
56.0859865323
72.1367177518
91.2598181372
109.78225254
127.963054757
145.7051882
161.031030643
174.743415423
192.007945855
241.536622052
321.377854025
378.790648992
1.43753624983
3.83874116205
1.89997872398
0.88436906001
0.57019409144
0.449600550159
0.402237829068
0.382979908531
0.386060719075
0.40518942479
0.43658871188
0.477727850289
0.526255975048
0.580597715497
0.63902234101
0.700388935666
0.763358226516
0.827115477097
0.89063975054
0.95332334081
1.01443010342
1.07357322326
1.13020173783
1.18406018474
1.23493835107
1.28267587422
1.3274282459
1.36919354931
1.40851389835
1.44549013313
1.48099967721
1.51520615733
1.54903145251
1.58241341327
1.61616596098
1.64995050229
1.68409874032
1.71805149902
1.75182704968
1.78464041041
1.81633184508
1.84614080001
1.87383176514
1.89874343783
1.92064816215
1.93903418711
1.95376015413
1.96453772758
1.97130925082
1.97391134063
1.9722925239
1.96621031615
1.95561829388
1.93932134415
1.91914887156
1.89357261145
1.86457027713
1.83268561189
1.79872103423
1.76260613749
1.72476198295
1.68476284023
1.64244915177
1.597307626
1.54908782936
1.49690718143
1.44028882848
1.37869627262
1.31204585703
1.24053291879
1.16494807885
1.08615057681
1.00528858706
0.922948543772
0.839709315979
0.755696085356
0.670965155415
0.585585208097
0.499997254235
0.414688630404
0.330757345582
0.248777017568
0.170193079728
0.0951499082583
0.0251311805417
-0.0417030792293
-0.10691429571
-0.181005400225
-0.285118731432
-0.423200094062
-0.560207405959
-0.669949594358
-0.760777617357
-0.851378944021
-0.951674196433
-1.06456084684
-1.1829359645
-1.2861644655
-1.35032213998
-1.35536162637
-1.28883163249
-1.15462598363
-0.952863176233
-0.720957380997
-0.423945983631
-0.0620052608991
0.39040980877
0.91445468504
1.37500640456
1.81467987915
2.24820802613
2.71822047702
3.27203660145
3.8620140464
4.40704491152
4.89537498133
5.30727758392
5.65977232845
6.00430490173
6.34450001089
6.75727012822
7.24668713494
7.82056207906
8.47005774364
9.19453998005
9.98173359354
10.8305804076
11.7057918349
12.573699367
13.3776077611
14.0753342287
14.6152051942
14.9695662565
15.1194573009
15.1023195942
14.9909190847
14.884723709
14.8616408367
14.949040655
15.1003752233
15.2304327611
15.2699640689
15.3038709296
14.9957257324
14.5162731264
13.8618311825
13.0572427966
12.1249688115
11.0883952036
9.97167723891
8.80001953563
7.60526415553
6.42359333421
5.30453697932
4.30256024819
3.48907034819
2.9327874717
2.71563615635
2.90630350323
3.58788512499
4.83288359845
6.73271114048
9.4333265446
13.1522025201
18.0763625973
24.4717040136
32.6409315322
42.97944052
55.8944789899
71.2511970586
89.7923986582
109.543172211
130.507265782
152.567401483
173.990217608
191.801725367
201.380627714
203.006370363
232.978486926
257.971838038
2.3133880895
4.71851568794
1.88162224186
0.88614941996
0.648342257848
0.539644656146
0.482863378388
0.444122983163
0.429883404817
0.432568890772
0.44855094331
0.474477170427
0.507678157891
0.546374407257
0.588858115239
0.634043801717
0.680790821954
0.728395793623
0.776068677625
0.823374546864
0.86975869021
0.91489485225
0.958470977094
1.00025650802