/*--------------------------------*- C++ -*----------------------------------*\
| =========                 |                                                 |
| \\      /  F ield         | OpenFOAM: The Open Source CFD Toolbox           |
|  \\    /   O peration     | Version:  v1806                                 |
|   \\  /    A nd           | Web:      www.OpenFOAM.com                      |
|    \\/     M anipulation  |                                                 |
\*---------------------------------------------------------------------------*/
FoamFile
{
    version     2.0;
    format      ascii;
    class       volVectorField;
    location    "26";
    object      U;
}
// * * * * * * * * * * * * * * * * * * * * * * * * * * * * * * * * * * * * * //

dimensions      [0 1 -1 0 0 0 0];


internalField   nonuniform List<vector> 
12225
(
(9.73871702348 0.0400115492588 0)
(9.50186560322 0.0408097347847 0)
(9.24473289923 0.0403332910272 0)
(8.99204867962 0.0406921086048 0)
(8.75165272721 0.0407026103889 0)
(8.52228812161 0.0404020750094 0)
(8.30230408489 0.039997470651 0)
(8.09085323168 0.039585238626 0)
(7.88721353984 0.0392179463843 0)
(7.69050298011 0.038944625889 0)
(7.4996908741 0.0388153380619 0)
(7.31360334932 0.0388873646197 0)
(7.13085862137 0.0392357691587 0)
(6.94974904692 0.0399745601811 0)
(6.76801720153 0.0412990308552 0)
(6.58228585506 0.0436253301559 0)
(6.38691958276 0.0481297698998 0)
(6.16277209468 0.0554543830979 0)
(10.0163049755 0.071503293188 0)
(10.0354694028 0.0699456381559 0)
(10.021408031 0.0675676520848 0)
(9.99147484704 0.0685231340946 0)
(9.95475208314 0.06948948606 0)
(9.91226439319 0.0701857494785 0)
(9.86409743661 0.070918903562 0)
(9.81078492443 0.0718072261909 0)
(9.7528168212 0.0729054575419 0)
(9.69040058321 0.0742911441951 0)
(9.6234783927 0.0760687545708 0)
(9.55173981517 0.0783793028382 0)
(9.4745690177 0.0814260192765 0)
(9.39093126069 0.0855290259175 0)
(9.29916345594 0.0912409793488 0)
(9.19647496885 0.099662978772 0)
(9.07959241699 0.113489047554 0)
(8.93190781512 0.142301751147 0)
(10.0209973591 0.0583769562863 0)
(10.0523424517 0.0586106426172 0)
(10.0650163231 0.0573762400372 0)
(10.0673182277 0.0603322895182 0)
(10.066356431 0.0635197792367 0)
(10.0626305173 0.0663394534664 0)
(10.0555208053 0.0691572505092 0)
(10.0449191543 0.0721530663075 0)
(10.0308456979 0.0754222995406 0)
(10.0131829254 0.0790973416229 0)
(9.99166904028 0.0833585980405 0)
(9.96591205652 0.088448643485 0)
(9.93535530242 0.094712922502 0)
(9.89920979617 0.102683460672 0)
(9.85637346559 0.113245639455 0)
(9.80534462258 0.128006341805 0)
(9.74536229733 0.150193259268 0)
(9.67079365106 0.184100333346 0)
(10.0157649785 0.0480711955924 0)
(10.0422474562 0.0559456829296 0)
(10.056795023 0.0580968300417 0)
(10.0623313337 0.0625512827384 0)
(10.0651061059 0.0668377473028 0)
(10.0661431818 0.0704724791707 0)
(10.0649325151 0.0739619851857 0)
(10.0613070888 0.077629464767 0)
(10.0552561717 0.0816558768803 0)
(10.0466637688 0.0862338616205 0)
(10.035294916 0.0916033059273 0)
(10.0208276139 0.0980744160373 0)
(10.002850593 0.106076651939 0)
(9.98084964588 0.116249113454 0)
(9.9542334987 0.129596198862 0)
(9.92246577175 0.14774891688 0)
(9.8860532669 0.173351316039 0)
(9.84352910692 0.208640982689 0)
(10.0114114028 0.0401271792233 0)
(10.0327396921 0.0521627261615 0)
(10.0465507433 0.0557064852461 0)
(10.0524509478 0.0601238917041 0)
(10.0554289678 0.064600746758 0)
(10.0568165122 0.0686332191503 0)
(10.0562524853 0.0726414395622 0)
(10.0535539813 0.07697316739 0)
(10.0487171031 0.0818296472403 0)
(10.0416695295 0.0874146819409 0)
(10.032240351 0.0939891123886 0)
(10.0201992596 0.10189653365 0)
(10.005276381 0.111608256325 0)
(9.98718298366 0.12380124097 0)
(9.9656881479 0.139472515049 0)
(9.94080801759 0.160076397538 0)
(9.91348621202 0.187601932311 0)
(9.88378154471 0.223470782461 0)
(10.0082501145 0.033827418726 0)
(10.025218715 0.0481526398774 0)
(10.0378450146 0.0535283930269 0)
(10.0438717777 0.0587191740601 0)
(10.0468706292 0.0640444471359 0)
(10.0482573395 0.0690118288595 0)
(10.0478271543 0.0739301174867 0)
(10.0453928901 0.0791717790889 0)
(10.0409446446 0.0849836991769 0)
(10.0344408539 0.0916031050222 0)
(10.0257634883 0.0993241228355 0)
(10.014758015 0.10852466409 0)
(10.0012680085 0.119702554358 0)
(9.98517559833 0.133533428069 0)
(9.96649358678 0.150939753599 0)
(9.94554149356 0.173134642096 0)
(9.92338252285 0.201553852403 0)
(9.90061067578 0.237126435171 0)
(10.0059263279 0.0288560076447 0)
(10.0193157748 0.0442520925181 0)
(10.0305488675 0.0512990437723 0)
(10.0365203393 0.0572076663908 0)
(10.0395160974 0.0630964324525 0)
(10.0408801733 0.0686834678899 0)
(10.0405580685 0.0742353425586 0)
(10.0383764223 0.0801503738591 0)
(10.0343148166 0.0867227420772 0)
(10.0283547838 0.0942202312757 0)
(10.0204265397 0.102957824561 0)
(10.0104448341 0.113326740589 0)
(9.99835204084 0.125821371755 0)
(9.9841676466 0.141075693942 0)
(9.96807587931 0.159893351079 0)
(9.95056299418 0.183232240163 0)
(9.9326829402 0.21208338048 0)
(9.91515718549 0.246985102293 0)
(10.0042549415 0.0249378024274 0)
(10.0147589337 0.0405995793505 0)
(10.0245377262 0.0490180509434 0)
(10.0303081389 0.0556839313289 0)
(10.0333154803 0.0621656710122 0)
(10.0347127088 0.0684436111103 0)
(10.0345577118 0.0747522902492 0)
(10.0327041466 0.081476444698 0)
(10.029124144 0.0889315419379 0)
(10.0238200238 0.097401603142 0)
(10.016769557 0.107207382811 0)
(10.0079542292 0.118735116384 0)
(9.99740459568 0.13245327238 0)
(9.98525051397 0.14892895169 0)
(9.97179387951 0.168828282184 0)
(9.95760297377 0.192870020112 0)
(9.94366179125 0.221699816663 0)
(9.93071582809 0.255562068614 0)
(10.0030542229 0.0218418110473 0)
(10.0112716868 0.0372756367755 0)
(10.0196455577 0.0467303700869 0)
(10.025102841 0.0541414534004 0)
(10.0281206087 0.0611994096239 0)
(10.0295963088 0.0681177903266 0)
(10.0296555586 0.0751253071614 0)
(10.0281902729 0.0825859446759 0)
(10.0251741736 0.0908295089555 0)
(10.0206300304 0.100154585456 0)
(10.0145807802 0.11088259235 0)
(10.0070692284 0.123384012977 0)
(9.99820042154 0.138086744569 0)
(9.98818665218 0.155476775615 0)
(9.97740126251 0.176079841053 0)
(9.96643485214 0.200404411062 0)
(9.95616629517 0.228833951943 0)
(9.94731322072 0.261403380876 0)
(10.0021974987 0.0193823059363 0)
(10.0086334129 0.0343077186684 0)
(10.0157261041 0.04447242464 0)
(10.0208027395 0.0525637347335 0)
(10.0238272986 0.060174707685 0)
(10.0254309723 0.0676949303294 0)
(10.0257647615 0.075372652658 0)
(10.0247613157 0.0835501489392 0)
(10.02240316 0.092558154992 0)
(10.0187314285 0.102697921601 0)
(10.0138080409 0.114279120177 0)
(10.0077275893 0.12764179999 0)
(10.0006527071 0.143158641873 0)
(9.9928500709 0.161224896111 0)
(9.98472548997 0.182230992994 0)
(9.97685098098 0.206507458951 0)
(9.96998406951 0.23424292458 0)
(9.96482599392 0.265332949173 0)
(10.0015875581 0.0174140017974 0)
(10.0066584052 0.0316991248015 0)
(10.0126385299 0.0422907863805 0)
(10.0173157599 0.0509547867525 0)
(10.0203501825 0.059072552804 0)
(10.0221323938 0.0671384545466 0)
(10.0228045931 0.0754274096223 0)
(10.0223351952 0.0842589742968 0)
(10.0207207033 0.0939517085392 0)
(10.0180187719 0.104798178732 0)
(10.014323084 0.117087134975 0)
(10.009768779 0.131119513012 0)
(10.0045584676 0.147205897023 0)
(9.9989876553 0.165651379583 0)
(9.99346371412 0.186725581119 0)
(9.9885128382 0.210617015207 0)
(9.9847660979 0.237376064483 0)
(9.98290798726 0.266817555695 0)
(10.0011887164 0.0159156559525 0)
(10.0053189759 0.0295646205963 0)
(10.0104483053 0.0403539063025 0)
(10.0147791311 0.0494406941445 0)
(10.0178359221 0.0579734717692 0)
(10.0198297097 0.0664859287635 0)
(10.0208738118 0.0752745767456 0)
(10.0209609069 0.0846395944742 0)
(10.0201019705 0.0948809897645 0)
(10.0183671654 0.106275293572 0)
(10.0158709193 0.11908558384 0)
(10.0127728055 0.133571086715 0)
(10.0092950305 0.149983286765 0)
(10.0057381555 0.168547810983 0)
(10.0024890705 0.189438723944 0)
(10.0000175008 0.212741507735 0)
(9.99884526172 0.238416836928 0)
(9.99965132915 0.266232677817 0)
(10.0008982326 0.0146840635876 0)
(10.0043100694 0.0276793220735 0)
(10.0087432039 0.0384864293917 0)
(10.0127693805 0.0478687331431 0)
(10.0158651608 0.0567444401178 0)
(10.0181050436 0.065634597218 0)
(10.0195663104 0.0748463083659 0)
(10.0202584712 0.0846613693106 0)
(10.0202073368 0.0953558957072 0)
(10.0194942241 0.107183041769 0)
(10.0182483015 0.120374760763 0)
(10.0166453002 0.135146834291 0)
(10.0149160702 0.15169279061 0)
(10.0133545033 0.17016762309 0)
(10.0123166829 0.190665895587 0)
(10.0122105991 0.213195299783 0)
(10.0134510504 0.237653737417 0)
(10.0167156881 0.263782557281 0)
(10.000666965 0.0134858722547 0)
(10.0034924122 0.0257429472278 0)
(10.0073322749 0.0364188007693 0)
(10.0111029106 0.0459956763186 0)
(10.0142933564 0.0551630184827 0)
(10.0168747664 0.0643910674942 0)
(10.0188828473 0.0739818045806 0)
(10.0203357553 0.0841941033367 0)
(10.0212718037 0.0952719469602 0)
(10.0217795284 0.107435108287 0)
(10.0219952291 0.120875720805 0)
(10.0220986517 0.135759528843 0)
(10.0223146347 0.152218090735 0)
(10.0229132283 0.17033767673 0)
(10.0242031586 0.190141533095 0)
(10.0265187804 0.211575864985 0)
(10.030167354 0.234498221351 0)
(10.035832373 0.258652086551 0)
(10.0004990992 0.0123087394433 0)
(10.0028970945 0.0237438236958 0)
(10.0062983242 0.0341104577966 0)
(10.009913769 0.043715025801 0)
(10.0132888466 0.0530498397807 0)
(10.0163317588 0.0625073548373 0)
(10.0190391877 0.0723638761662 0)
(10.0214293235 0.0828466962698 0)
(10.0235474594 0.094159852039 0)
(10.025483567 0.106479933408 0)
(10.0273706864 0.119952290838 0)
(10.0293786662 0.1346875416 0)
(10.0317103412 0.150757489724 0)
(10.0345960986 0.168185245964 0)
(10.0382842068 0.18693769035 0)
(10.0430290346 0.206916976738 0)
(10.0490333495 0.227961077837 0)
(10.0569902492 0.249827160266 0)
(10.0003971645 0.0111038331227 0)
(10.0025449562 0.0216015510352 0)
(10.0057125933 0.0314441750255 0)
(10.0093372868 0.040844880374 0)
(10.0130382069 0.0501425431494 0)
(10.0166964967 0.0596385796505 0)
(10.0202780266 0.069562645531 0)
(10.0237933213 0.0800994534029 0)
(10.0272858241 0.0914053029559 0)
(10.0308379915 0.103606889694 0)
(10.034567103 0.116797733351 0)
(10.0386185805 0.131034826627 0)
(10.0431579564 0.146335786926 0)
(10.0483635643 0.16267431414 0)
(10.0544159587 0.179977767344 0)
(10.0614897025 0.19812596943 0)
(10.0696926974 0.216955456158 0)
(10.079729335 0.236251736017 0)
(10.0003616964 0.00977112195578 0)
(10.0024479535 0.0191395514722 0)
(10.0056292739 0.0281767318697 0)
(10.0094903625 0.037054393513 0)
(10.0137139598 0.0459993247243 0)
(10.018175897 0.0552217536588 0)
(10.0228207367 0.0648895678282 0)
(10.0276450995 0.0751352177275 0)
(10.0326803234 0.0860619424371 0)
(10.0379899794 0.0977442979254 0)
(10.0436637696 0.110224975183 0)
(10.0498093838 0.123514091953 0)
(10.0565444329 0.137586912123 0)
(10.0639883813 0.152384920659 0)
(10.0722540662 0.167815316344 0)
(10.0814429512 0.183755379883 0)
(10.0915836597 0.200056491354 0)
(10.1033922681 0.216542452913 0)
(10.0003908487 0.00814020004644 0)
(10.0026104278 0.0160521969212 0)
(10.0060820428 0.0239006092595 0)
(10.0104544987 0.031837452788 0)
(10.0154398899 0.0400048215783 0)
(10.0209123601 0.0485264672519 0)
(10.0268004744 0.0575015023205 0)
(10.0330823259 0.0670039773508 0)
(10.0397673911 0.0770832351521 0)
(10.0468906093 0.0877637695175 0)
(10.0545049308 0.0990444466091 0)
(10.0626733785 0.110898529755 0)
(10.0714619138 0.123274271786 0)
(10.080932813 0.136096729765 0)
(10.0911386731 0.149270386728 0)
(10.1021214352 0.162683106477 0)
(10.1138500508 0.176211166835 0)
(10.1270511154 0.189717782156 0)
(10.0005009201 0.00589886216722 0)
(10.0030870019 0.0117574595303 0)
(10.0071825933 0.0178236668541 0)
(10.0124018861 0.0242274927588 0)
(10.0184334911 0.0310256116845 0)
(10.0251401256 0.0382528341177 0)
(10.0324365148 0.0459367236431 0)
(10.0402797598 0.0540933872248 0)
(10.048651327 0.0627223952634 0)
(10.0575521583 0.0718066666109 0)
(10.0669956002 0.0813127040818 0)
(10.0770002297 0.0911916576259 0)
(10.0875841068 0.101380174336 0)
(10.0987602235 0.111802658298 0)
(10.110532766 0.122373777354 0)
(10.122898827 0.133001869675 0)
(10.1357852439 0.143592465196 0)
(10.1499203611 0.154047696219 0)
(10.0006829313 0.00336186371465 0)
(10.003814624 0.00689816518119 0)
(10.0087617837 0.0109536431035 0)
(10.0149776945 0.0156173089921 0)
(10.0220724743 0.0208398473343 0)
(10.0298991661 0.0265660304941 0)
(10.038374765 0.0327637954894 0)
(10.0474455617 0.0394046195807 0)
(10.0570732538 0.0464528491336 0)
(10.0672360434 0.0538646954499 0)
(10.0779227074 0.0615902560556 0)
(10.0891253233 0.0695726512737 0)
(10.1008344924 0.0777491341689 0)
(10.1130365241 0.0860515534751 0)
(10.1257112258 0.0944092038174 0)
(10.1388351004 0.1027503236 0)
(10.1523185054 0.11100542565 0)
(10.1668794531 0.119106000955 0)
(10.0008947501 0.00086263554588 0)
(10.0046573123 0.00219809790772 0)
(10.0105236851 0.0044709231795 0)
(10.0176980601 0.00765928948766 0)
(10.0257006949 0.0115547371025 0)
(10.0344072755 0.0160129070124 0)
(10.0437607049 0.0209604175575 0)
(10.0537077342 0.0263386783775 0)
(10.0642004555 0.032086937571 0)
(10.0752075028 0.038144826471 0)
(10.0867070067 0.0444541341051 0)
(10.0986782247 0.0509558589473 0)
(10.1110976042 0.0575898214883 0)
(10.123937922 0.0642943580613 0)
(10.1371671399 0.0710082805537 0)
(10.1507528123 0.0776714888615 0)
(10.1645991748 0.084226990932 0)
(10.1794307017 0.0906196517145 0)
(10.0011994588 -0.00184321295706 0)
(10.0058308773 -0.00272221792254 0)
(10.0128262799 -0.00203872760633 0)
(10.0210097915 -8.77416444747e-05 0)
(10.0298437852 0.00268202383691 0)
(10.0392941419 0.00605094062924 0)
(10.0493548522 0.00992522152684 0)
(10.0599744477 0.0142253582946 0)
(10.0711001137 0.0188717286451 0)
(10.0826996044 0.0237957161114 0)
(10.0947486514 0.0289369681086 0)
(10.1072206168 0.0342386081154 0)
(10.1200843764 0.0396440743264 0)
(10.133305077 0.0450980612706 0)
(10.1468435887 0.0505462922413 0)
(10.160660807 0.0559373476357 0)
(10.1746552372 0.061223118365 0)
(10.1895370067 0.0663603032883 0)
(10.0016756847 -0.00489175131903 0)
(10.007533065 -0.00796450584616 0)
(10.0159089128 -0.00856674225332 0)
(10.0251179585 -0.00757379496256 0)
(10.0346887106 -0.00574212315634 0)
(10.0447755132 -0.00331514706025 0)
(10.055429943 -0.000382022139577 0)
(10.0665957484 0.00295454216172 0)
(10.0782218631 0.00659878719351 0)
(10.0902849919 0.0104779206824 0)
(10.1027628204 0.0145368589371 0)
(10.1156252031 0.0187256073666 0)
(10.1288359645 0.0229967084699 0)
(10.1423551747 0.0273046447422 0)
(10.1561396494 0.0316052665413 0)
(10.1701484178 0.035855247356 0)
(10.18428247 0.0400124414815 0)
(10.1992666728 0.0440363181561 0)
(10.0024059769 -0.0084692745201 0)
(10.0100122795 -0.0135872829349 0)
(10.0200308986 -0.0150086601289 0)
(10.0301996201 -0.0146526697463 0)
(10.0403623044 -0.0135365013337 0)
(10.0509549646 -0.0118159751917 0)
(10.0620654245 -0.00956508485384 0)
(10.0736231047 -0.00691849333346 0)
(10.0855883605 -0.00398715674625 0)
(10.0979508486 -0.000840363494022 0)
(10.110694628 0.0024678388531 0)
(10.1237901076 0.0058891835353 0)
(10.1372018913 0.00937718062719 0)
(10.1508884699 0.0128903577344 0)
(10.1648015878 0.0163909325167 0)
(10.1788925279 0.019841019114 0)
(10.1930526162 0.0232024968143 0)
(10.2079774929 0.0264378742043 0)
(10.0036444731 -0.0128619257044 0)
(10.0137205061 -0.0196153689126 0)
(10.025583206 -0.0212631671661 0)
(10.0365571235 -0.0213308032839 0)
(10.0472001824 -0.0208958492114 0)
(10.0582642438 -0.019914121314 0)
(10.0698030723 -0.0184378463371 0)
(10.0817171203 -0.0166139670868 0)
(10.0939874539 -0.0145413482203 0)
(10.1066235521 -0.0122741591841 0)
(10.1196138788 -0.00985438153338 0)
(10.1329288455 -0.00732142206589 0)
(10.146529383 -0.00470846065892 0)
(10.1603718819 -0.00204698973141 0)
(10.1744063147 0.000631073661759 0)
(10.1885814857 0.0032920665224 0)
(10.2027890254 0.00589559745694 0)
(10.2177521336 0.00838748033023 0)
(10.0055095335 -0.0184253944119 0)
(10.0189721403 -0.0259135350434 0)
(10.0326842024 -0.0270603623979 0)
(10.0441238455 -0.0271415048425 0)
(10.055021247 -0.0268632579449 0)
(10.0663901246 -0.0260138204809 0)
(10.0781926216 -0.0247264877259 0)
(10.0903140335 -0.0231855120072 0)
(10.1027654796 -0.0214782134636 0)
(10.1155707401 -0.0196431588793 0)
(10.1287186328 -0.0177099270195 0)
(10.1421780841 -0.0157048293666 0)
(10.1559109847 -0.0136493221733 0)
(10.1698725447 -0.0115619585248 0)
(10.1840077591 -0.00946019381613 0)
(10.1982529954 -0.00736389680681 0)
(10.2124737692 -0.00530570718623 0)
(10.227317265 -0.0033491466633 0)
(10.0086875812 -0.025654772705 0)
(10.0266411888 -0.0323407369352 0)
(10.0420641136 -0.0330890533831 0)
(10.0538045809 -0.0340583120812 0)
(10.0649996956 -0.0347238312315 0)
(10.0766873612 -0.0346575221117 0)
(10.0887002368 -0.0340912678343 0)
(10.10094776 -0.0332359104387 0)
(10.1134853495 -0.0321757351705 0)
(10.1263523092 -0.0309554744092 0)
(10.1395414139 -0.0296139692838 0)
(10.1530257837 -0.0281822962566 0)
(10.1667714805 -0.0266824078846 0)
(10.1807365415 -0.0251293501479 0)
(10.194867221 -0.023532319816 0)
(10.2090956179 -0.0218950632932 0)
(10.2232667125 -0.0202287992639 0)
(10.2379853536 -0.0186002314634 0)
(10.012986729 -0.0350307666839 0)
(10.0361746762 -0.0369144994278 0)
(10.0520561368 -0.0348322496083 0)
(10.0631917689 -0.0349938881912 0)
(10.0740552069 -0.0353835973571 0)
(10.0853498496 -0.0353378831314 0)
(10.0967420178 -0.0350395289772 0)
(10.1081845209 -0.0346081241285 0)
(10.1197777292 -0.0340606268799 0)
(10.1315800068 -0.0334058071922 0)
(10.1436001485 -0.0326605186424 0)
(10.155830028 -0.031839538201 0)
(10.1682547744 -0.0309525135148 0)
(10.1808513497 -0.030003891769 0)
(10.1935860395 -0.0289889819599 0)
(10.2064073767 -0.0278824676638 0)
(10.2191471426 -0.0266271285971 0)
(10.2321539493 -0.0251321576946 0)
(10.0164861553 -0.0491612800117 0)
(10.0405633351 -0.050445132371 0)
(10.0477399493 -0.0481697662949 0)
(10.0475794737 -0.0479673217985 0)
(10.0461696989 -0.0478082877144 0)
(10.044116749 -0.0472943245612 0)
(10.04124495 -0.0466355630164 0)
(10.0377869367 -0.0459271529372 0)
(10.0340689955 -0.0451792435361 0)
(10.0303215128 -0.0443970961332 0)
(10.0266961681 -0.043590201061 0)
(10.0233063845 -0.0427649807876 0)
(10.0202386774 -0.0419238097074 0)
(10.017556286 -0.0410650630116 0)
(10.0153078331 -0.040178025399 0)
(10.0135408243 -0.0392228119308 0)
(10.0122441338 -0.0380875506132 0)
(10.0115446976 -0.036087653964 0)
(9.85295411412 -0.0291604030943 0)
(9.7243659287 -0.0314099553384 0)
(9.58113850407 -0.0314455472798 0)
(9.43970423426 -0.0319443894756 0)
(9.30637875293 -0.0321541370498 0)
(9.18074558595 -0.0320304596825 0)
(9.06190021634 -0.0317279199821 0)
(8.94953296255 -0.0313256273861 0)
(8.84347489673 -0.0308558411954 0)
(8.74348931608 -0.0303406534764 0)
(8.64929718115 -0.0297976880923 0)
(8.56061765332 -0.0292390119063 0)
(8.47717604069 -0.0286722885257 0)
(8.39870449036 -0.0281016592828 0)
(8.32495201817 -0.0275260900591 0)
(8.25570429982 -0.0269281020481 0)
(8.19100886392 -0.0262420438037 0)
(8.12940697372 -0.0248079314872 0)
(0.00544905268613 -0.133773270921 2.73973043849e-20)
(0.0842888139483 -0.154695569832 0)
(-0.133628133844 0.186631830179 0)
(-0.32106143909 0.267652555143 0)
(-0.513969677864 0.281536428593 0)
(-0.727387268269 0.286280084948 -6.82720542045e-21)
(-0.954643466959 0.288778904852 0)
(-1.19155139308 0.28980905111 0)
(-1.43555547951 0.289542035943 7.68664507892e-21)
(-1.68482179511 0.288083001529 0)
(-1.93777969183 0.2855224825 -9.05721019724e-21)
(-2.19302820622 0.28194439154 0)
(-2.44928329814 0.277429829759 -1.06391664281e-20)
(-2.70535422137 0.272057372453 -1.14650965186e-20)
(-2.96012850334 0.265904331553 0)
(-3.21256647834 0.25904654896 1.31348247234e-20)
(-3.46169744626 0.251559373173 1.39640440862e-20)
(-3.70661980592 0.243517340868 1.47819242041e-20)
(-3.946501229 0.234994910817 0)
(-4.18058068542 0.226066045672 0)
(-4.40817024654 0.216804765236 0)
(-4.62865773989 0.207284705065 0)
(-4.84150910706 0.197579538779 0)
(-5.04627107324 0.187762460384 0)
(-5.242573566 0.177906394738 -1.98920586584e-20)
(-5.43013186985 0.168083286801 -2.05084499987e-20)
(-5.60874829064 0.158363907229 0)
(-5.77831289284 0.148816759073 2.16470156058e-20)
(-5.93880313677 0.139507373515 2.21694454065e-20)
(-6.09028187415 0.13049676386 2.26612785328e-20)
(-6.23289364807 0.121840251539 0)
(-6.36685872137 0.113585666368 0)
(-6.49246497279 0.105772060145 -2.39614808827e-20)
(-6.61005744012 0.0984280918915 0)
(-6.72002597463 0.0915711495423 0)
(-6.82279118776 0.0852064605922 -2.50200296381e-20)
(-6.91878940829 0.0793271503614 0)
(-7.00845727201 0.0739144693595 0)
(-7.09221686295 0.0689390476263 0)
(-7.17046218851 0.0643623243314 0)
(-7.24354781599 0.0601388672139 0)
(-7.31178030971 0.0562186473203 5.30319497166e-20)
(-7.37541292083 0.0525499350257 0)
(-7.43464399984 0.0490817817683 0)
(-7.48961891967 0.0457667338695 5.39888247044e-20)
(-7.54043536245 0.0425627507266 5.42371497499e-20)
(-7.58715105851 0.0394348606506 0)
(-7.62979366801 0.0363561296301 0)
(-7.66837238096 0.0333081970415 5.47908915052e-20)
(-7.70288877287 0.0302802669484 0)
(-7.73334655026 0.0272678839355 -5.50146685307e-20)
(-7.75975903509 0.024270731986 0)
(-7.78215575007 0.0212923587683 5.51314859714e-20)
(-7.80058679192 0.0183387098361 0)
(-7.81511936289 0.015416415902 5.51430920151e-20)
(-7.82583465323 0.0125344725734 5.5107632462e-20)
(-7.83283100488 0.00972060899048 0)
(-7.83623505073 0.00701734598887 0)
(-7.83619475078 0.00446607584544 0)
(-7.83288906975 0.0020930720097 5.45793230009e-20)
(-7.82649609046 -9.45788760749e-05 0)
(-7.81717991291 -0.00210415193234 0)
(-7.80508588603 -0.00394740640604 0)
(-7.79034308662 -0.00564083748875 0)
(-7.77306763819 -0.00720255046519 0)
(-7.75336618829 -0.00864694863052 0)
(-7.73134213746 -0.0099828185947 0)
(-7.70710369162 -0.0112152195338 -5.18556483549e-20)
(-7.68077058487 -0.0123440889745 0)
(-7.65247875715 -0.0133657613781 -5.08495159555e-20)
(-7.62238259756 -0.0142735136827 -5.03065642306e-20)
(-7.5906540462 -0.0150601881264 0)
(-7.55747870869 -0.0157193990062 4.91514616582e-20)
(-7.52304941926 -0.0162482736807 0)
(-7.48755823493 -0.0166481049138 -4.79171179755e-20)
(-7.45118807368 -0.01692621229 0)
(-7.41410545865 -0.0170953140331 4.66178344428e-20)
(-7.37645513123 -0.0171739724167 -4.59483535208e-20)
(-7.33835736269 -0.0171844067833 0)
(-7.29990739974 -0.0171514575496 0)
(-7.26117702627 -0.0170992159417 0)
(-7.22221807827 -0.0170494302403 0)
(-7.18306718814 -0.0170179698875 -4.2491669397e-20)
(-7.14374981221 -0.0170140688512 4.17956275118e-20)
(-7.10428257055 -0.0170388210715 -8.22054542294e-20)
(-7.06467440551 -0.0170879509648 -8.08273187563e-20)
(-7.02492689062 -0.0171540294873 -7.94562166413e-20)
(-6.98503068911 -0.0172333418076 0)
(-6.94495812958 -0.0173315502474 0)
(-6.90464758296 -0.017470462175 0)
(-6.86398617235 -0.0176930814219 -7.39372233464e-20)
(-6.82278215619 -0.0180616257036 0)
(-6.78073323305 -0.0186567585783 0)
(-6.73739197526 -0.0195691042945 -6.9413519709e-20)
(-6.6921255117 -0.0208930792154 0)
(-6.64407333084 -0.022720929983 6.58819646184e-20)
(-6.59210988327 -0.0251429161475 0)
(-6.53482039056 -0.0282487822768 -6.15979196543e-20)
(-6.47049746965 -0.0321317039941 0)
(-6.39717065046 -0.036885020993 0)
(-6.31267371813 -0.0425888717632 0)
(-6.21474714253 -0.0492865784198 -4.89669432667e-20)
(-6.1011541525 -0.0569605239682 0)
(-5.96980242485 -0.065520622745 -3.94312933744e-20)
(-5.81886025422 -0.0748038854757 -3.355928413e-20)
(-5.64688639764 -0.0845905102502 0)
(-5.45297947408 -0.0946160586889 0)
(-5.23690423339 -0.104612257179 0)
(-4.99912824454 -0.114332311858 -5.61562104331e-22)
(-4.74074635283 -0.123551619096 0)
(-4.46339616812 -0.131918503178 0)
(-4.16900497801 -0.139103798329 3.72619555314e-20)
(-3.85990687613 -0.144935158184 5.32622425863e-20)
(-3.53879756018 -0.14921845446 0)
(-3.20856235526 -0.151782017138 -9.23567792493e-20)
(-2.87219501639 -0.152241602321 -1.16628724198e-19)
(-2.53210545981 -0.150869275563 1.45349264634e-19)
(-2.19107636154 -0.148345428716 0)
(-1.85230736234 -0.145210738235 0)
(-1.51850639382 -0.142420223935 0)
(-1.19118967517 -0.142989390545 -3.56670612817e-19)
(-0.876281224991 -0.147744457014 0)
(-0.569810745007 -0.156008801431 -6.52376333398e-19)
(-0.271831980177 -0.173167282807 0)
(0.0165799186627 -0.188410641112 0)
(0.320643526522 -0.164638414768 0)
(0.534792600238 -0.135474193763 8.76773880028e-19)
(0.74755694982 -0.111863163483 6.58673655481e-19)
(0.950081202433 -0.0938525617923 0)
(1.13650192814 -0.0797347118889 0)
(1.30515684333 -0.0681423169578 0)
(1.45615465324 -0.0582142371038 0)
(1.59013563509 -0.0494449402602 0)
(1.70784261796 -0.0415413405657 0)
(1.81000737881 -0.0343337960161 5.87235128127e-19)
(1.8973387568 -0.0277233985456 0)
(1.97053252824 -0.0216503009301 0)
(2.03028604736 -0.0160737128432 0)
(2.07730975007 -0.0109656405272 -5.0403287028e-19)
(2.11233606085 -0.00631559179485 -4.9391333734e-19)
(2.13614966413 -0.00214014995052 4.86875978744e-19)
(2.14959936643 0.00144510000512 4.8247257107e-19)
(2.15436012892 0.00431138768473 0)
(2.15206898021 0.00660083470365 0)
(2.14296651539 0.00855426974866 0)
(2.12750208532 0.0102479519382 4.80450491883e-19)
(2.10630490566 0.0116994835288 0)
(2.08007133492 0.0129218726276 0)
(2.04947511356 0.0139315381124 -4.97155105304e-19)
(2.01513347453 0.0147445430871 0)
(1.97760738047 0.0153766366327 -5.15667652213e-19)
(1.93741265776 0.0158423064545 0)
(1.89502821683 0.0161557290526 -5.3943446365e-19)
(1.85090156215 0.0163301425434 0)
(1.80545027769 0.0163784716813 0)
(1.75906353583 0.0163130027055 0)
(1.71210163057 0.016145621967 0)
(1.66489697003 0.0158875957399 0)
(1.61775317688 0.0155494996215 0)
(1.57094619858 0.0151419133566 0)
(1.52472394326 0.0146749706023 0)
(1.47930745914 0.0141586551456 -7.01594716002e-19)
(1.43488944829 0.0136020360306 0)
(1.39163510929 0.0130147194921 0)
(1.34968113075 0.0124057505641 -7.71625871379e-19)
(1.30913568573 0.0117846519108 0)
(1.27007568743 0.0111601560493 0)
(1.23254556943 0.0105422586581 -8.46755980532e-19)
(1.1965539791 0.00994089335462 0)
(1.16207065501 0.00936722462226 0)
(1.12901924281 0.00883241941075 -9.25216658476e-19)
(1.09726965856 0.00835105447224 9.51981021477e-19)
(1.06662594084 0.00794001586727 -9.79130493981e-19)
(1.03680914535 0.00762175665649 0)
(1.00742832241 0.00742508864003 0)
(0.977931880146 0.00739424252117 -2.13021135217e-18)
(0.947564893207 0.00759502398538 0)
(0.914745962969 0.00820934057974 2.26348471937e-18)
(0.883385077164 0.00902866681589 2.34372352298e-18)
(0.764262256609 0.0145482382091 0)
(-0.181088733908 0.187703694188 -2.88695808133e-20)
(-0.353497927618 0.386024364604 0)
(-0.515518785813 0.488984197383 8.65668962735e-21)
(-0.709003197289 0.57197801262 -8.20938300243e-21)
(-0.910041508868 0.626080073577 -8.41316186146e-21)
(-1.12542162624 0.664565634869 3.87133622069e-21)
(-1.35362356742 0.692652070762 9.87333855117e-21)
(-1.59197980196 0.712974858154 0)
(-1.83791697825 0.727060574724 -5.40886345634e-21)
(-2.08932648863 0.735880156735 1.36311766284e-20)
(-2.34440928005 0.740098097474 2.19738388481e-20)
(-2.60158854661 0.740203902353 -1.66822136022e-20)
(-2.85944684558 0.736586156882 2.67430944213e-20)
(-3.11669110516 0.72957389498 9.28154650948e-21)
(-3.3721307171 0.719461862013 0)
(-3.62466615044 0.706524651676 -1.09651093176e-20)
(-3.87328213797 0.691026051081 -1.1806254998e-20)
(-4.1170450709 0.673223610381 -1.26402669879e-20)
(-4.35510178807 0.653372013613 2.81580572152e-20)
(-4.58668002465 0.631723987166 0)
(-4.81108919506 0.608531373964 3.12795095462e-20)
(-5.02772184 0.584044781044 0)
(-5.23605514583 0.558513876028 -3.4224788525e-20)
(-5.43565269106 0.532186607422 0)
(-5.62616617837 0.505309052129 5.49473984117e-20)
(-5.80733702186 0.478124135055 -1.95936396282e-20)
(-5.97899755383 0.450870611409 -3.94701343208e-20)
(-6.1410713504 0.423780718375 -6.0532035137e-20)
(-6.29357243641 0.39707772889 -2.04739721555e-20)
(-6.43660276735 0.370972091214 -2.10233682039e-20)
(-6.57034771828 0.345657466116 0)
(-6.695069065 0.321305725426 -4.47238649142e-20)
(-6.81109545881 0.298062344784 2.25015054209e-20)
(-6.91881041395 0.276041562549 0)
(-7.01863814227 0.255322792183 0)
(-7.11102774033 0.235947799126 2.37384539062e-20)
(-7.19643658554 0.217919939795 0)
(-7.27531355251 0.201204848283 0)
(-7.34808414361 0.185733579045 0)
(-7.41513679416 0.171407279823 0)
(-7.47681277606 0.158103999262 0)
(-7.53339875982 0.145686352071 5.17373199781e-20)
(-7.58512470058 0.134010366035 1.03776100532e-19)
(-7.63216751591 0.122934055826 0)
(-7.67465412993 0.112326018118 5.29136261598e-20)
(-7.71267139645 0.102071874942 -5.28022728225e-20)
(-7.7462692536 0.0920806509814 0)
(-7.77549338279 0.0822879889224 0)
(-7.80038657968 0.0726570155898 -1.61512669717e-19)
(-7.82099693739 0.0631762205074 -1.08283026892e-19)
(-7.8373866963 0.0538554488801 5.41865501772e-20)
(-7.84960600925 0.0447240044681 1.09107221171e-19)
(-7.8578142295 0.0358245229724 5.4887364556e-20)
(-7.8621463943 0.0272004221782 0)
(-7.86273125202 0.01889916598 -1.64809063729e-19)
(-7.85966207095 0.0109967631741 -5.48803482338e-20)
(-7.85359438847 0.00357395273417 0)
(-7.84483288857 -0.00333352631275 1.09950231777e-19)
(-7.83345452168 -0.00973137255354 -1.09758573604e-19)
(-7.81952452319 -0.0156550988264 -5.46093753029e-20)
(-7.80309471785 -0.0211530707762 0)
(-7.78418597506 -0.0262726656921 0)
(-7.76280113115 -0.0310590332594 0)
(-7.73894574815 -0.0355556255392 1.07659696887e-19)
(-7.71263062051 -0.039794115254 0)
(-7.68387979769 -0.0437907681929 -1.06295676768e-19)
(-7.65274516225 -0.0475476759109 0)
(-7.6193107155 -0.0510533039308 -5.24166887173e-20)
(-7.58369154074 -0.0542843827357 0)
(-7.5460318775 -0.0572113478138 -5.14694109716e-20)
(-7.50649905669 -0.0598027937822 -5.09579843599e-20)
(-7.46527461872 -0.0620323243457 0)
(-7.42254378842 -0.0638828835724 -4.97769480843e-20)
(-7.37848471227 -0.0653521121729 0)
(-7.33325933964 -0.0664536919764 4.86445288062e-20)