/*--------------------------------*- C++ -*----------------------------------*\
| =========                 |                                                 |
| \\      /  F ield         | OpenFOAM: The Open Source CFD Toolbox           |
|  \\    /   O peration     | Version:  v1806                                 |
|   \\  /    A nd           | Web:      www.OpenFOAM.com                      |
|    \\/     M anipulation  |                                                 |
\*---------------------------------------------------------------------------*/
FoamFile
{
    version     2.0;
    format      ascii;
    class       volScalarField;
    location    "9";
    object      alpha;
}
// * * * * * * * * * * * * * * * * * * * * * * * * * * * * * * * * * * * * * //

dimensions      [0 0 -1 0 0 0 0];


internalField   nonuniform List<scalar> 
12225
(
0.393868367311
0.339585452728
0.355850939358
0.356916497774
0.368196803096
0.372666608768
0.37861945672
0.382805697424
0.385129629705
0.384416730491
0.379176725412
0.370719654604
0.363770995041
0.352112008597
0.329779708704
0.302368919777
0.268657332915
0.23901149656
0.244815667904
0.289816841947
0.323746096289
0.318629033971
0.328094263089
0.330802207811
0.334997933344
0.337844038139
0.339690148979
0.33983484888
0.336928175762
0.331170009993
0.325075193783
0.316013325029
0.3001928539
0.280905799646
0.260521585537
0.258174581252
0.358409967676
0.312682875483
0.325850154541
0.325488734814
0.33465431607
0.338165595239
0.342739095284
0.345925868057
0.348164673328
0.348945102101
0.347566285899
0.343894838501
0.338484750343
0.330043489679
0.316855580023
0.301433622923
0.288016601717
0.292975472646
0.328506369654
0.297657817007
0.323500246603
0.31790869772
0.326625964907
0.328573246717
0.331965847048
0.334143454257
0.335682602054
0.336147601147
0.335183676171
0.33261028495
0.328352278421
0.321729864753
0.312285550012
0.302285987508
0.296357780662
0.304992833294
0.339044542217
0.298288541526
0.321490557019
0.315118422298
0.322866632088
0.323834739539
0.326287804325
0.327517585306
0.328119955623
0.327759692815
0.326280327699
0.323586371289
0.31952172371
0.313844307886
0.306863139906
0.300758835865
0.299522815412
0.308793871208
0.338108771378
0.295007188869
0.318886524864
0.311122986575
0.318301738287
0.318503449727
0.320343842018
0.320989114939
0.321059501203
0.320287525322
0.318610676993
0.316001182404
0.312377176284
0.307787232702
0.302922687949
0.299769325973
0.301264844522
0.3100445023
0.338006600261
0.293233259525
0.316583951705
0.307842265096
0.314419857766
0.313960413886
0.315284732794
0.315469800851
0.315167037943
0.314158192444
0.312438508849
0.310032308226
0.306976039469
0.303496946048
0.300419697347
0.299398475132
0.3023876448
0.310443049652
0.337420583819
0.291944523986
0.314642412514
0.305131488289
0.311161773568
0.310153533547
0.311062914087
0.310903427136
0.310376590806
0.309284733691
0.307651978836
0.305547672461
0.303112482527
0.300672301512
0.299048481417
0.299512397211
0.303282151554
0.310596620888
0.336831493077
0.291198301924
0.313112376716
0.303024769467
0.308549974363
0.307073147473
0.307639347806
0.307233957742
0.306599508636
0.305534048836
0.304076876409
0.302344383076
0.300547759256
0.299051510756
0.298576244548
0.300067566555
0.304205273009
0.310888580766
0.336435551508
0.290926125706
0.312103463501
0.301593704163
0.3066891449
0.30482710487
0.305137704499
0.304580604622
0.30391177021
0.302924134666
0.301692953264
0.300377667984
0.299222384697
0.298568355699
0.298997969665
0.301177111257
0.305444467982
0.311528799406
0.336900739523
0.29089703061
0.311900106505
0.30100534746
0.305853479829
0.303765187275
0.303977568698
0.303372299274
0.302730673748
0.301874672789
0.300915460187
0.300011926366
0.299398139131
0.299362147805
0.300357363133
0.302832415359
0.306913690107
0.312313871583
0.341062315134
0.291059533488
0.313436078286
0.30194706923
0.306850674085
0.304654873342
0.304835679982
0.304213995129
0.303647307143
0.302930026496
0.302116171904
0.301380638586
0.300960951574
0.301127690217
0.302227330979
0.304570602667
0.308208170477
0.312861218895
0.344437693866
0.291767304878
0.314946003459
0.303038999057
0.307763268048
0.305391048047
0.305461665803
0.30475105921
0.304081747825
0.303270396338
0.302427533566
0.301729664912
0.301442649427
0.301758820861
0.302965124036
0.305246647239
0.308569451178
0.312688771038
0.348476415511
0.29263167067
0.316638922151
0.304194738381
0.30869988823
0.305972479768
0.305730889819
0.304791217705
0.303998628896
0.30316754683
0.302413914912
0.301925897843
0.301932249131
0.302564058605
0.303969324466
0.30626097783
0.309302723695
0.312962615056
0.353690720848
0.293572493215
0.318751755805
0.305590339329
0.309866490717
0.306719975454
0.306123588338
0.304914436471
0.303979499352
0.303167980043
0.30256083724
0.302353777713
0.302714648393
0.303655830407
0.305247705911
0.307510994211
0.310298653282
0.313484620584
0.359127119676
0.294576294633
0.321151039106
0.307287894369
0.311437531877
0.307929624409
0.307065808947
0.305655028092
0.304650273526
0.303868683617
0.303432423903
0.303453055292
0.304082304819
0.30521203707
0.306878611994
0.309031324344
0.311544165505
0.314331663481
0.364003721081
0.295480327928
0.323566587052
0.309137440813
0.313308087123
0.309581600946
0.308599078038
0.307117440835
0.3061233745
0.30543957389
0.305131206866
0.305320653605
0.306085443666
0.307292329356
0.308910962456
0.310912719439
0.313138653418
0.315601112457
0.368557437516
0.296170218813
0.325845464906
0.310962865841
0.315295108296
0.311495514179
0.310539703588
0.309085900247
0.308166511667
0.307584300087
0.30738607165
0.307676655553
0.308500926309
0.309695847378
0.311220838297
0.313052311609
0.315035836098
0.317213289594
0.371013763079
0.296271229819
0.327031923282
0.311980083531
0.31658481826
0.312920094542
0.312175340601
0.310912085821
0.31019276956
0.309800431304
0.309767016426
0.310176349583
0.31106046721
0.312242670658
0.313689545916
0.315389256546
0.317197679158
0.319164309617
0.365658894694
0.295602270881
0.325457757336
0.311237178603
0.316308355102
0.313292085665
0.313167555705
0.312536850615
0.312387687574
0.312502487103
0.312883981977
0.313599643622
0.314685709648
0.315979435437
0.317452212639
0.319101800373
0.320798808884
0.322582670404
0.361555043265
0.294585913052
0.323624933036
0.310008785002
0.315438568141
0.312939893417
0.313305761102
0.31313331877
0.313420659042
0.313894862474
0.314566623941
0.315480401104
0.316705869639
0.318056738495
0.319542628397
0.321142274364
0.322767797071
0.324433018665
0.358296877586
0.293507009032
0.321876722663
0.308774225798
0.314488982422
0.31244190875
0.313207318547
0.313433293364
0.314062228016
0.314825559361
0.315734085015
0.316809040553
0.318133061503
0.319542626611
0.32103535782
0.322613444815
0.324183715467
0.325792501381
0.35468958566
0.292306848843
0.320100587457
0.307486510905
0.31348368019
0.311875436894
0.313024636528
0.313615013357
0.314560903436
0.315603257687
0.316709809946
0.317946472088
0.319377873542
0.320861183774
0.322371214863
0.323957630051
0.325502768377
0.327065096418
0.351144934696
0.291131116568
0.318247453576
0.306205153316
0.312484802317
0.311297912869
0.312809366525
0.313750877593
0.314987862827
0.316263889337
0.317570370651
0.318946350987
0.320477284507
0.322016572462
0.323581955233
0.325185917448
0.326748927475
0.328270163006
0.346636082351
0.289665110996
0.316487142484
0.305040298528
0.311565483174
0.310814859484
0.31266772882
0.313911112296
0.31541442029
0.316921738835
0.318418308791
0.31992706374
0.321564039657
0.323186664992
0.324803634813
0.326471098192
0.328108003989
0.329732732264
0.346475621332
0.289918604523
0.313627532363
0.303337135728
0.309912569864
0.309540545593
0.311624455358
0.313115862248
0.314827451237
0.316526422453
0.318170108256
0.319782332108
0.321472952533
0.323138011971
0.324783415146
0.326450821766
0.328077366142
0.329480476752
0.321241880437
0.283692145866
0.312378424481
0.30204543446
0.309097588676
0.309185168049
0.311636857403
0.313469359662
0.315507246792
0.317540604727
0.319547721681
0.321398827376
0.323271122115
0.325132493903
0.326940106131
0.328789721981
0.330671062254
0.332787716812
0.377048402953
0.296824529008
0.302066422114
0.297430129985
0.303256988544
0.303734391346
0.305986549977
0.307628545913
0.309388390016
0.311132257006
0.312726688669
0.314201150594
0.315741587734
0.317265207453
0.318765144966
0.320387122958
0.322100329978
0.323369461238
0.193560723142
0.267385536786
0.299462945059
0.290800928558
0.297692420483
0.298470388852
0.301423200499
0.303997990399
0.306958650179
0.310155977453
0.31348596954
0.316596724865
0.319743772885
0.323013339665
0.326316238456
0.329660324534
0.333078492346
0.336415609266
0.334135800077
0.307063392535
0.309474147741
0.308220501898
0.315445423594
0.316303690683
0.318713233809
0.320556436973
0.322435309353
0.32407437256
0.325376169833
0.326586203073
0.327858012733
0.328805986275
0.329431144225
0.329935663626
0.330167744208
0.330866397846
0.476039259524
0.476399556882
0.476577628515
0.476548987047
0.47634060547
0.475999065574
0.475594694425
0.475167171263
0.474743238544
0.474340538943
0.473970326271
0.473639093258
0.473350057396
0.473104130078
0.47290062129
0.472737565833
0.47261240024
0.472521666957
0.472462113213
0.472430553357
0.472423468089
0.472438412323
0.472471867964
0.472522942553
0.472589469694
0.472671763227
0.472768002795
0.472878385577
0.473002060674
0.473139772096
0.47329106663
0.473456379771
0.473635126583
0.473828014844
0.474034648136
0.474254776129
0.474487165266
0.474732413025
0.474989236133
0.475257459477
0.47553566348
0.475823006847
0.476117813659
0.476418401038
0.476722727154
0.477028311208
0.47733269934
0.477632964494
0.477926072216
0.478209334811
0.478480197761
0.478737629253
0.478978816312
0.479199954909
0.479396063854
0.479562346326
0.479693784445
0.479785307936
0.479831789129
0.479828353574
0.479771509089
0.479660715404
0.479496057624
0.479277299389
0.479005186881
0.478681371896
0.478306997075
0.477883567699
0.477413818206
0.476900293901
0.476347059808
0.475757999374
0.475137989291
0.474491496398
0.473823558574
0.473138528857
0.472440925698
0.471735676632
0.471027058945
0.470318016694
0.469610971176
0.46890934238
0.468215406174
0.467531782971
0.466857705917
0.466195809949
0.465545913049
0.464902361129
0.464268640323
0.463642206883
0.463023406472
0.462411936304
0.461805902414
0.461232261937
0.460706498479
0.460191720522
0.459656340705
0.459115626307
0.458574531985
0.45804115522
0.457408042762
0.456689621017
0.456707249915
0.456829224505
0.45679277946
0.456535206649
0.456060904485
0.455838678008
0.455529729436
0.455251278642
0.455011759666
0.4548057129
0.454623261902
0.45445828534
0.454306428919
0.45416479074
0.454030522564
0.453900555365
0.453774137143
0.453652394375
0.453538763945
0.453434569181
0.453338570128
0.453249737786
0.453165242221
0.453083816037
0.453004728138
0.452927611017
0.45285220678
0.452778313123
0.452705655877
0.452634079909
0.452563478686
0.452493980763
0.452425655091
0.452358742102
0.452293383978
0.452229328096
0.452167153871
0.452107168543
0.45205132335
0.451998338215
0.451949101645
0.451905129506
0.45186811852
0.451839864746
0.451821449661
0.45181366732
0.451817235558
0.451832712196
0.451861162456
0.451904066654
0.451963130905
0.452040041659
0.452136658715
0.452254879804
0.452396867381
0.452564954373
0.452762239725
0.452992238134
0.453260281646
0.453571951464
0.453935351378
0.454361597678
0.454865951007
0.455465147744
0.456179847872
0.457026265595
0.458017342408
0.45917573656
0.460514599131
0.462030991106
0.46370796652
0.465506156999
0.467367130746
0.469346029908
0.471389026444
0.473414351641
0.475309862879
0.476753452447
0.476127753251
0.476387852253
0.476316659145
0.476032699171
0.475673527072
0.475301725465
0.474941944367
0.474606583943
0.474300322755
0.474024901299
0.473780254573
0.4735666909
0.473383145041
0.473229036431
0.473102797624
0.473003075801
0.47292779471
0.472874895838
0.472841658852
0.472826355812
0.472826241592
0.472839754891
0.472864382216
0.472899830302
0.472944584031
0.472999438205
0.473063423435
0.473137347729
0.473221287425
0.473316505649
0.473423033468
0.473541816791
0.473673307036
0.473818601915
0.47397728196
0.474149998984
0.474336375811
0.474536639685
0.474750256474
0.47497730889
0.475216839639
0.475468082395
0.475729632333
0.475999814236
0.476276520446
0.476557148906
0.476838564937
0.47711742555
0.477389432923
0.477649829806
0.477891434658
0.47810965365
0.478302022067
0.478466034423
0.478598321287
0.478695603515
0.478754692563
0.478770539394
0.478737906864
0.478655314504
0.478521809043
0.478335579787
0.478096465459
0.477806093994
0.477465213845
0.477075380277
0.476638687131
0.476156986918
0.475632264764
0.475066251965
0.474461204432
0.473819290039
0.473143623079
0.472437355953
0.471704153961
0.470948167244
0.470174099876
0.469386928475
0.468592006294
0.467793325227
0.466994173298
0.466198634646
0.465411251822
0.464634170268
0.4638659715
0.463111908307
0.462378606628
0.461655781014
0.460922138143
0.460194936347
0.459502700231
0.458810435279
0.458075572912
0.457324792584
0.456640867029
0.456029332948
0.455382756046
0.454880530805
0.454377799058
0.453835070113
0.453310282887
0.452655740355
0.452221027949
0.451750514925
0.451334343824
0.450897278489
0.450654514342
0.450514076907
0.450395896825
0.450251813046
0.450079522011
0.449898809835
0.449712951036
0.449524511142
0.44933393142
0.449141304107
0.448945520155
0.448745061865
0.448539592173
0.448332124962
0.448126744367
0.447925527141
0.447728823956
0.447535237635
0.447343129354
0.447151845836
0.446960959753
0.446770249146
0.446579551265
0.446388854397
0.446198063579
0.446007138786
0.445816014482
0.445624678749
0.445432929443
0.445240461936
0.445046575637
0.444850353795
0.444651030367
0.444448931058
0.444244305725
0.444035890022
0.443823230467
0.443606539755
0.44338664835
0.443163973848
0.442938160325
0.442708319865
0.442473354691
0.442232366215
0.441984421063
0.441728546203
0.441463800748
0.441189699024
0.440906601863
0.440615538991
0.440318459367
0.440017982673
0.4397177514
0.43942127244
0.439133547339
0.438860205176
0.438606561807
0.438376728016
0.438174460843
0.438002752356
0.437857815376
0.437747207206
0.437669785806
0.437623828535
0.437610903864
0.437638437833
0.4377167497
0.437849575498
0.438105088778
0.438390087249
0.438721384072
0.439085242775
0.439437748559
0.43980248263
0.475795991455
0.475892495085
0.475847979355
0.475696046949
0.475525512952
0.475377407372
0.475248246758
0.475131105825
0.47501973587
0.474911834837
0.474806798848
0.474705747067
0.474610204633
0.474522065259
0.474442772472
0.474373595405
0.47431508295
0.474267614795
0.474230807377
0.474204261775
0.474187053777
0.474179165747
0.474179018119
0.474186951976
0.474202483401
0.474226300818
0.474258097505
0.474299031943
0.474349371412
0.474410333299
0.474482303045
0.474566562045
0.474663284547
0.474773366808
0.474896963158
0.475034470532
0.475185349196
0.47535008743
0.475528086802
0.475719074736
0.475922203928
0.476136557295
0.476360747967
0.476593095102
0.476831535337
0.47707366696
0.477316584055
0.477557134706
0.477791737999
0.478016527309
0.47822585332
0.478413820638
0.478573973567
0.478702233248
0.478795509766
0.478851374041
0.478867846767
0.478845282162
0.478784804772
0.478685030326
0.478543394684
0.478357610648
0.478123446803
0.477836708277
0.477494074179
0.477092340265
0.476629825694
0.476106485833
0.475524201724
0.474886073708
0.474196805447
0.473462056498
0.472688358401
0.471882637464
0.471051960608
0.470203331578
0.469343445513
0.468478735249
0.467615105421
0.466757993862
0.465910061892
0.46507456017
0.46425608366
0.463457463297
0.462674950172
0.461907063317
0.461167847221
0.460460383943
0.459760689738
0.459058385582
0.458386353415
0.457770619624
0.457134901438
0.456502062069
0.455904884444
0.455337621126
0.454820893499
0.454447997689
0.453996129292
0.453360870197
0.452656272852
0.452194736721
0.452011184318
0.451810883862
0.451706816135
0.451532303371
0.451230259439
0.450796959039
0.450373370522
0.450002221503
0.44966616754
0.449359167974
0.449072444153
0.448801251517
0.448541860602
0.448291576018
0.448047659252
0.447807888975
0.447571601435
0.447341069303
0.447118680196
0.446905008541
0.446698763052
0.446497778985
0.446301011171
0.446107836712
0.445917854375
0.445730757659
0.445546184916
0.445363732934
0.445182983488
0.445003579392
0.444825269887
0.444647827974
0.444470995396
0.444294379965
0.44411745642
0.4439399494
0.443761920448
0.443584787129
0.443408877904
0.443233405529
0.443057294048
0.442880966199
0.442706024874
0.442533812158
0.442365035107
0.442199812458
0.442038279303
0.441880566627
0.441726875807
0.441577199405
0.44143169257
0.441290280909
0.441152594898
0.441017942801
0.440885449056
0.440753818088
0.440621606724
0.440486973667
0.440348106133
0.440203256793
0.440050696387
0.439888526547
0.439715249999
0.439529126177
0.439327138552
0.439108511436
0.438876341636
0.43863374701
0.438386249336
0.438144964732
0.437923551169
0.437747922965
0.437644655657
0.437629746745
0.437716796538
0.4379034154
0.438139293459
0.438278518183
0.475341413112
0.475435893382
0.475638447801
0.475713245088
0.475725865737
0.475732411916
0.475729048196
0.475711392822
0.475676296518
0.475623504606
0.475554809354
0.475473787067
0.475383800941
0.475288546597
0.475190969817
0.475093793684
0.474998912723
0.474907893198
0.474821379138
0.474740520812
0.474665048813
0.474595386041
0.474531395392
0.474473768494
0.474422139968
0.47437790508
0.474341349891
0.474313754861
0.474295849403
0.47428921121
0.474294633512
0.474313392203
0.474346249652
0.474394471808
0.474457935924
0.474537523688
0.474633099792
0.474744774633
0.474871944213
0.475014319291
0.475170729114
0.475339953198
0.475520149791
0.475709125099
0.475904239061
0.476102428368
0.476300097289
0.476493586392
0.476678643979
0.476850703262
0.477005336052
0.477139219386
0.477246919454
0.477323793499
0.477365562116
0.477368656132
0.477329813992
0.477247499674
0.477123231104
0.476959888325
0.476758334556
0.476517722714
0.476235449401
0.475908881956
0.475534789982
0.475110159666
0.47463248173
0.474099992835
0.473512088987
0.472869658013
0.472175116974
0.471432671499
0.470648176461
0.469828184779
0.46898005989
0.468112387896
0.467233158221
0.466348842064
0.465467592304
0.464597188809
0.463740849393
0.462898690959
0.462079292659
0.461292177031
0.460529171414
0.459782337405
0.459065471032
0.458410988131
0.457772354565
0.457138705149
0.456543740161
0.456004240327
0.455506982509
0.455027372161
0.45459003221
0.454145900704
0.45363668677
0.453074123769
0.452406455505
0.45178323596
0.45137676339
0.451243232872
0.451161158735
0.451009988459
0.450845826716
0.450558346259
0.450112835785
0.449556236108
0.449014464698
0.448544349868
0.448138682788
0.447784396557
0.447467306574
0.447177872207
0.446909133558
0.446655959096
0.446414223208
0.446180760628
0.445954752164
0.445737436324
0.445530065746
0.445331825956
0.445139997983
0.444952643856
0.444768982379
0.444588742541
0.444411667147
0.444237461646
0.444065757446
0.443896150601
0.443728191917
0.443561409423
0.443395475003
0.443230084156
0.443064848873
0.442899227761
0.44273281543
0.442565674236
0.442398746997
0.442233549401
0.442070535115
0.441908091804
0.441744213172
0.441578760333
0.441412776138
0.441247223339
0.441082449996
0.440918345911
0.440754707363
0.440591291745
0.440427941589
0.440264494093
0.440101012763
0.439937629204
0.439774522661
0.439611939736
0.439450294644
0.439290058031
0.439131924201
0.43897660861
0.4388245455
0.438676167756
0.438531881251
0.43839145807
0.438254207524
0.438118495333
0.43798076256
0.437838670881
0.437690322434
0.437532712443
0.437364734899
0.437189060693
0.437010478583
0.436837516841
0.436688829692
0.436569962157
0.436489752623
0.436440999153
0.436367460336
0.436147024662
0.474795088106
0.475298659973
0.475856395677
0.476055996045
0.476110540363
0.476142340153
0.476157880396
0.476155560329
0.476131178786
0.476084669256
0.476017168155
0.475931664889
0.475831331544
0.475719947239
0.475600535345
0.475476273412
0.475349249335
0.475221826904
0.475095187268
0.474970540882
0.474848421565
0.474730079501
0.474615199646
0.474504988071
0.474399888253
0.47430095638
0.474208781563
0.474125015565
0.474050549154
0.473986988227
0.473935316256
0.473897231724
0.473873354488
0.473864858959
0.473872282499
0.473896387543
0.473936903692
0.473994446176
0.474068495467
0.474158786175
0.474264348367
0.474384179826
0.47451661549
0.474659772036
0.474811231968
0.474968380642
0.475127985232
0.475286665827
0.475440770115
0.475586041766
0.475716727254
0.475828836977
0.475917358224
0.475977415197
0.47600516747
0.47599723866
0.475949902096
0.475860699665
0.475729217566
0.475554041758
0.475334004942
0.475068660398
0.474756825203
0.47439662851
0.473985407038
0.473520781664
0.473000859311
0.472424609713
0.471792758796
0.471107093059
0.470370919316
0.469588968444
0.468768436847
0.467915435084
0.467037006935
0.466142191255
0.46524032763
0.464335680692
0.463433046817
0.462546354016
0.46168309747
0.460834403368
0.460007568566
0.459221470943
0.45846485079
0.457723505737
0.457017194602
0.456365147605
0.455775257235
0.455211971645
0.454656923693
0.454159600617
0.453677339957
0.453225677322
0.452749736583
0.452170111052
0.451530995715
0.450912377798
0.450385421177
0.450071905781
0.449971577758
0.449969103466
0.449891482583
0.449711485148
0.449460630848
0.449103524745
0.448650744581
0.448148562968
0.447665331008
0.447233869493
0.446855408824
0.446522663064
0.446225229955
0.445954787209
0.445704792429
0.445470213824
0.445247090048
0.445032797595
0.444826906741
0.444630432297
0.44444391339
0.444265602507
0.44409263229
0.443923412686
0.443757554952
0.443595080388
0.443435959687
0.44328002639
0.443126967178
0.442976327071
0.442827608901
0.442680370349
0.442534205912
0.442388747485
0.442243458631
0.442097721142
0.441951282529
0.441804689239
0.441659759224
0.441518175695
0.441380416362
0.441244108375
0.44110696501
0.440968573533
0.440829703321
0.440691234654
0.440553503412
0.440416541436
0.440280207745
0.440144391168
0.44000895394
0.439873780012
0.43973878541
0.439603909065
0.439469050496
0.439334135504
0.439199117107
0.439063962874
0.438928740186
0.438793493925
0.438657990525
0.438522023571
0.438385305766
0.438247140582
0.438106741446
0.437962907132
0.437813177668
0.437656334747
0.43749194005
0.437318689796
0.437137618715
0.436952466065
0.43676725962
0.436588751265
0.436427452325
0.4362853474
0.436159171058
0.436028962237
0.435830771141
0.43545609535
0.474266080163
0.475690917251
0.476501086458
0.47656169957
0.476489048196
0.47644970797
0.476425662079
0.476401038887
0.476363210177
0.476307015898
0.476230545957
0.476135827273
0.476024726684
0.475900681526
0.475766110433
0.475624150368
0.475476758023
0.475326263115
0.475173805594
0.475021376541
0.474869307073
0.474718746879
0.474570354255
0.47442523494
0.474283606148
0.474147199227
0.474016804494
0.473894000879
0.473779924107
0.473676378552
0.473584533141
0.473505918142
0.473441555141
0.473392871484
0.473360041022
0.473344073586
0.473345009513
0.473363083455
0.473397731559
0.473448714796
0.473514813931
0.473594933319
0.473687200902
0.473789655174
0.473899778086
0.474014980369
0.474132063875
0.474248017199
0.474359267357
0.474461658496
0.474549608268
0.474619131583
0.474664720454
0.474681293238
0.474664238222
0.47460939476
0.474512932688
0.474375410781
0.474198108439
0.473981642038
0.473725582799
0.473429604959
0.473092162391
0.472711017691
0.47228158806
0.471799732065
0.471261462289
0.470664204688
0.470008002232
0.469295577082
0.468529328995
0.467715250902
0.466862544528
0.465980166276
0.465072739897
0.464150758499
0.463228720414
0.462313022635
0.461400933884
0.460502887452
0.459644485164
0.458791598412
0.457961805687
0.457169230931
0.456425849023
0.455736307536
0.455078385554
0.454458248897
0.453874582748
0.453306839625
0.452794273208
0.452291009614
0.451720442028
0.451144833811
0.450552149385
0.449980978017
0.449485083438
0.449092146
0.448826848362
0.448710228101
0.44868047603
0.448634727445
0.448498638851
0.448278613797
0.447992030714
0.447635651629
0.447228665409
0.446801926342
0.446389803683
0.446010194426
0.445667472402
0.445359621084
0.445081248062
0.444826901484
0.444591699858
0.444371508661
0.444162928221
0.443964041529
0.443774577114
0.443595357532
0.443426209499
0.44326472218
0.443108266983
0.442955433433
0.442805924284
0.442659788542
0.442517057195
0.442377586383
0.442241069073
0.442107045281
0.441975018576
0.441844513694
0.441715084785
0.441586232625
0.441457297995
0.441327615292
0.441197095668
0.441066904137
0.440939133197
0.440815811342
0.440696830591
0.440579605924
0.44046184574
0.440342905106
0.440223384244
0.440103955944
0.439984927811
0.439866318417
0.439748052579
0.439630076845
0.439512331204
0.439394760635
0.439277301655
0.439159881164
0.439042394977
0.438924753683
0.43880689013
0.438688734692
0.438570289612
0.438451489619
0.438332036906
0.438211643282
0.438089864688
0.43796581508
0.437838488495
0.437706528538
0.43756759499
0.437420367252
0.4372642056
0.437097747985
0.436922060381
0.436740418935
0.436555661269
0.436372638435
0.436199418844
0.436035411096
0.43587377395
0.435690629784
0.43542505193
0.434991104264
0.473911709169
0.476668667418
0.477382561366
0.47701648579
0.476748618714
0.476621167187
0.476546739568
0.476485938584
0.476416269455
0.476331103381
0.476227171826
0.476106040923
0.475968894344
0.475818925045
0.475657935913
0.475488950678
0.475313437976
0.475133942804
0.474951455619
0.474767477632
0.47458277508
0.474398915883
0.47421592172
0.474035300718
0.473857780447
0.473684578566
0.473516562437
0.473355531037
0.4732025433
0.473059359315
0.472927125432
0.472807628378
0.472701651905
0.47261043302
0.472534631064
0.472475010898
0.472431402092
0.472404321522
0.472393151782
0.472397510868
0.472416221536
0.472448215482
0.472491694711
0.472544913139
0.472605619614
0.472671801854
0.472740804171
0.472810269198
0.472877687592
0.47293993418
0.472990734821
0.473026754686
0.473041797576
0.473028701797
0.47298097165
0.472892538709
0.472760029352
0.47258645401
0.472373200064
0.472121777637
0.471832845768
0.471508587191
0.471148414126
0.470748930827
0.470303777873
0.469808523267
0.469257342706
0.468645529517
0.467972984507
0.467243358964
0.466459443819
0.465623960224
0.464749812817
0.463851496109
0.462932706092
0.462000370403
0.461070702843
0.460150910303
0.459232890553
0.45833513157
0.457467507777
0.456645120235
0.455872444169
0.455124354336
0.454411482681
0.453744611372
0.453124477668
0.452549047809
0.451979754033
0.451388725715
0.450819351835
0.450237277461
0.449650402381
0.449112722595
0.448613318683
0.448194465791
0.44787675543
0.447654755649
0.4475163287
0.447437255668
0.447363816942
0.447245688007
0.447062429338
0.446824915532
0.446541783851
0.446216943755
0.445864472986
0.445502809199
0.445150495023
0.44481875362
0.444512548361
0.444232489006
0.443976448739
0.44374128188
0.44352362596
0.443320164516
0.44312823682
0.442946375772
0.442774539732
0.442613189699
0.442461507503
0.442317112491
0.442177599268
0.442041744912
0.441909214521
0.441780033443
0.441654207801
0.441531618076
0.441411967506
0.441294829088
0.441179711103
0.441066123671
0.440953594651
0.440841526731
0.440729174745
0.440615860368
0.440501752161
0.440388419689
0.440278236535
0.44017317839
0.440072625202
0.439974043927
0.4398751433
0.439775283639
0.439674887606
0.439574415884
0.439474073859
0.439373810872
0.439273600609
0.43917340768
0.439073255343
0.438973103791
0.438872919729
0.438772593087
0.438672008519
0.438571021234
0.438469520892
0.438367361965
0.43826445287
0.438160611292
0.438055445305
0.43794857347
0.437839436325
0.437727068415
0.437610361654
0.437487976682
0.437357740719
0.43721843722
0.437069385722
0.436909334284
0.436739171281
0.436561696436
0.436378649962
0.436193141209
0.436010718226
0.435828684539
0.435637668656
0.435412362195
0.435098389523
0.434631301479
0.473841450865
0.478086813943
0.478217585004
0.477277392277
0.476875022603
0.476683282178
0.476555620681
0.47644313836
0.476322978434
0.47618975682
0.476040161857
0.475876617754
0.475699314152
0.475511379433
0.475313755298
0.475109290086
0.474898973997
0.474685079634
0.474468208667
0.474250378665
0.474031824778
0.47381396089
0.473597470202
0.473383477623
0.47317224143
0.472965479557
0.472763858922
0.472568867112
0.472381500069
0.472203433174
0.472035655837
0.471879554176
0.471736013217
0.471606249468
0.47149041567
0.471389369047
0.471303079794
0.471231650839
0.471174481591
0.471131248995
0.471100709712
0.471081883651
0.471073171086
0.471073159036
0.471080203883
0.471093008365
0.471110232423
0.471130808289
0.471153507933
0.471176826607
0.471195762882
0.471204357376
0.471194742422
0.471155412833
0.471074498652
0.470941570916
0.470756148234
0.470524771902
0.470251379758
0.469940742212
0.469599787217
0.469236050153
0.468852386531
0.468440046605
0.467990061681
0.467494325848
0.466944827351
0.466332393319
0.465653445686
0.464915779936
0.464126667244
0.463285202526
0.462401731107
0.461502963205
0.460575076517
0.459633152669
0.458701239692
0.457788819202
0.456909293392
0.456069148466
0.455248648724
0.454460924641
0.453718356611
0.453020711502
0.452371220622
0.451763629823
0.451173940586
0.450580258882
0.44997893409
0.449382870255
0.448825923043
0.448289833633
0.447799529925
0.447373354519
0.447004309648
0.446715024249
0.446503160554
0.44634983885
0.446232888782
0.446126330541
0.446001523428
0.445840628611
0.445640965106
0.445408896788
0.445148083816
0.444862064927
0.444559513143
0.444251543171
0.443949250142
0.44366050482
0.443389859553
0.443139017103
0.44290757555
0.442693955103
0.442495878948
0.442310819414
0.442136768721
0.441972703746
0.441818705779
0.441674976141
0.441540413838
0.441412808033
0.441290113498
0.441171205759
0.441055679209
0.440943471384
0.440834541462
0.440728762362
0.44062585274
0.44052542199
0.440427002647
0.440330132972
0.440234299457
0.440138849666
0.440042915724
0.439945889904
0.439848221015
0.439751700906
0.439658854045
0.439571227641
0.439487973422
0.439406684804
0.439325317004
0.439243283202
0.439160808105
0.439078206836
0.438995526154
0.438912680279
0.438829610113
0.438746315466
0.438662846053
0.438579200255
0.438495352423
0.438411188296