/*--------------------------------*- C++ -*----------------------------------*\
| =========                 |                                                 |
| \\      /  F ield         | OpenFOAM: The Open Source CFD Toolbox           |
|  \\    /   O peration     | Version:  v1806                                 |
|   \\  /    A nd           | Web:      www.OpenFOAM.com                      |
|    \\/     M anipulation  |                                                 |
\*---------------------------------------------------------------------------*/
FoamFile
{
    version     2.0;
    format      ascii;
    class       volScalarField;
    location    "9";
    object      p;
}
// * * * * * * * * * * * * * * * * * * * * * * * * * * * * * * * * * * * * * //

dimensions      [0 2 -2 0 0 0 0];


internalField   nonuniform List<scalar> 
12225
(
-2.72431189576
-3.46041741408
-3.73687631703
-3.81691645299
-3.86963068189
-3.9285944258
-3.98538816258
-4.03003928502
-4.05863358654
-4.07119503553
-4.068849273
-4.05219337656
-4.02073347044
-3.97275980311
-3.90524582856
-3.81349932331
-3.68916471123
-3.52106378708
-2.89527803905
-3.47620953087
-3.73996885319
-3.82361202484
-3.87698501178
-3.93491129602
-3.99050943523
-4.03432746113
-4.06249223805
-4.07493432205
-4.07268837202
-4.05630584034
-4.02529611293
-3.97801010536
-3.91158092663
-3.8217739457
-3.70256985622
-3.56495929595
-3.03719501183
-3.46769397433
-3.72224588971
-3.81934271893
-3.87865314482
-3.9375217788
-3.99275708436
-4.03639229497
-4.06486812811
-4.07805102205
-4.0768756768
-4.06187692722
-4.0326590596
-3.98781689821
-3.92499709488
-3.84110991317
-3.73279444982
-3.60869669582
-3.16072162597
-3.48113897412
-3.72165484889
-3.82959027492
-3.89277959211
-3.9501838025
-4.00303840168
-4.04517284698
-4.07326163067
-4.0869289202
-4.08687110052
-4.07354300426
-4.04665314351
-4.0051148565
-3.94721109643
-3.87101373028
-3.77515545179
-3.6656957162
-3.27038217111
-3.50856759292
-3.72546882309
-3.83742667762
-3.90254291723
-3.95810609678
-4.00882517033
-4.05007598644
-4.07859138887
-4.09362730345
-4.09558764258
-4.0848554288
-4.06129585777
-4.02421443702
-3.97258019036
-3.90552676346
-3.82315972546
-3.73025011914
-3.36825088962
-3.5453531385
-3.73508101311
-3.84727481369
-3.91466644733
-3.96972109288
-4.01933606935
-4.0603430051
-4.08967141493
-4.10634118747
-4.11056931975
-4.10275360998
-4.08298553524
-4.0510075224
-4.00645752898
-3.94937600953
-3.88093903024
-3.8056438848
-3.45626351583
-3.58849231695
-3.75088683843
-3.85979023351
-3.92856924649
-3.9831808531
-4.03158439464
-4.07203257127
-4.10186579714
-4.12002083205
-4.12659970104
-4.12203481993
-4.10663643147
-4.0805466248
-4.04397694482
-3.99766641968
-3.94347118884
-3.88568196929
-3.53611160604
-3.63564141442
-3.77252197486
-3.87538390973
-3.94442344048
-3.9986910746
-4.04616821631
-4.08630735049
-4.11695382091
-4.13704507219
-4.1465910204
-4.14604233697
-4.13589179716
-4.11662017698
-4.08889977215
-4.05396747225
-4.01405694695
-3.97316903854
-3.60921969292
-3.68506032114
-3.79933350114
-3.89437672471
-3.96252789906
-4.01644018339
-4.06327768645
-4.10335071015
-4.13502656676
-4.15731989623
-4.17018761482
-4.17410115436
-4.16970938136
-4.15777254533
-4.13931110841
-4.11587944754
-4.08984527905
-4.06474654286
-3.6767724528
-3.73551511293
-3.83052705626
-3.91690383161
-3.98315069098
-4.03659419387
-4.08305783719
-4.12334628666
-4.1563137422
-4.18111577398
-4.19770035386
-4.20656157492
-4.20846845066
-4.20438483972
-4.19555819961
-4.18369483384
-4.17111797962
-4.1608356763
-3.73971676081
-3.786132708
-3.86522660366
-3.94287197868
-4.00646931825
-4.05930569111
-4.10565200542
-4.14647773177
-4.1810418866
-4.20867479079
-4.22934970811
-4.24357858536
-4.2522067689
-4.25631994335
-4.25727816636
-4.25680610309
-4.25706296758
-4.26048735772
-3.79394251368
-3.83225593782
-3.8995595657
-3.96962182253
-4.03037165281
-4.08254009032
-4.12899790406
-4.17062705024
-4.20695473858
-4.23747678913
-4.26220793657
-4.28166961667
-4.29673459633
-4.30853273531
-4.31843657332
-4.32809999494
-4.33947345266
-4.35452496029
-3.84511343871
-3.87739627276
-3.93515451364
-3.99836912858
-4.05618600679
-4.10764739614
-4.15438939379
-4.19707637994
-4.23541121264
-4.26903682317
-4.29801489281
-4.32286619361
-4.34446165469
-4.36391703478
-4.3825638982
-4.40192488456
-4.42371945151
-4.44944758859
-3.90041346779
-3.92773000842
-3.97707548296
-4.03365102541
-4.0883000839
-4.13900655716
-4.18630441398
-4.23053453492
-4.27149451484
-4.30895463664
-4.34302164254
-4.37419973075
-4.40331524358
-4.4314184537
-4.459722885
-4.4895622482
-4.52236572141
-4.55916928476
-3.95932664687
-3.98282078797
-4.02528142067
-4.07596840856
-4.12758620338
-4.1776794018
-4.22593222639
-4.27232424959
-4.31665437441
-4.35877820991
-4.39881950451
-4.43724586278
-4.47478470688
-4.5123621177
-4.55100390692
-4.59180073305
-4.63586461948
-4.68377243122
-4.02086592135
-4.04168016874
-4.07906996038
-4.12519483653
-4.17446993172
-4.2244506933
-4.27428749783
-4.32362225162
-4.3721914368
-4.41985994279
-4.46674559244
-4.51321834226
-4.55988102455
-4.60745712467
-4.65675517425
-4.70856975404
-4.76371024874
-4.82231553415
-4.08310674985
-4.10235263235
-4.13669295848
-4.18013482568
-4.22838932669
-4.27924466182
-4.33158574405
-4.38481164213
-4.43855098987
-4.49262832969
-4.54708448111
-4.6021713642
-4.65830080214
-4.71598185588
-4.7757529617
-4.83813376434
-4.90362432943
-4.97200893586
-4.14222766112
-4.1610109021
-4.19452570088
-4.2376929324
-4.28692246471
-4.34020325662
-4.39632729552
-4.45455433784
-4.51440764192
-4.57562441509
-4.63812957956
-4.70202075986
-4.76750903468
-4.83487956619
-4.90442098443
-4.97640482516
-5.05108309486
-5.12796506278
-4.19057369676
-4.21022594256
-4.24567078002
-4.29173445402
-4.34474217577
-4.40267054761
-4.4643086158
-4.52888361568
-4.59583914449
-4.6648015347
-4.73555245712
-4.80802817599
-4.88225253369
-4.95831559141
-5.03629499477
-5.11626035338
-5.19826473681
-5.28160671651
-4.20721102807
-4.22927977153
-4.269772804
-4.32197362079
-4.38110903209
-4.44497004251
-4.51254348951
-4.58323329904
-4.65647413482
-4.73182750306
-4.80895521705
-4.88772085509
-4.96803796351
-5.04992516007
-5.13333749489
-5.21826692162
-5.30465067809
-5.39171111707
-4.19995945486
-4.22545704958
-4.27291925859
-4.33277652723
-4.3985459372
-4.46800124303
-4.54069127494
-4.61631539134
-4.69438564437
-4.77436824176
-4.85591947787
-4.93883934952
-5.02308153699
-5.10859425119
-5.19536058224
-5.28327839355
-5.3723164122
-5.4616078864
-4.17476288174
-4.20576567967
-4.2633995114
-4.33296287099
-4.40586534129
-4.48065792929
-4.55798280207
-4.63797930899
-4.72012928888
-4.80383336993
-4.88871090836
-4.97461179896
-5.06150782087
-5.14938118223
-5.23818730298
-5.32781614473
-5.41817695169
-5.5083835237
-4.13436066033
-4.17419159657
-4.24617895948
-4.32714738626
-4.40690960396
-4.48633254771
-4.5677351205
-4.65160018718
-4.7372650658
-4.82403563537
-4.91157296823
-4.99983564827
-5.08886280286
-5.17869525076
-5.26925810222
-5.36045440406
-5.45214998924
-5.54352374557
-4.0802349436
-4.1344041084
-4.22595489411
-4.31913911524
-4.40457957795
-4.48764658333
-4.57255710526
-4.6597425291
-4.74818269617
-4.83708815253
-4.92623758588
-5.01574720654
-5.10579627122
-5.19646745442
-5.28771984831
-5.37938189534
-5.47126951558
-5.56240121672
-4.01276398181
-4.09024319435
-4.20698450297
-4.31151927191
-4.40063394467
-4.48647557763
-4.57475661091
-4.66530831943
-4.75660848184
-4.84780405316
-4.93881632692
-5.0299112608
-5.12135932519
-5.21327311795
-5.3055915755
-5.39810669811
-5.49059708983
-5.58209003961
-3.93137250732
-4.04625467467
-4.19280207943
-4.3054968955
-4.39548591174
-4.48265528188
-4.5730192452
-4.6653702639
-4.75783835343
-4.84974707979
-4.94129917424
-5.03295914631
-5.1250756014
-5.21774990283
-5.31085601692
-5.4040770243
-5.49697758505
-5.58821518168
-3.83474717597
-4.00805094022
-4.18579780454
-4.30248074887
-4.39301343731
-4.48321824012
-4.57722181013
-4.6722072435
-4.76605975358
-4.85849020688
-4.95016267283
-5.04185550517
-5.1340968684
-5.22703400759
-5.32053964167
-5.41425641429
-5.50760856422
-5.59889121265
-3.72113495484
-3.98224291401
-4.18287617968
-4.29295636672
-4.37977908515
-4.47175484178
-4.56920242274
-4.66711823189
-4.76289064859
-4.85644382696
-4.94878179003
-5.04096764075
-5.13368346324
-5.22716624188
-5.32134285506
-5.41591444003
-5.51025907003
-5.60207436689
-3.58842620447
-3.9847269792
-4.20451973277
-4.30344074845
-4.3836773706
-4.47434241598
-4.57235439213
-4.67096252735
-4.7670731801
-4.86064446212
-4.95284457119
-5.04487626645
-5.13750684881
-5.23103144598
-5.32545378203
-5.42067387279
-5.51654309734
-5.61184019001
-3.41981628192
-3.96141010664
-4.20034121966
-4.29713960479
-4.37676536013
-4.4685568708
-4.56803752433
-4.66784731288
-4.7647841485
-4.85888255389
-4.95142310116
-5.0436951611
-5.1365207362
-5.23023693528
-5.32489530553
-5.42053389868
-5.51743763114
-5.61993641139
-2.69098598319
-2.69391105289
-2.69743137012
-2.70185506256
-2.71106709318
-2.72935974673
-2.75999226733
-2.80551023455
-2.86776491416
-2.948164231
-3.0477178559
-3.16710845619
-3.30671564695
-3.46669035115
-3.64697139764
-3.84735754814
-4.06751513047
-4.30704441315
-4.56547627616
-4.84233008984
-5.13710118601
-5.44931176743
-5.77848736266
-6.12420228921
-6.48604891273
-6.86367987827
-7.25677092514
-7.66506350911
-8.08831906213
-8.52636192632
-8.97902766007
-9.44620648199
-9.92777859372
-10.4236551332
-10.9337043341
-11.4577871407
-11.995665716
-12.5470350575
-13.1114158966
-13.6881785587
-14.2764235271
-14.8750052806
-15.4824110689
-16.0967814106
-16.7157825938
-17.3366227883
-17.9559557294
-18.5699564647
-19.1742844077
-19.7641513725
-20.3342724205
-20.8789496711
-21.3921104598
-21.8674640777
-22.2986999307
-22.6797985916
-23.0053049294
-23.2705145204
-23.4715076107
-23.6049658495
-23.6679094284
-23.6574901809
-23.5709051528
-23.4053372413
-23.1585333218
-22.8294034058
-22.417509089
-21.9220270279
-21.3413820739
-20.6728980462
-19.9127707146
-19.0560838058
-18.0972491324
-17.030537146
-15.8510578037
-14.5556814368
-13.1442546631
-11.6204886176
-9.99279893856
-8.27446460995
-6.48363396827
-4.64252605495
-2.77632891098
-0.911553644092
0.925055386116
2.70802009193
4.41477468235
6.02704201584
7.53053891375
8.91480617689
10.1739256413
11.3066874484
12.3153440228
13.2041638387
13.9792933288
14.6485226631
15.220616558
15.7050579128
16.1109220125
16.446805746
16.7212185483
16.9426226354
17.1186493694
17.2571431402
17.3613663664
17.4371563914
17.4947591374
17.5326268374
17.5462259273
17.5382688287
17.5133467317
17.4752225211
17.4269596744
17.3711976693
17.310129107
17.2455476438
17.1788334584
17.1110745914
17.0430851637
16.9755070554
16.9087991304
16.8433177642
16.7793132863
16.7170029952
16.6565278606
16.598043366
16.5416932781
16.4876091693
16.4358373088
16.3864217091
16.3393477668
16.2946056612
16.2521463333
16.2119367436
16.1739132409
16.1380330772
16.1042328593
16.0724735745
16.042703975
16.0148904338
15.9889771317
15.9649161532
15.9426719218
15.922224293
15.9035603487
15.8866673324
15.8715177469
15.8581495383
15.846607641
15.8368790843
15.8289429601
15.8227881166
15.8184118115
15.8158357172
15.815046689
15.8159717676
15.8186130156
15.8229742686
15.8288825955
15.8361075695
15.8443963272
15.8535077595
15.8632104826
15.8732994631
15.8835871155
15.8939127875
15.9041257272
15.9141037556
15.9237387293
15.9329508297
15.9416833466
15.9499471858
15.9578035662
15.9654862091
15.9735319756
15.9828309095
15.994433897
16.0094356501
16.0307802008
16.0405161254
-2.66534045029
-2.67513614867
-2.68800513405
-2.69700196271
-2.70545754002
-2.72279590229
-2.75366410043
-2.80032517632
-2.86439163639
-2.94708340569
-3.04925747417
-3.17146480817
-3.31397697536
-3.47684985975
-3.65994794359
-3.86300585351
-4.0856452824
-4.32742946335
-4.58787021162
-4.86647283565
-5.16273359753
-5.47617643786
-5.80634212149
-6.15281770888
-6.51521879455
-6.8932172161
-7.28651873871
-7.694887757
-8.11812028813
-8.55606933716
-9.00861257873
-9.47567429534
-9.95718550591
-10.4531014947
-10.9633515428
-11.4878473499
-12.026420645
-12.5788222243
-13.1446446392
-13.7233077979
-14.3139731479
-14.9155294204
-15.5265103043
-16.145074026
-16.7689015728
-17.3951539037
-18.0204272738
-18.6408150293
-19.2519128019
-19.8488103233
-20.4260731197
-20.9777933107
-21.4976425441
-21.9790385108
-22.4154625815
-22.8008455533
-23.1298565568
-23.3980083583
-23.6015905181
-23.7373493082
-23.8022572706
-23.7935179156
-23.7081593336
-23.5426231874
-23.2947329927
-22.9646979891
-22.5530275955
-22.0594653624
-21.4828012134
-20.8205916721
-20.0690550112
-19.2231050539
-18.2766928376
-17.2233989965
-16.0573971758
-14.7745443673
-13.3736178195
-11.8574348117
-10.2337633215
-8.51558940337
-6.72097949315
-4.8724720744
-2.99587472953
-1.11842065297
0.732671278847
2.53134136505
4.25428500634
5.88261622356
7.40189067982
8.80142890359
10.0746729417
11.21994151
12.2391763351
13.1363621219
13.9175526012
14.5907738175
15.1652602036
15.6506533241
16.0567532068
16.3930911565
16.6685634867
16.8931043001
17.0730397536
17.2167335223
17.330796197
17.4159595639
17.4749930331
17.5108926919
17.5242966261
17.5177287586
17.4948559365
17.4589504511
17.412850129
17.3590509119
17.29970662
17.236587496
17.1711094188
17.1043759323
17.0372483375
16.9703847181
16.9042801862
16.8393026675
16.7757372069
16.7138191407
16.6537629867
16.5957376104
16.5398293462
16.4860653934
16.4344986344
16.385208051
16.3382231641
16.2935418047
16.2511377895
16.2109730114
16.1729947905
16.1371501727
16.1033839224
16.0716489846
16.0419004979
16.0140999173
15.9881953112
15.9641296368
15.941870717
15.9214170563
15.9027623741
15.8858984108
15.8708145996
15.8575015179
15.8459634748
15.8361956966
15.8282014634
15.821983848
15.817554846
15.8149806479
15.8142831935
15.8154184427
15.8182968818
15.8228084285
15.8287919142
15.8360373893
15.8443104184
15.8533813989
15.8630279767
15.8730503978
15.8832630743
15.8935052203
15.9036302077
15.9135162566
15.9230572091
15.9321779049
15.9408310872
15.9490224569
15.9568457745
15.964575099
15.9727393188
15.9821449984
15.9937316004
16.0085318659
16.0289579138
16.0429833299
-2.62864438664
-2.64230934723
-2.66256798593
-2.68670752093
-2.71520707199
-2.75171917192
-2.79969249411
-2.86167663159
-2.93955903335
-3.03471320958
-3.14807822878
-3.2802525508
-3.43154296241
-3.6020392824
-3.79164556436
-4.00014333176
-4.22720992585
-4.4724708491
-4.73550691489
-5.01589558266
-5.31320810449
-5.62704284916
-5.95701471835
-6.30278172982
-6.66403016513
-7.04049851248
-7.43195919694
-7.838241815
-8.25921118923
-8.69479002341
-9.14493248088
-9.609643571
-10.0889451069
-10.5828882357
-11.0915079345
-11.6148244355
-12.1527845651
-12.7052512582
-13.2719276262
-13.8523286228
-14.4456979375
-15.0509832398
-15.6667622836
-16.2912115341
-16.9219936109
-17.5561823452
-18.1902388434
-18.8200953957
-19.4411866211
-20.0483694791
-20.6359209394
-21.1975652389
-21.7265193504
-22.2157577795
-22.6584669724
-23.0484757153
-23.380475324
-23.6500732118
-23.853620264
-23.9880042288
-24.0505650622
-24.0386667221
-23.9489302246
-23.7777593036
-23.5244367781
-23.190544073
-22.7770667401
-22.2844112895
-21.7119663765
-21.0577170378
-20.3180234015
-19.4875863712
-18.5596823311
-17.5267347869
-16.3813417404
-15.1175670961
-13.7323203148
-12.2267420753
-10.6074239862
-8.88681822249
-7.08292057652
-5.21873866834
-3.32121851941
-1.41910589605
0.459149837726
2.28630945093
4.03750928201
5.69236991026
7.23564173873
8.6559910643
9.94637232321
11.1048921691
12.1337097074
13.0373235708
13.8223593965
14.4975269215
15.0731677552
15.5601998997
15.9689722108
16.3098618216
16.5906147152
16.8242305066
17.0174318388
17.1703508061
17.2877603133
17.3749501889
17.4359578946
17.4735410045
17.4893180715
17.4857536421
17.4660448411
17.4332262664
17.390025797
17.3388556022
17.28183775
17.2207350339
17.1569960562
17.091756025
17.0259209709
16.9601758095
16.8950515123
16.8309343137
16.7681408492
16.7069181354
16.647491191
16.5900199431
16.5346414011
16.4814438236
16.4304066359
16.3814980566
16.334794079
16.2903219314
16.2480936443
16.208080662
16.1702466116
16.1345314164
16.1008869725
16.0692707299
16.0396485674
16.0119753277
15.9862086105
15.962307318
15.9402173178
15.9198975456
15.9013399005
15.884544542
15.8695120846
15.8562422118
15.8447572596
15.8350691142
15.8272092398
15.8212418123
15.8171601602
15.814913229
15.8144619104
15.8157609932
15.8187315402
15.8232628229
15.8292012321
15.8363521326
15.8444981156
15.8534203014
15.8629051466
15.8727551717
15.8827870989
15.8928382714
15.9027610819
15.9124283873
15.9217300815
15.9305842252
15.9389370215
15.946790723
15.9542361234
15.9615182675
15.9690870786
15.9775936659
15.9878669236
16.0008407742
16.0183136703
16.0332541878
-2.63051859259
-2.64952087496
-2.67786452589
-2.71450797133
-2.75966961053
-2.8146023865
-2.88099653403
-2.96051770926
-3.05462335016
-3.16448789083
-3.29097246634
-3.43466392774
-3.59589579117
-3.77480979444
-3.97137938453
-4.1854689149
-4.4168480736
-4.66524180512
-4.93033373262
-5.21180608841
-5.50933430269
-5.82261791246
-6.15136975034
-6.49534207266
-6.85431171184
-7.22810477838
-7.6165808082
-8.01965656524
-8.43728798539
-8.86949341556
-9.31633062437
-9.77791649305
-10.2543952856
-10.7459503284
-11.2527579315
-11.774985573
-12.3127315371
-12.8660086552
-13.4346623943
-14.0183332764
-14.6163670678
-15.2277849567
-15.8512105679
-16.4848351708
-17.1262863185
-17.7725247011
-18.41982614
-19.0639008944
-19.6999531214
-20.3225247342
-20.9254720113
-21.5019968478
-22.0447076025
-22.5460274869
-22.9988102556
-23.3967694643
-23.7345107991
-24.0075892211
-24.2125243242
-24.3466028076
-24.4075079476
-24.3924764299
-24.2976420967
-24.1200078379
-23.8606061259
-23.5224967501
-23.1075774444
-22.6171591061
-22.0514809598
-21.409202292
-20.6870205305
-19.8795032836
-18.979169706
-17.9768984474
-16.8629748771
-15.6286784985
-14.2679286735
-12.7789741946
-11.1661844056
-9.4409494761
-7.6212339967
-5.73085050785
-3.79866090092
-1.85610831025
0.0655113529382
1.93626415387
3.72878997018
5.42069592984
6.9954243529
8.4417145261
9.75219235
10.9253509749
11.9640190689
12.8740460068
13.6645865265
14.3455997615
14.9284590588
15.4244609259
15.8435149924
16.1986551771
16.4971415793
16.742594526
16.9414166662
17.0995982627
17.2222704084
17.3141456029
17.3790769373
17.4200205832
17.4392885363
17.4394956009
17.4236306569
17.394602116
17.355040316
17.3072892538
17.2534032944
17.1951297783
17.1339139374
17.0709217412
17.0070812762
16.9431119879
16.8795673158
16.8168653667
16.7553427314
16.6952742346
16.6368910729
16.5803700115
16.5258501908
16.4734312069
16.4231593585
16.3749701927
16.3288528681
16.2848701505
16.2430474173
16.2033751354
16.1658365534
16.1303997985
16.0970273821
16.0656683577
16.0362813083
16.0088235172
15.9832527051
15.9595216627
15.9375854542
15.9174156401
15.89900501
15.8823529258
15.8674838605
15.8544015678
15.8431403737
15.8337742475
15.8262843708
15.8206306695
15.8168052701
15.8147740973
15.8144974428
15.815919397
15.8189573559
15.8234955646
15.8293837525
15.8364361613
15.8444486111
15.8532106425
15.8625176169
15.8721748457
15.8820025408
15.8918355524
15.9015251888
15.9109390947
15.9199642905
15.9285113222
15.9365223782
15.9439896927
15.9509844837
15.9576983813
15.9644780402
15.9718117173
15.9802843644
15.9905454994
16.0036752642
16.0144373384
-2.70730054781
-2.72828930431
-2.76115690909
-2.80579399821
-2.86203258938
-2.9302616802
-3.0111718106
-3.10556389299
-3.21422147891
-3.33783398743
-3.47693740471
-3.63191758399
-3.80300012303
-3.99028792715
-4.19376584136
-4.41334645053
-4.64887312783
-4.90016212182
-5.16699926232
-5.44917461463
-5.74647288819
-6.05870276367
-6.38568336366
-6.72726978325
-7.08333979608
-7.45381827492
-7.83866373533
-8.23789387113
-8.65157069409
-9.07982484605
-9.52283581793
-9.98085203924
-10.4541612497
-10.9431005183
-11.4480101629
-11.9692284313
-12.5070280246
-13.0615948641
-13.6329398368
-14.2208509577
-14.8247943133
-15.4438773125
-16.0767759489
-16.7217001335
-17.3762458966
-18.037261139
-18.7008171488
-19.3623624239
-20.0168130791
-20.6583186174
-21.2801794767
-21.8748728876
-22.4341840885
-22.9498370829
-23.4142348584
-23.8207967942
-24.1638836097
-24.4391413623
-24.6435561524
-24.7750558392
-24.8316778479
-24.8102161932
-24.7058749738
-24.5177869875
-24.2495820991
-23.9047720638
-23.4864134064
-22.9969838167
-22.4380162756
-21.8094363293
-21.1088466621
-20.3310892886
-19.4680716508
-18.508815693
-17.4403362042
-16.2496228177
-14.9259297388
-13.4629406886
-11.8613922704
-10.1311870678
-8.29065488817
-6.36554993642
-4.38825528389
-2.39429105808
-0.419379400613
1.50273252398
3.34250133491
5.07519839091
6.68237167451
8.15340231551
9.4826770113
10.6710828507
11.7225575572
12.6445823446
13.447445073
14.142445675
14.7411859622
15.2569248994
15.6976261703
16.068603385
16.3775051591
16.6322689715
16.8396224244
17.0054498156
17.1349113677
17.2326786574
17.3027236966
17.3483210816
17.372224116
17.3772097742
17.3661535691
17.3418601283
17.3068609696
17.2634374081
17.2135706841
17.1589870083
17.101114436
17.0411443003
16.9800162429
16.9184889581
16.8571322706
16.7964079967
16.7366685476
16.6782254759
16.6213124858
16.5661327389
16.5128227859
16.4615027281
16.4122407271
16.3650391599
16.319817306
16.2765918512
16.2354122369
16.1963093769
16.1592747565
16.1242973198
16.0913408443
16.0603715213
16.0313469992
16.0042317689
15.9789815586
15.955554305
15.9339060538
15.9140166205
15.8958943956
15.8795387757
15.8649779167
15.852283953
15.841451368
15.8324601466
15.8252989115
15.8199452152
15.8163797786
15.8145701424
15.8144688315
15.8160135853
15.8191144228
15.8236548651
15.8294851453
15.8364299009
15.8442937445
15.8528772838
15.8619810751
15.8714160236
15.8810019928
15.8905742841
15.8999794283
15.9090812979
15.9177588178
15.925914996
15.9334793205
15.9404266197
15.9467936085
15.9527087223
15.9584025361
15.9641874248
15.9703827519
15.9772384799
15.9850038244
15.9884685784
-2.85138748631
-2.87236073664
-2.90720274067
-2.95625371589
-3.01905344466
-3.0956232322
-3.18611703887
-3.29077737289
-3.40986833351
-3.54363864179
-3.69227810104
-3.8559200438
-4.03462105792
-4.22838594138
-4.43715837988
-4.66085452503
-4.8993545506
-5.15253590933
-5.42026135746
-5.70240873101
-5.99885625447
-6.30950806789
-6.63427967239
-6.97312250636
-7.32601019812
-7.69296419524
-8.07404260847
-8.46936626859
-8.87910739275
-9.30351457976
-9.74289621042
-10.1976402766
-10.6681867203
-11.1550364138
-11.6587046465
-12.1797122453
-12.7185201316
-13.2755029536
-13.8508558974
-14.4445372772
-15.0561577556
-15.6849326357
-16.329607796
-16.9884291534
-17.658987802
-18.3380513965
-19.0214961888
-19.7044638106
-20.3814879461
-21.0462025258
-21.6911468919
-22.3078355147
-22.887031257
-23.4196148761
-23.8973846521
-24.313245946
-24.6612351235
-24.9373865678
-25.1395776257
-25.2664661777
-25.3161537519
-25.2846744869
-25.1666710928
-24.9637881982
-24.6827171623
-24.3274691568
-23.9020986772
-23.4105319178
-22.8562388051
-22.2412854471
-21.5650039565
-20.8229667891
-20.0064888432
-19.1022865419
-18.0929456778
-16.9593759886
-15.6843250599
-14.2552837688
-12.6684724111
-10.9327720857
-9.06784215583
-7.10268078244
-5.07393403805
-3.02252725466
-0.989851185297
0.985152209357
2.87122082492
4.64351465855
6.28356527213
7.78241100011
9.13475734882
10.3435316548
11.4141688175
12.3562355841
13.1820485882
13.904118816
14.5298509119
15.0664199358
15.5225414415
15.907228994
16.2286510697
16.4945176715
16.711705577
16.8862806721
17.0236089034
17.1284532947
17.2049438035
17.256583758
17.2864271963
17.2973588629
17.2922157292
17.2736950847
17.2442630292
17.2061216421
17.1612111448
17.1112127989
17.0575546149
17.0014247805
16.9437898349
16.885424758
16.8269374833
16.768813067
16.7114441256
16.6551572573
16.6002135094
16.5468233465
16.4951449248
16.4453018114
16.3973781699
16.3514326826
16.3074101635
16.2652574647
16.2250173992
16.1867408452
16.1504478749
16.1161408555
16.0838015035
16.0534057764
16.024922
15.9983161877
15.9735425939
15.9505618427
15.929347076
15.9098833156
15.8921712928
15.8762718249
15.8622140835
15.8499836153
15.8395700558
15.8309624439
15.8241480694
15.8191074071
15.8158145489
15.8142331123
15.8143098811
15.8159763964
15.8191384911
15.8236788083
15.8294505734
15.8362861264
15.8439989706
15.8523982628
15.8612905202
15.8704905552
15.8798189422
15.8891099568
15.8982065591
15.9069670356
15.9152614944
15.9229816223
15.930040452
15.9363878767
15.9420182059
15.9469878288
15.9514064007
15.9554037647
15.9590339339
15.9621208633
15.9641339338
15.9594974624
-3.03972404214
-3.05978620206
-3.09508789655
-3.14598310154
-3.21198226916
-3.29300395198
-3.38892521704
-3.49966859961
-3.62516555056
-3.76535347944
-3.92015244579
-4.08947719827
-4.27321951154
-4.4712707017
-4.68350654853
-4.90981423269
-5.15007618014
-5.40419664305
-5.67208368905
-5.95367335358
-6.24891074331
-6.55777347016
-6.88025414514
-7.21638387091
-7.5662195042
-7.92986859321
-8.3074799345
-8.69927066943
-9.1055173304
-9.52658145175
-9.96289551708
-10.4149827038
-10.8834312296
-11.3689017301
-11.8720818495
-12.3936743054
-12.9343290632
-13.4946131523
-14.0749148828
-14.6753779754
-15.2957777049
-15.9354554155
-16.5932354684
-17.2673997275
-17.9555459995
-18.6543936433
-19.3596224084
-20.0659789702
-20.767453968
-21.4570548377
-22.1264361751
-22.766105525
-23.3658290638
-23.915622605
-24.4065123513
-24.8306161771
-25.1817561069
-25.456747058
-25.6547039371
-25.7746799408
-25.8137223913
-25.766249089
-25.6288787323
-25.4073001786
-25.109813554
-24.7405749434
-24.3049434029
-23.8088365372
-23.25822148
-22.6579061518
-22.0094106178
-21.3090670158
-20.547309434
-19.7080371388
-18.768756853
-17.7034648955
-16.4875410466
-15.1012118189
-13.5354804341
-11.7973059046
-9.9091662643
-7.90581182754
-5.82950961236
-3.72541325397
-1.63834158021
0.387462764211
2.31965863931
4.13301494085
5.80829125013
7.33675197527
8.71831901605
9.95548317974
11.0568300907
12.0343959712
12.8933875684
13.6415325598
14.2880886603
14.8430258631
15.3157319634
15.715263646
16.0500613193
16.3279511023
16.5560056172
16.7404822535
16.8869235342
17.0001944014
17.0845609239
17.143690932
17.1808356352
17.1989567495
17.2008787792
17.1892171106
17.1663833086
17.1345105673
17.0955062742
17.0510104691
17.0024493433
16.9510018836
16.8976601423
16.8432091176
16.7882992372
16.7334356998
16.679054932
16.6254951006
16.5730513194
16.5219392698
16.4723465502
16.4243983311
16.3782039408
16.3338208992
16.2912899728
16.2505401941
16.2115587238
16.1744075427
16.13913321
16.1057494375
16.0742628973
16.0446552486
16.0169062524
15.9909868681
15.9668682254
15.9445093322
15.923877001
15.9049785968
15.8878677193
15.8725640184
15.8590518152
15.8473222587
15.8373700922
15.8291842728
15.8227525395
15.8180521873
15.8150549422
15.8137180034
15.8139859132
15.8157835196
15.8190163557
15.8235648335
15.8292877044
15.8360214504
15.8435893911
15.8518056711
15.8604843222
15.8694412844
15.878499955
15.88749078
15.8962544585
15.9046408707
15.9125117036
15.9197425002
15.9262278189
15.9318855657
15.9366635274
15.9405393147
15.9435031849
15.945505025
15.9463446614
15.9454636075
15.9417029866
15.9292291446
-3.24561654409
-3.26440859512
-3.29930589394
-3.35045908391
-3.41752828308
-3.50043395638
-3.59891939654
-3.71273899376
-3.84162845763
-3.98532680138
-4.14356920376
-4.31610992292
-4.50271015557
-4.70316271782
-4.91727592375
-5.14489796985
-5.38589691401
-5.64018340956
-5.9076880714
-6.18838286075
-6.48225881155
-6.78934623581
-7.10969649054
-7.44340418418
-7.79059369259
-8.1514444362
-8.52618280177
-8.91510898481
-9.31859054295
-9.73708812916
-10.1711440806
-10.6214016229
-11.0885812678
-11.5734876227
-12.0769651862
-12.5998840405
-13.143070844
-13.7072739497
-14.2930670322
-14.9007788246
-15.530357844
-16.1812829302
-16.8524565026
-17.5421742077
-18.2480230787
-18.9666986997
-19.6937274271
-20.4234634871
-21.1493374544
-21.8638656059
-22.5579813693
-23.2213336042
-23.8426253637
-24.410538687
-24.9145313854
-25.3453700748
-25.6972047185
-25.968228522
-26.1584115521
-26.2659752034
-26.2856749184
-26.2106038964
-26.046958567
-25.8054283124
-25.4896870979
-25.1052546148
-24.6594678957
-24.1603595811
-23.6158695081
-23.0328021902
-22.4140936731
-21.7563490049
-21.0495136098
-20.2753064657
-19.4070921704
-18.4127676881
-17.2602052015
-15.9234105508
-14.3885246279
-12.6603873672
-10.7619850443
-8.73148759576
-6.61718928323
-4.46831443603
-2.33255710757
-0.261376179429
1.71090026311
3.56255376734
5.27650836147
6.84053388195
8.25987519023
9.54028664913
10.68194624
11.6908587361
12.5760548696
13.3473153031
14.014625916
14.5881077334
15.0775619788
15.4923189315
15.8410697408
16.1318084497
16.3717435291
16.5672896605
16.7241007792
16.8471530395
16.9407972291
17.0088364764
17.0546245837
17.0811979043
17.0913539813
17.0876715002
17.072492465
17.0479142818
17.0157936632
16.9777550194
16.9352002482
16.889316744
16.8410979582
16.7913589817
16.7407692152
16.6898761793
16.6391364851
16.5889228659
16.5395445115
16.4912459082
16.4442260985
16.3986349125
16.3545912631
16.3121760707
16.2714526716
16.2324058013
16.1950019432
16.1592827429
16.1253170247
16.0931349071
16.0627520641
16.0341687312
16.0073779511
15.9823568932
15.9590761805
15.9374919346
15.9176032786
15.8994521259
15.8830569253
15.8684081021
15.8555005563
15.8443289097
15.8348890807
15.827170268
15.8211587367
15.8168298861
15.8141522684
15.8130794032
15.8135527198
15.8154937951
15.8188071917
15.8233737381
15.8290560966
15.8356959579
15.8431239412
15.8511599886
15.8596236724
15.8683331802
15.8771130586
15.8857910181
15.8942036473
15.9021925708
15.9096089798
15.9163110844
15.9221708269
15.9270712331
15.9309091099
15.93358248
15.934965058
15.9348385583
15.9327731447
15.927888604
15.9185611953
15.8989453739
-3.44298728593
-3.46064774845
-3.49493493452
-3.54569585641
-3.61282118953
-3.69624630489
-3.79565735253
-3.91073395604
-4.04110695175
-4.18640120944
-4.34623903091
-4.52027107858
-4.70817005416
-4.90965822808
-5.12449226688
-5.35248724963
-5.59349501762
-5.84742498845
-6.11421975785
-6.39387399573
-6.68641000973
-6.99189653558
-7.31042856009
-7.64214861399
-7.98723365765
-8.34591943183
-8.71849299546
-9.10532003998