/*--------------------------------*- C++ -*----------------------------------*\
| =========                 |                                                 |
| \\      /  F ield         | OpenFOAM: The Open Source CFD Toolbox           |
|  \\    /   O peration     | Version:  v1806                                 |
|   \\  /    A nd           | Web:      www.OpenFOAM.com                      |
|    \\/     M anipulation  |                                                 |
\*---------------------------------------------------------------------------*/
FoamFile
{
    version     2.0;
    format      ascii;
    class       volScalarField;
    location    "9";
    object      rho;
}
// * * * * * * * * * * * * * * * * * * * * * * * * * * * * * * * * * * * * * //

dimensions      [0 0 0 0 0 0 0];


internalField   nonuniform List<scalar> 
12225
(
0.58316270486
0.63872440275
0.622014618843
0.620921786127
0.609366523037
0.604794718221
0.598712143225
0.594438851213
0.592068080739
0.592795235406
0.598143087445
0.606785616648
0.613897211754
0.625851031895
0.648823418633
0.677155994999
0.712208666828
0.743224589475
0.7371380459
0.690180570318
0.655047019376
0.660330913195
0.65056120418
0.647769443121
0.643446740892
0.640516500794
0.638616678577
0.638467797399
0.641459261416
0.647390369611
0.653675446174
0.663033926686
0.679411699858
0.699446354302
0.7207025649
0.723155392635
0.619390467397
0.666477521075
0.652875881938
0.653248761095
0.64380062522
0.640185539403
0.635480510192
0.632204548185
0.629904291416
0.6291026751
0.630519006122
0.634292187537
0.639857070615
0.648551497507
0.662163410122
0.67812540478
0.692051182904
0.686900048279
0.650136247648
0.682040715448
0.655300764707
0.661075155378
0.652075561325
0.650067288478
0.646570236443
0.644326794744
0.642741684893
0.642262892844
0.643255457992
0.645906217064
0.650295139657
0.657128360616
0.66688849333
0.677241944931
0.683389448817
0.674437319238
0.639280991697
0.681386487803
0.657375450245
0.66395901333
0.655954783939
0.654955532246
0.65242439066
0.651155920386
0.650534709531
0.65090623169
0.652432103427
0.655211872688
0.659408741764
0.665276378961
0.672500311766
0.678824912556
0.680106452137
0.670501461959
0.640244023643
0.684790992109
0.660064902115
0.6680911688
0.66066905802
0.660460657747
0.658559613546
0.657893235557
0.657820552196
0.658617776157
0.660349878099
0.663046477793
0.666793717196
0.671543522444
0.676582112286
0.679850838736
0.678300357757
0.66920710663
0.640349181791
0.686632402286
0.662444137305
0.67148654829
0.664681251102
0.665156318137
0.663787081253
0.663595764094
0.66390875382
0.664951809032
0.666730277126
0.669219725515
0.672383408357
0.675987060543
0.679176509967
0.680235388545
0.677136588818
0.668794691347
0.640952370912
0.687970559821
0.66445114371
0.674293695251
0.668051039162
0.669094278342
0.668153321343
0.668318334165
0.668863460493
0.66999340063
0.671683551185
0.673862619458
0.676385437988
0.678914623711
0.680598336181
0.680117255318
0.67620962489
0.668635784926
0.641558793354
0.688745552128
0.666033303545
0.676476329592
0.670753922457
0.672282858584
0.671696628317
0.672116352934
0.672773302371
0.673876730003
0.675386198461
0.677181424374
0.679043740742
0.680595194614
0.681088090516
0.679541601448
0.675253176721
0.668333695188
0.641966422803
0.689028249948
0.667076844479
0.677959472438
0.672680482309
0.674608991957
0.674287256361
0.674864343814
0.675557257035
0.676580613101
0.67785659829
0.67922008497
0.680417993332
0.681096272381
0.680650719503
0.678391302913
0.673969513484
0.667671323362
0.641487506016
0.689058470666
0.66728720578
0.678569359424
0.673545892088
0.675709129142
0.675489085736
0.676116215088
0.676781094039
0.677668246643
0.678662542159
0.679599291839
0.68023573697
0.680273059267
0.679241136664
0.676675659642
0.672447968547
0.666859197961
0.637205029614
0.688889683111
0.665698535217
0.677593209839
0.672513219829
0.674787406883
0.67460010914
0.675244140531
0.675831265894
0.676574507595
0.677417943947
0.678180326875
0.678615382756
0.678442533927
0.677302736635
0.674874705188
0.671107747791
0.666293062468
0.633734121183
0.688154601354
0.664137266077
0.676461584245
0.671568332856
0.674024844015
0.673951700694
0.674687767048
0.675381151505
0.676221805601
0.677095249259
0.677818546261
0.678116048213
0.67778832599
0.676538137336
0.674174412276
0.670733761338
0.666471423266
0.629584071369
0.687257019898
0.662387324294
0.675264090706
0.670598743432
0.673422647889
0.673672857379
0.674646167039
0.675467266254
0.676328379056
0.677109363201
0.677615153256
0.677608570355
0.676953761097
0.675497627222
0.673123872049
0.669974781211
0.666188192391
0.624230821109
0.686280214959
0.660204128929
0.673818427881
0.66939132264
0.672648557054
0.673266153972
0.674518527285
0.675487085472
0.676327930153
0.676957099526
0.677171687935
0.676797701235
0.675822434763
0.674173315705
0.671829516911
0.668944108478
0.665648335159
0.618655297619
0.685238219345
0.657726028383
0.672060507209
0.667765743952
0.671396107844
0.672290457141
0.673751428149
0.674792171921
0.675601897879
0.676053915701
0.676032538225
0.67538057444
0.67421026161
0.672484290827
0.670255682895
0.667655426568
0.664772441106
0.613658874298
0.684299961885
0.655232292495
0.670145849277
0.665830899649
0.669686155214
0.670703093704
0.672236995976
0.673266375428
0.673974582592
0.674293986755
0.674097757033
0.673305657646
0.672055915271
0.670380263672
0.668308719764
0.666006127708
0.663460022717
0.608997512902
0.683584064511
0.652880720099
0.668256835443
0.663776355225
0.667705758315
0.668694679026
0.670199194973
0.671150873371
0.671753620581
0.671958856423
0.67165800303
0.670804694119
0.669567919564
0.667989930438
0.666095424479
0.664044393147
0.661793740732
0.606484821987
0.683479253792
0.651656825393
0.667204473084
0.662443241699
0.666232169442
0.667002493672
0.668309375345
0.66905367651
0.66945968611
0.669494266785
0.669070668035
0.668155852961
0.666932847338
0.665436416666
0.663679027256
0.66180987256
0.659777940551
0.611964100384
0.684173415126
0.653280721981
0.667973024783
0.662728980808
0.665847448084
0.665976236604
0.666628557721
0.666782844665
0.666664101259
0.666269519325
0.665529385875
0.664406378392
0.663068956407
0.661546843708
0.659842513484
0.658089757326
0.656247916286
0.616167130172
0.685228235932
0.655172072367
0.669244068311
0.663628050942
0.666211692313
0.665833305177
0.666011644886
0.66571448114
0.665224102041
0.664529503137
0.663584806115
0.662318133598
0.660922193063
0.659387148597
0.657735078953
0.656056809044
0.65433810003
0.619506408064
0.686348197847
0.656976732801
0.670521796712
0.664609779561
0.66672676042
0.665935113651
0.665701415261
0.665051038219
0.664261789017
0.663322567878
0.662211507498
0.66084333445
0.659387150441
0.657845483401
0.656216147224
0.654595375633
0.65293536134
0.623205955
0.687594306227
0.658810845911
0.671854865638
0.665649307664
0.66731272566
0.666124047029
0.665513491704
0.664535417737
0.663457805147
0.662314061292
0.661036124803
0.659557331899
0.65802534437
0.656466211351
0.654828701722
0.653234282087
0.651622609587
0.626843770707
0.688815333299
0.660725144226
0.673181684013
0.666682393425
0.667910189675
0.66634669214
0.665372993657
0.664093989821
0.662774939928
0.661424746436
0.660003098289
0.658421799693
0.65683234473
0.655216430603
0.653561199901
0.651948725029
0.650379815348
0.631474731879
0.690338207255
0.662544192964
0.674388152553
0.667633372734
0.668409972694
0.666493187394
0.665207298717
0.663653013944
0.662095037395
0.660548620998
0.658990067767
0.657299576854
0.655624434764
0.653955655005
0.652235311151
0.650547034276
0.6488718462
0.631639612883
0.690074849335
0.665500545569
0.676152650867
0.669343636837
0.669728644764
0.667572364534
0.666029698738
0.66425983305
0.662503595539
0.66080505735
0.659139556681
0.657393627652
0.655674654796
0.653976519311
0.652256227269
0.650578628717
0.649131901549
0.657632225521
0.696547360263
0.666792426102
0.677491258831
0.670187097128
0.670096450943
0.667559534397
0.665664117204
0.663557054569
0.661455504461
0.659381887583
0.657470165823
0.655537258579
0.653616322779
0.651751529612
0.649844079737
0.647904614173
0.645723408413
0.600316756231
0.68290517773
0.677469506351
0.682276906618
0.67623569874
0.675741036834
0.673408076039
0.671707811736
0.669886118581
0.668081577437
0.666432204993
0.664907390021
0.663314812361
0.66174008916
0.660190296732
0.658514914401
0.656745871068
0.655435755266
0.79112618982
0.713535562134
0.680168535156
0.689158291901
0.682004820441
0.681197879056
0.678136208331
0.675467927769
0.67240141417
0.669091749354
0.665646940142
0.662430935945
0.65917938404
0.655803344695
0.65239505857
0.648946491505
0.645423834966
0.64198695455
0.644334678674
0.672292959178
0.669797362825
0.671094982259
0.663620964094
0.662733801861
0.660243925784
0.658340056002
0.656400042782
0.65470821911
0.653364900472
0.652116576435
0.650804836392
0.649827309918
0.649182760941
0.648662649341
0.648423413357
0.647703284032
0.50015156778
0.499790453555
0.499611987369
0.499640691889
0.499849536922
0.500191854398
0.500597175032
0.501025736074
0.5014507325
0.501854474392
0.502225672661
0.502557809739
0.502847651658
0.50309427741
0.503298372921
0.503461904197
0.503587438495
0.503678440932
0.503738172194
0.5037698264
0.503776932875
0.503761943921
0.503728388319
0.503677161541
0.503610436914
0.503527900266
0.50343137803
0.503320673221
0.503196640093
0.503058533451
0.502906808902
0.502741030913
0.502561787367
0.502368369938
0.502161177671
0.501940463192
0.501707464968
0.501461585632
0.50120411348
0.500935225758
0.500656347203
0.500368322674
0.500072833429
0.499771567359
0.49946657172
0.499160333206
0.498855310932
0.498554437591
0.498260752812
0.497976948154
0.497705581221
0.497447683739
0.497206071594
0.496984553018
0.496788114925
0.496621559124
0.496489908692
0.496398239314
0.496351684643
0.496355125615
0.496412060053
0.496523030839
0.496687956155
0.496907077846
0.497179655222
0.497504041849
0.497879102556
0.498303339991
0.49877402606
0.49928862251
0.499843068104
0.500433482868
0.501054990165
0.501703122583
0.502372838352
0.503059780241
0.503759423029
0.504466828833
0.505177709535
0.505889112467
0.506598607968
0.507302762715
0.507999290022
0.508685556122
0.509362326942
0.510026952825
0.510679611947
0.511325979001
0.511962549628
0.512591875898
0.513213607877
0.513828047128
0.514437094575
0.515013652539
0.515542145524
0.51605964745
0.516597914288
0.517141600406
0.517685724812
0.518222143551
0.518858937824
0.519581630888
0.51956389599
0.519441189626
0.51947785302
0.519736976281
0.52021416689
0.520437761593
0.520748628125
0.521028823289
0.521269854684
0.521477211349
0.521660829064
0.521826866118
0.521979703325
0.522122260294
0.52225740302
0.522388220061
0.522515468039
0.522638012784
0.522752394328
0.52285728002
0.522953917504
0.523043342197
0.523128402606
0.523210374416
0.523289993494
0.523367629718
0.523443542637
0.523517935847
0.523591085314
0.523663147171
0.523734228633
0.523804200228
0.523872992491
0.523940363294
0.524006169427
0.524070665189
0.52413326713
0.524193665821
0.52424989647
0.524303247876
0.524352825289
0.524397102223
0.524434370041
0.524462820055
0.524481363128
0.524489199576
0.524485606528
0.524470022309
0.524441374405
0.524398172447
0.524338698864
0.524261256103
0.524163972343
0.52404493792
0.523901977058
0.523732742899
0.523534118048
0.523302567496
0.523032727949
0.522718987178
0.522353196201
0.521924177737
0.521416589446
0.520813613063
0.520094495085
0.519242972453
0.51824609345
0.517081157014
0.515735054361
0.514210878373
0.512525809048
0.510719539601
0.50885085829
0.506864491967
0.50481457405
0.502783176727
0.500882694163
0.499435779816
0.500062871118
0.499802184331
0.499873537038
0.500158143237
0.500518154826
0.500890851449
0.501251523813
0.501587737319
0.501894796375
0.502170950691
0.502416260571
0.502630412509
0.502814470928
0.502969014875
0.50309561368
0.503195622039
0.5032711207
0.503324173106
0.503357506832
0.503372854485
0.503372969038
0.503359416342
0.503334717306
0.503299166205
0.503254282763
0.503199270123
0.503135100777
0.503060964744
0.502976785891
0.50288129801
0.502774470563
0.502655355702
0.502523501605
0.502377808524
0.502218698211
0.502045518337
0.501858648462
0.501657862212
0.501443696681
0.501216070585
0.500975945325
0.500724090787
0.500461916804
0.500191104007
0.499913766147
0.499632512046
0.499350483749
0.499071031374
0.498798461114
0.498537538631
0.498295457707
0.498076818319
0.49788408686
0.497719770565
0.497587242301
0.497489784686
0.49743058999
0.497414714941
0.497447405633
0.497530146113
0.497663893757
0.497850466534
0.498090031658
0.498380965255
0.498722525894
0.499113164918
0.499550794863
0.500033570742
0.500559515157
0.501126905473
0.501733493332
0.502377118524
0.503054671468
0.50376300345
0.504498450129
0.505256859135
0.506033520203
0.506823446994
0.50762127225
0.508422992154
0.509225307169
0.510024116299
0.510814855655
0.511595366497
0.512367069299
0.513124682258
0.513861540705
0.514587973371
0.51532537993
0.516056414449
0.51675239344
0.517448493556
0.518187527915
0.518942677872
0.519630678338
0.520245932231
0.520896520377
0.52140191686
0.521907871679
0.522454134747
0.522982393205
0.52364133958
0.524079022392
0.52455279148
0.524971878136
0.525412041338
0.525656542072
0.525797989298
0.525917022079
0.5260621491
0.526235692867
0.526417725153
0.526604948227
0.526794778141
0.526986770631
0.527180833008
0.527378082873
0.527580049733
0.527787073751
0.527996118661
0.528203069264
0.528405832562
0.528604054685
0.528799143162
0.528992749278
0.529185531275
0.529377919761
0.529570138411
0.529762351253
0.52995457009
0.530146890651
0.530339353293
0.5305320241
0.530724915109
0.530918230143
0.531112276379
0.531307760276
0.531505606349
0.531706587293
0.531910375033
0.532116717936
0.532326891336
0.532541353026
0.532759889016
0.532981662228
0.533206251871
0.533434017314
0.533665854618
0.533902871709
0.534145975783
0.534396109316
0.534654255
0.53492136332
0.535197925688
0.535483579489
0.53577728709
0.536077083001
0.536380324398
0.536683335551
0.536982576751
0.537272998786
0.537548917897
0.537804965428
0.538036988448
0.538241190723
0.538414548166
0.538560881448
0.538672557936
0.538750728525
0.538797131062
0.538810181029
0.538782380175
0.538703310034
0.53856920083
0.538311228297
0.538023501685
0.537689053277
0.537321757693
0.536965946682
0.536597818019
0.500395401435
0.500298672084
0.500343291714
0.500495581588
0.500666522083
0.500814985213
0.500944461068
0.501061890667
0.501173537502
0.501281709055
0.501387010522
0.501488319704
0.501584107303
0.501672474396
0.501751973316
0.501821331202
0.501879997314
0.501927590606
0.501964495354
0.501991111312
0.502008364988
0.502016273977
0.502016421997
0.50200846706
0.501992894403
0.501969013848
0.501937133038
0.501896090588
0.50184561873
0.501784497166
0.501712339827
0.501627862462
0.501530890968
0.501420527504
0.501296618195
0.501158766071
0.501007513299
0.500842371568
0.500663942056
0.500472499338
0.50026889411
0.500054046967
0.499829349264
0.499596486799
0.499357528458
0.499114881839
0.498871459347
0.498630419345
0.498395349461
0.498170122952
0.497960398508
0.497772080551
0.4976116342
0.497483143065
0.497389700199
0.497333737093
0.497317235339
0.497339839721
0.4974004242
0.497500376848
0.497642268729
0.497828394688
0.4980629989
0.498350290945
0.498693607085
0.499096169283
0.499559675686
0.50008418717
0.500667836457
0.5013075351
0.501998587426
0.502735338316
0.503511256224
0.504319410718
0.505152726716
0.506004188467
0.506867085624
0.507734966826
0.50860190675
0.509462444871
0.510313905397
0.511153018908
0.511975163536
0.512777487007
0.513563747356
0.514335425735
0.515078398812
0.515789556031
0.516492998232
0.517199159012
0.517874970362
0.518494242991
0.519133691388
0.519770321301
0.520371146537
0.520941938311
0.521461933964
0.521837220073
0.52229202087
0.522931468973
0.523640803467
0.524105494437
0.524290312922
0.524492002389
0.52459679484
0.524772527588
0.52507669692
0.525513077035
0.52593971122
0.526313557288
0.526652076181
0.526961346597
0.527250207701
0.527523436438
0.527784788117
0.528036976932
0.528282761105
0.52852437823
0.528762496641
0.52899482543
0.529218957447
0.52943431268
0.52964219159
0.529844775305
0.530043116762
0.530237843394
0.530429359281
0.530617973061
0.530804049024
0.530987993418
0.531170227685
0.531351111787
0.531530898426
0.531709816378
0.531888125975
0.532066222639
0.53224463604
0.532423643904
0.532603184224
0.532781827383
0.532959242012
0.533136222006
0.533313852578
0.533491707387
0.5336681696
0.533841885257
0.534012140825
0.534178816184
0.53434177471
0.534500883909
0.534655940261
0.534806950917
0.534953758987
0.535096439181
0.535235364018
0.535371231187
0.535504923948
0.535637749485
0.535771164055
0.53590702583
0.5360471644
0.536193343498
0.536347308837
0.536510977038
0.536685860186
0.536873716194
0.537077591223
0.537298270116
0.537532628909
0.537777521955
0.538027376231
0.538270969686
0.538494511862
0.538671835256
0.538776102101
0.53879115549
0.538703262742
0.538514841682
0.538276695363
0.538136136871
0.500851067003
0.500756357506
0.500553317411
0.500478342764
0.500465692294
0.50045913066
0.50046250232
0.500480199409
0.500515378813
0.500568296168
0.500637155451
0.500718372365
0.500808576122
0.500904062527
0.501001878826
0.501099295306
0.501194412682
0.501285660618
0.501372393255
0.501453457162
0.501529122178
0.501598964077
0.501663120087
0.501720896572
0.501772659655
0.501817010236
0.501853661314
0.501881328899
0.501899281514
0.501905937205
0.501900500609
0.501881692511
0.501848748685
0.501800400134
0.501736770351
0.50165697592
0.501561153236
0.501449192495
0.501321700254
0.501178967607
0.501022169442
0.500852530472
0.500671898118
0.500482472494
0.50028690076
0.500088253924
0.499890136161
0.499696214948
0.499510750782
0.499338319356
0.499183356946
0.499049191917
0.498941267733
0.498864235076
0.498822380753
0.498819280402
0.498858202208
0.498940686312
0.499065213659
0.499228901076
0.49943088714
0.499672025226
0.49995493002
0.500282247061
0.500657222796
0.501082888719
0.501561772887
0.502095657907
0.502685166226
0.503329426162
0.504026033441
0.504770789858
0.505557841481
0.5063806315
0.507231786336
0.508102700835
0.50898536349
0.509873282075
0.510758271047
0.511632514046
0.512492772865
0.513338923135
0.514162336137
0.514953429765
0.515720405172
0.516471233196
0.517192034178
0.517850195579
0.518492497976
0.519129865127
0.519728391197
0.520271179021
0.520771516992
0.521254143268
0.52169427194
0.52214127316
0.522653824071
0.523220131715
0.52389232335
0.524519842627
0.524929159866
0.525063631834
0.525146286337
0.52529852897
0.525463860217
0.525753401225
0.526202136421
0.526762818677
0.527308621272
0.527782279973
0.528191039358
0.528548052196
0.528867603056
0.529159300603
0.529430155077
0.529685335573
0.529928998403
0.530164332683
0.530392163106
0.530611240127
0.530820299787
0.531020162046
0.531213567236
0.531402468651
0.531587653499
0.531769394659
0.531947951125
0.532123619602
0.532296771507
0.532467813962
0.532637199782
0.532805404807
0.532972759858
0.533139571973
0.533306232464
0.533473287405
0.533641145751
0.533809744679
0.533978133173
0.534144782183
0.534309233869
0.534473114654
0.534638448627
0.534805376052
0.534972844885
0.535139883767
0.535306141455
0.535471729073
0.535636852128
0.535801755396
0.535966597765
0.536131543527
0.536296528598
0.536461420163
0.536626037301
0.536790131092
0.536953283402
0.537115019087
0.537274637184
0.537431415297
0.537584914822
0.537734698479
0.537880356216
0.538022117779
0.538160680155
0.538297693056
0.538436749547
0.538580210682
0.538729993055
0.538889131159
0.539058742624
0.539236131459
0.539416462699
0.539591124405
0.539741277561
0.539861320169
0.539942324166
0.539991561139
0.540065830133
0.540288460817
0.501398750994
0.50089392443
0.50033485572
0.500134792764
0.500080123362
0.50004825091
0.500032675228
0.500035000583
0.500059437758
0.500106053727
0.500173710043
0.50025941117
0.500359978479
0.500471624774
0.500591320176
0.500715880029
0.500843211703
0.500970945798
0.501097898262
0.501222855551
0.501345282351
0.501463925111
0.50157909943
0.501689595876
0.50179496952
0.501894161081
0.501986579534
0.502070568354
0.502145233977
0.502208965782
0.502260777238
0.502298964905
0.502322906943
0.502331425554
0.502323981844
0.502299811375
0.502259185509
0.502201487743
0.502127239558
0.502036707752
0.501930865661
0.501810719055
0.501677938294
0.501534412491
0.501382566155
0.501225021205
0.501065018986
0.500905947896
0.500751468988
0.50060584835
0.500474852367
0.500362478887
0.500273751078
0.500213554818
0.500185738414
0.500193685531
0.500241131644
0.500330541676
0.500462332551
0.500637924885
0.500858493219
0.501124491049
0.501437111217
0.50179823779
0.502210551232
0.502676449344
0.503197844919
0.503775787833
0.504409568561
0.505097415007
0.505836030384
0.506620688479
0.507444186907
0.508300409768
0.509182300887
0.510080796343
0.510986524198
0.511895204133
0.512802018633
0.513692970573
0.514560518776
0.515413571721
0.516244786224
0.517035169632
0.517796027076
0.518541630662
0.519252097424
0.519908065986
0.520501574586
0.521068377728
0.521626951535
0.522127484159
0.522612902642
0.523067563363
0.523546705859
0.524130289589
0.524773844409
0.525396834393
0.525927573441
0.526243364606
0.5263444249
0.526346917276
0.526425106064
0.526606424902
0.526859131199
0.527218894663
0.527675079492
0.528181083487
0.528668039517
0.529102864196
0.529484304467
0.529819692749
0.530119506028
0.530392127777
0.530644149363
0.53088064076
0.53110559378
0.531321652122
0.531529247984
0.531727357087
0.531915434721
0.532095242018
0.532269669694
0.532440320747
0.532607586858
0.532771446221
0.532931928078
0.53308920001
0.53324357775
0.533395519965
0.53354552793
0.533694047654
0.53384148806
0.533988220389
0.534134785743
0.534281807769
0.534429541233
0.534577434892
0.534723654603
0.534866501969
0.535005494721
0.535143026742
0.535281405268
0.535421046831
0.535561175174
0.535700902046
0.535839888469
0.535978102252
0.536115685609
0.536252750685
0.536389436475
0.536525860075
0.536662106217
0.536798236524
0.536934352407
0.537070528758
0.537206813005
0.537343237892
0.537479735412
0.537616260265
0.537753048236
0.537890307725
0.538028328808
0.538167814741
0.538309559764
0.538454776848
0.538605950008
0.538764309865
0.538930299643
0.539105236563
0.539288076655
0.539475044751
0.539662073807
0.539842345139
0.540005242397
0.540148759618
0.540276193227
0.540407702727
0.540607879888
0.540986331064
0.501929129291
0.500500723433
0.499688698276
0.49962795136
0.499700763197
0.499740190733
0.499764290137
0.499788968242
0.499826881539
0.499883201977
0.499959844569
0.500054778656
0.500166134091
0.500290466577
0.500425352709
0.500567648869
0.500715394249
0.500866253915
0.50101908537
0.501171892734
0.501324344054
0.50147528667
0.501624060455
0.501769556602
0.501911557049
0.502048325552
0.50217906926
0.502302204512
0.50241659194
0.50252042163
0.502612520787
0.502691354263
0.502755897015
0.502804717162
0.502837639923
0.502853652324
0.502852713761
0.502834588928
0.502799843441
0.502748717326
0.502682433693
0.502602091794
0.502509569486
0.502406834275
0.502296411639
0.502180898291
0.502063501244
0.501947239992
0.501835696815
0.501733038086
0.501644860067
0.501575157373
0.501529451379
0.501512836117
0.501529934848
0.501584919263
0.501681630647
0.501819511068
0.501997280975
0.502214326379
0.502471082108
0.502767880659
0.50310627938
0.503488530293
0.503919239609
0.504402573577
0.50494254696
0.50554175984
0.506200189363
0.506915125842
0.507684183601
0.508501370102
0.509357468684
0.510243504051
0.511154847196
0.512080970067
0.513007313108
0.513927447836
0.514844116179
0.515746827878
0.516609834383
0.517467436069
0.518301950309
0.519099158473
0.519846996042
0.520540765548
0.521202806984
0.521826902796
0.5224143629
0.522985859418
0.523501867776
0.524008560081
0.524583073938
0.525162726853
0.525759642691
0.526334955948
0.526834497548
0.527230358486
0.527497646807
0.527615146432
0.527645123266
0.527691217792
0.527828337848
0.528050038102
0.528338817139
0.528697949091
0.529108109064
0.529538210242
0.529953613211
0.530336272985
0.530681772993
0.530992138975
0.531272801622
0.531529253284
0.531766412659
0.531988446342
0.532198780748
0.532399347715
0.532590419907
0.53277116671
0.532941761831
0.533104635854
0.533262439348
0.53341659455
0.53356740097
0.533714808885
0.53385878675
0.533999479408
0.534137196329
0.534272401324
0.534405595024
0.53453725676
0.534667836235
0.534797837049
0.534927924282
0.535058769515
0.535190462452
0.535321827629
0.535450753578
0.535575193216
0.535695255189
0.535813547796
0.535932383473
0.536052413103
0.536173031028
0.5362935583
0.536413684466
0.536533390755
0.536652753019
0.536771825184
0.536890667801
0.53700933639
0.537127895017
0.537246417461
0.537365008887
0.537483759552
0.537602737258
0.537722012303
0.537841582446
0.537961513599
0.538082106439
0.538203651964
0.538326598561
0.538451840905
0.538580394829
0.538713630098
0.538853909993
0.53900256853
0.539160252385
0.539328337762
0.539505749201
0.53968917918
0.539875762615
0.540060600587
0.540235544063
0.540401189372
0.540564445503
0.540749430185
0.54101768851
0.541456045383
0.502284448221
0.499520749094
0.498805346717
0.499172183617
0.499440624017
0.499568353152
0.499642944322
0.499703879699
0.499773703693
0.499859060343
0.499963226344
0.500084633099
0.500222095392
0.500372414042
0.500533782985
0.500703172233
0.500879110339
0.501059046666
0.50124198868
0.501426431666
0.501611607565
0.501795944433
0.501979420447
0.502160523336
0.50233852331
0.502512199039
0.502680680317
0.502842162604
0.502995583304
0.503139176569
0.503271791917
0.503391636575
0.503497923611
0.503589411535
0.503665438271
0.503725236006
0.503768975125
0.503796136801
0.503807340034
0.503802967874
0.503784201129
0.503752111449
0.503708502435
0.503655125642
0.503594239182
0.503527861526
0.50345865636
0.503388988045
0.503321373236
0.503258946073
0.503207998612
0.503171874943
0.503156788776
0.503169922229
0.50321778996
0.503306478969
0.503439374824
0.503613461532
0.503827351641
0.504079535281
0.504369356882
0.504694633023
0.505055959971
0.505456752167
0.505903399681
0.506400361693
0.506953497748
0.507567549754
0.508242638638
0.508975122068
0.509762221554
0.510601228769
0.511479206272
0.512381611806
0.513304744129
0.514241651889
0.515176044721
0.516100675797
0.517023686912
0.517926483817
0.518799123713
0.519626399513
0.520403786926
0.52115654767
0.521873970585
0.522545188048
0.523169440156
0.523748757789
0.524321960653
0.524917113368
0.525490524194
0.526076790152
0.526667957511
0.527209628061
0.527712788582
0.528134829252
0.528454980191
0.52867869688
0.528818199211
0.528897888188
0.528971900051
0.52909095308
0.529275650666
0.529515039033
0.529800419534
0.530127858782
0.530483172822
0.530847778961
0.531202983704
0.531537468789
0.531846225391
0.532128634088
0.532386835461
0.532623998398
0.532843511282
0.533048716862
0.533242297152
0.53342573068
0.533599058389
0.533761814257
0.53391482264
0.534060484254
0.534201225085
0.534338278467
0.534471981984
0.534602309807
0.534729255508
0.53485293943
0.534973660763
0.535091850143
0.535208003545
0.53532261514
0.535436161239
0.535549244501
0.535662616841
0.535776962783
0.53589211229
0.536006481475
0.536117674914
0.536223698537
0.536325177802
0.536424668891
0.536524484166
0.536625269264
0.536726597649
0.536828004376
0.536929282147
0.537030482089
0.537131630755
0.537232763867
0.537333857946
0.537434953173
0.537536083156
0.537637359011
0.537738897187
0.537840843867
0.537943310465
0.53804644393
0.538150336759
0.538255173063
0.538361348587
0.538469248528
0.538579437851
0.538692891494
0.538810728496
0.538934301532
0.539065804955
0.539206467793
0.539356977909
0.539518600397
0.539690439142
0.539869667704
0.540054529337
0.540241884282
0.540426129242
0.540609987441
0.540802924758
0.541030506664
0.54134766664
0.54181953166
0.502354897321
0.498099701599
0.497968682403
0.498910731901
0.499313947872
0.499506102477
0.499634043637
0.499746774953
0.499867203544
0.500000726256
0.50015066337
0.500314586429
0.500492306652
0.50068068954
0.500878792243
0.501083760455
0.501294602287
0.501509040023
0.501726470865
0.501944872282
0.502164008611
0.502382462206
0.502599547886
0.502814137411
0.503025971462
0.503233326805
0.503435534037
0.503631100564
0.503819026712
0.503997631194
0.50416592061
0.504322503558
0.504466491197
0.504596662149
0.504712862164
0.504814230353
0.504900795757
0.504972454385
0.505029808159
0.505073180714
0.505103819079
0.505122706309
0.505131447205
0.505131459295
0.505124391538
0.505111545441
0.505094265454
0.505073622849
0.505050849671
0.505027455563
0.505008458106
0.504999835865
0.505009481861
0.505048938605
0.505130115322
0.50526347708
0.505449510841
0.505681658937
0.505955976217
0.506267682318
0.50660983145
0.506974867011
0.507359927754
0.507773800695
0.508225495797
0.508723160646
0.509274852446
0.509889799249
0.510571616673
0.511312500684
0.512105171726
0.512950562589
0.513838302487
0.514741566629
0.515674258069
0.51662122861
0.517558302504
0.518475937767
0.519360641929
0.520205872334
0.521031469753
0.52182420981
0.52257161567
0.523273902683
0.523927799331
0.524539585245
0.525133414017
0.525731330979
0.52633701481
0.526937468344
0.527498579093
0.528038732616
0.528532801866
0.528962287981
0.529334228056
0.529625801309
0.529839350803
0.529993897889
0.530111785699
0.530219200654
0.530345013987
0.530507210408
0.530708496093
0.530942459537
0.531205414778
0.531493798069
0.531798868117
0.532109419603
0.532414264372
0.532705463551
0.532978423477
0.533231423856
0.53346486722
0.53368034452
0.533880150289
0.534066832625
0.53424241562
0.534407930345
0.534563293837
0.534708302084
0.534844065063
0.534972812704
0.535096608096
0.535216585492
0.5353331539
0.535446376123
0.535556293138
0.535663032973
0.535766879345
0.535868226254
0.535967545299
0.536065302338
0.536162015511
0.536258343203
0.536355161273
0.536453083094
0.53655165576
0.536649070829
0.53674278029
0.536831222321
0.536915252847
0.536997300737
0.537079429827
0.537162232447
0.53724548181
0.537328859848
0.537412319368
0.537495946961
0.537579802295
0.537663885573
0.537748146617
0.53783258707
0.537917232836
0.538002199273
0.538087625745
0.538173692299
0.538260559891