/*--------------------------------*- C++ -*----------------------------------*\
| =========                 |                                                 |
| \\      /  F ield         | OpenFOAM: The Open Source CFD Toolbox           |
|  \\    /   O peration     | Version:  v1806                                 |
|   \\  /    A nd           | Web:      www.OpenFOAM.com                      |
|    \\/     M anipulation  |                                                 |
\*---------------------------------------------------------------------------*/
FoamFile
{
    version     2.0;
    format      ascii;
    class       volVectorField;
    location    "9";
    object      U;
}
// * * * * * * * * * * * * * * * * * * * * * * * * * * * * * * * * * * * * * //

dimensions      [0 1 -1 0 0 0 0];


internalField   nonuniform List<vector> 
12225
(
(9.73814678681 0.0393289985818 0)
(9.50294076547 0.0413312264505 0)
(9.24935337323 0.0402505869678 0)
(8.99877145297 0.0400129219415 0)
(8.76087910964 0.0399524165475 0)
(8.53618378147 0.039692912043 0)
(8.32288030742 0.0392079037057 0)
(8.11944682563 0.0385843083619 0)
(7.92496495815 0.0379138046483 0)
(7.73885095724 0.0372634326442 0)
(7.56059364055 0.0366768892202 0)
(7.38961064952 0.0361848079031 0)
(7.22519043616 0.0358151593222 0)
(7.06647386685 0.0356043997707 0)
(6.91240565403 0.0356149710549 0)
(6.76153468331 0.0359878748706 0)
(6.61191508426 0.0372364723425 0)
(6.44895272359 0.0341797125532 0)
(10.0160940443 0.0705702898486 0)
(10.0369312185 0.0710453727804 0)
(10.0260138535 0.0669820518447 0)
(9.99850196575 0.0665168846754 0)
(9.96469664927 0.067323689108 0)
(9.92705371322 0.0680615120536 0)
(9.88563553946 0.0684741587939 0)
(9.84048933834 0.068678389912 0)
(9.79199110655 0.068837470917 0)
(9.7406491341 0.0690717191936 0)
(9.68690546451 0.0694580965527 0)
(9.63103312352 0.0700543091784 0)
(9.57309930644 0.0709236143721 0)
(9.51295160767 0.0721616162635 0)
(9.45017762224 0.0739394081935 0)
(9.38397535772 0.0766100831882 0)
(9.31370264602 0.0811067425802 0)
(9.23025507217 0.0905649758549 0)
(10.0211010322 0.0577687715908 0)
(10.0538064193 0.0589995188494 0)
(10.0690830573 0.0556444855321 0)
(10.0737828461 0.0570086965441 0)
(10.0755496342 0.0600491335509 0)
(10.0760419111 0.0628280537024 0)
(10.0747288366 0.0649911039677 0)
(10.0710894773 0.0667504864962 0)
(10.064996302 0.068379324357 0)
(10.056545133 0.0700745764004 0)
(10.0458625044 0.0719615512102 0)
(10.0330011061 0.0741354467785 0)
(10.017901566 0.0767027270292 0)
(10.0003826076 0.0798229657959 0)
(9.98013603567 0.0837687676806 0)
(9.9567164316 0.0890384748933 0)
(9.9300938575 0.0965802423936 0)
(9.89604492588 0.106728461534 0)
(10.0159259389 0.0473176137478 0)
(10.0435810467 0.0551775523812 0)
(10.060495821 0.0557128070533 0)
(10.0686214419 0.0588331614878 0)
(10.0741880348 0.0627808528194 0)
(10.0791487358 0.066009211296 0)
(10.0832376793 0.0683850343993 0)
(10.0859793099 0.0702889637913 0)
(10.0871852953 0.0720993772923 0)
(10.0868662154 0.0740663168291 0)
(10.0850745645 0.0763387877633 0)
(10.0818145989 0.0790258584759 0)
(10.0770131111 0.0822510603376 0)
(10.0705224361 0.0862006342974 0)
(10.0621436292 0.0911798178934 0)
(10.0516731375 0.097688031671 0)
(10.0392706752 0.106513710764 0)
(10.023213807 0.117931204805 0)
(10.0116810368 0.0392286916385 0)
(10.0341080902 0.0507967319571 0)
(10.0501368366 0.0531085482074 0)
(10.0587003965 0.0560565818774 0)
(10.0645183265 0.0595581150179 0)
(10.0696563018 0.0625574639607 0)
(10.0741084307 0.0649528113258 0)
(10.0774887301 0.0670757122019 0)
(10.079603661 0.0692549458244 0)
(10.080440168 0.0717036936313 0)
(10.080040417 0.0745495589767 0)
(10.0784201329 0.0778951349793 0)
(10.0755418218 0.0818698384867 0)
(10.0713228398 0.0866724198576 0)
(10.0656690871 0.0926128989716 0)
(10.0585352987 0.100153821707 0)
(10.0501462813 0.109938121252 0)
(10.0398972056 0.122355162693 0)
(10.0085381572 0.032747515925 0)
(10.0265551277 0.0462030893197 0)
(10.0412377863 0.0502897193582 0)
(10.0498997314 0.0537438515388 0)
(10.055777857 0.057588221443 0)
(10.0608184637 0.0611181535469 0)
(10.0651988014 0.0641619605532 0)
(10.0686166483 0.0669468913236 0)
(10.0708795216 0.0697510321777 0)
(10.0719567296 0.0727813541179 0)
(10.0718848672 0.0761836294699 0)
(10.0706941673 0.0800881377624 0)
(10.0683824552 0.0846519650864 0)
(10.0649244872 0.0900927235585 0)
(10.0603075972 0.0967165492868 0)
(10.0545903021 0.104935548398 0)
(10.048045393 0.115261249084 0)
(10.0405873656 0.128081926293 0)
(10.0062330559 0.0275671267526 0)
(10.0206301308 0.0417552579433 0)
(10.0337818524 0.0473739718036 0)
(10.0423253455 0.0514160365185 0)
(10.0482194938 0.0555116472955 0)
(10.0531490112 0.0593178015043 0)
(10.0574151481 0.0626755777982 0)
(10.0608052052 0.0657666744446 0)
(10.0631421052 0.0688588534082 0)
(10.064384906 0.0721782335388 0)
(10.0645657063 0.0758996313766 0)
(10.0637265252 0.0801788860051 0)
(10.0618947755 0.0851882238358 0)
(10.0590921289 0.0911437905235 0)
(10.055367542 0.0983237149131 0)
(10.0508470535 0.10707026877 0)
(10.0458271132 0.117765842776 0)
(10.0404111358 0.130692747019 0)
(10.0045567505 0.0234192736561 0)
(10.0160299009 0.0375777001954 0)
(10.0276046724 0.0443643463314 0)
(10.0358439559 0.0490003738066 0)
(10.0417096449 0.0533555230408 0)
(10.0465510389 0.0574272873285 0)
(10.0507309376 0.0611228924291 0)
(10.0541196874 0.0645968294075 0)
(10.056563923 0.068097703639 0)
(10.0580173311 0.0718520407351 0)
(10.0585075952 0.0760428375341 0)
(10.0580857213 0.0808316459474 0)
(10.0568036546 0.0863874804896 0)
(10.0547210915 0.0929085101287 0)
(10.0519327862 0.100631833026 0)
(10.0486069491 0.109825957988 0)
(10.0450441548 0.120760342539 0)
(10.0414507814 0.133603946084 0)
(10.0033440606 0.0200813192802 0)
(10.012488387 0.0337398435987 0)
(10.0225419364 0.0413227947986 0)
(10.0303359812 0.0465122177106 0)
(10.0361208595 0.0511403537534 0)
(10.040891893 0.0554639674451 0)
(10.0450151976 0.0594728510287 0)
(10.0484285684 0.0633036911518 0)
(10.0510071438 0.0671801141676 0)
(10.052704994 0.0713197073373 0)
(10.053547468 0.0759063435975 0)
(10.0535933769 0.0811025652527 0)
(10.0529149791 0.0870709075016 0)
(10.0516015805 0.0939891815249 0)
(10.0497794828 0.102053699071 0)
(10.0476383954 0.111466714482 0)
(10.0454627865 0.12240634622 0)
(10.0434971423 0.134948955945 0)
(10.0024695433 0.0173728789001 0)
(10.0097826706 0.0302637260899 0)
(10.0184385532 0.0383008139671 0)
(10.0256970841 0.0439537941243 0)
(10.0313486938 0.0488482506783 0)
(10.0360599323 0.0534048955589 0)
(10.0401561335 0.057696949508 0)
(10.0436230921 0.0618559984534 0)
(10.0463659439 0.0660830264721 0)
(10.0483443838 0.0705829531071 0)
(10.0495835786 0.0755356057723 0)
(10.050148396 0.0810994790763 0)
(10.0501259195 0.0874256576603 0)
(10.0496255076 0.0946672525203 0)
(10.0487911571 0.102978649441 0)
(10.0478174225 0.112501967178 0)
(10.0469606615 0.123342058284 0)
(10.0464931732 0.135509129978 0)
(10.0018382906 0.0151541095366 0)
(10.0077275966 0.0271536459052 0)
(10.0151480203 0.0353596692149 0)
(10.0218316418 0.0413530411591 0)
(10.0273080729 0.0464798607203 0)
(10.0319669759 0.0512393726583 0)
(10.0360657021 0.0557755185269 0)
(10.0396179114 0.060222873824 0)
(10.0425564984 0.0647619897536 0)
(10.0448501365 0.069581096415 0)
(10.0465252462 0.0748496177899 0)
(10.0476504367 0.080715799471 0)
(10.0483216006 0.0873141022125 0)
(10.0486587379 0.0947704313064 0)
(10.048811615 0.103199202061 0)
(10.0489674025 0.112691788842 0)
(10.0493465953 0.123298135885 0)
(10.050239331 0.134986493 0)
(10.0014175904 0.0134274050681 0)
(10.0063035591 0.0245659891604 0)
(10.0127508538 0.0327365757796 0)
(10.0189084336 0.0389343486113 0)
(10.0241998845 0.0442356225366 0)
(10.0288182407 0.0491529245403 0)
(10.0329473875 0.0538778252288 0)
(10.0366096233 0.0585508642371 0)
(10.039758423 0.0633361454626 0)
(10.0423717903 0.0684044115628 0)
(10.0444778645 0.0739113444646 0)
(10.0461462387 0.0799916945308 0)
(10.0474754601 0.0867622146499 0)
(10.0485874765 0.0943235022609 0)
(10.0496285556 0.102757265668 0)
(10.0507718322 0.112116708547 0)
(10.0522043618 0.122414868948 0)
(10.0542332658 0.13359571773 0)
(10.0011038746 0.0119778636564 0)
(10.0052016585 0.0222494919752 0)
(10.0108215813 0.0302161735202 0)
(10.016481298 0.0364950032866 0)
(10.0215775571 0.0419145091575 0)
(10.0261577137 0.046952225697 0)
(10.0303338431 0.0518239789943 0)
(10.0341260493 0.0566755792952 0)
(10.0375033298 0.0616574829004 0)
(10.0404527368 0.0669223584191 0)
(10.0430041328 0.0726093855308 0)
(10.0452264647 0.0788370290685 0)
(10.0472169834 0.0857030032447 0)
(10.0490945782 0.0932841988276 0)
(10.0509968772 0.101634189764 0)
(10.0530793627 0.110776426988 0)
(10.0554950456 0.120696981427 0)
(10.0585690843 0.13132372683 0)
(10.0008437279 0.0105443793581 0)
(10.004264755 0.0198480724472 0)
(10.0091260387 0.0274474605266 0)
(10.0142894908 0.0336898847594 0)
(10.0191801276 0.0391673562215 0)
(10.0237370295 0.0442889545211 0)
(10.0280012674 0.0492742650424 0)
(10.0319811192 0.0542699868284 0)
(10.035655745 0.0594117465108 0)
(10.0390198082 0.064831429004 0)
(10.0421036975 0.0706470307735 0)
(10.0449725136 0.0769566400264 0)
(10.0477173434 0.0838354759647 0)
(10.0504474432 0.0913360163191 0)
(10.0532850172 0.0994849816437 0)
(10.0563619201 0.108280609838 0)
(10.0597942659 0.117688581277 0)
(10.0639262036 0.127629431782 0)
(10.0006401437 0.00912773375584 0)
(10.0035186356 0.0173764697412 0)
(10.0077339961 0.0244319655675 0)
(10.0124444647 0.0304731344441 0)
(10.0171426127 0.0358939096986 0)
(10.0217023683 0.0410160695135 0)
(10.0261040554 0.0460409861094 0)
(10.0303374372 0.0511065460743 0)
(10.03438505 0.0563305635286 0)
(10.0382455726 0.0618207424045 0)
(10.0419474918 0.0676705571784 0)
(10.0455483332 0.0739535727903 0)
(10.0491274787 0.0807213302238 0)
(10.0527783186 0.0880017864337 0)
(10.0566016015 0.0957990245901 0)
(10.0607016395 0.104091496932 0)
(10.0651565599 0.112832676708 0)
(10.0703320301 0.121941911147 0)
(10.0004945044 0.00770312498121 0)
(10.0029790995 0.01480212106 0)
(10.0067046926 0.0211253250078 0)
(10.0110615125 0.0267645619058 0)
(10.0156250617 0.0319648310935 0)
(10.0202422095 0.0369559783032 0)
(10.0248490556 0.0419016244369 0)
(10.0294147288 0.0469185768624 0)
(10.0339181403 0.0521015857861 0)
(10.0383571719 0.0575316022128 0)
(10.042754205 0.0632748845604 0)
(10.0471550512 0.0693790377227 0)
(10.0516223009 0.0758716646393 0)
(10.0562283105 0.0827592005107 0)
(10.0610483557 0.0900277045852 0)
(10.0661574183 0.0976430512161 0)
(10.0715974089 0.105553083486 0)
(10.0777571999 0.113682315097 0)
(10.000406432 0.0062107087569 0)
(10.0026549427 0.0120294541699 0)
(10.0060854978 0.0174082545842 0)
(10.010247427 0.0224057555577 0)
(10.0147900372 0.0271639408377 0)
(10.0195576031 0.031827606558 0)
(10.0244598787 0.036510027097 0)
(10.0294476775 0.0412958756966 0)
(10.0344916114 0.0462511032454 0)
(10.0395827961 0.0514281309459 0)
(10.0447331851 0.0568650268766 0)
(10.0499726345 0.0625846042711 0)
(10.0553432913 0.0685926638496 0)
(10.0608933455 0.0748790510347 0)
(10.0666712244 0.081417765782 0)
(10.0727232925 0.0881694686792 0)
(10.0790591577 0.0950829290407 0)
(10.0860899358 0.102093028986 0)
(10.0003752319 0.00453971865333 0)
(10.0025556059 0.0088685065088 0)
(10.0059228811 0.0130420536863 0)
(10.0101091199 0.0171128875954 0)
(10.0148064271 0.0211517600751 0)
(10.0198636427 0.0252285397564 0)
(10.0251778569 0.0294013468496 0)
(10.030686822 0.0337152023428 0)
(10.0363506804 0.038203194344 0)
(10.0421496647 0.0428875305057 0)
(10.0480816943 0.0477791408504 0)
(10.0541585712 0.0528776114119 0)
(10.0604011795 0.0581709414116 0)
(10.0668342343 0.0636365772317 0)
(10.0734817155 0.0692422123915 0)
(10.080365801 0.0749477973013 0)
(10.0874707575 0.0807071667111 0)
(10.0952311182 0.0864665819241 0)
(10.0004152188 0.00247474611613 0)
(10.002734073 0.00493426893135 0)
(10.0063359714 0.00753411767312 0)
(10.0108451134 0.0103224621493 0)
(10.0159473991 0.0133005715767 0)
(10.0214902605 0.016462378439 0)
(10.0273680288 0.0198078230452 0)
(10.0335120308 0.02334029682 0)
(10.0398721738 0.0270592875772 0)
(10.0464154693 0.0309584176373 0)
(10.0531243085 0.0350239936308 0)
(10.0599929737 0.0392368665562 0)
(10.0670233671 0.0435718859743 0)
(10.0742202272 0.0479997290438 0)
(10.081587407 0.0524863447546 0)
(10.0891276886 0.0569951266382 0)
(10.0968056705 0.0614869510742 0)
(10.1050728719 0.0659199526279 0)
(10.0005465673 0.000281654571782 0)
(10.0032406144 0.000771912156191 0)
(10.0074004584 0.00173837454542 0)
(10.0125153719 0.00320488269414 0)
(10.0182080928 0.00507896997772 0)
(10.0243262644 0.00727072683885 0)
(10.0307823402 0.00972762180154 0)
(10.0375152934 0.0124184388156 0)
(10.0444709865 0.0153169152744 0)
(10.0516069992 0.0183935526552 0)
(10.0588961458 0.0216177295817 0)
(10.0663236531 0.0249574078571 0)
(10.0738826248 0.0283818072338 0)
(10.0815684113 0.0318591659263 0)
(10.0893753708 0.0353587762789 0)
(10.0972971239 0.0388488101419 0)
(10.1052893546 0.0422992208724 0)
(10.1138098874 0.0456783416654 0)
(10.000727745 -0.00183504586093 0)
(10.0039463277 -0.00316174031056 0)
(10.0088388382 -0.00358288010904 0)
(10.0146652084 -0.0031679293481 0)
(10.0209632562 -0.00215811172382 0)
(10.0276076355 -0.000733683722534 0)
(10.0345528042 0.00101565627889 0)
(10.0417556779 0.00303936026704 0)
(10.0491608775 0.00529277728133 0)
(10.0567216067 0.00772824782219 0)
(10.0644071813 0.0103018628108 0)
(10.0722018039 0.0129736228447 0)
(10.0800970165 0.0157091911276 0)
(10.0880862931 0.0184766554197 0)
(10.096160736 0.0212472035459 0)
(10.1043111584 0.0239922888704 0)
(10.1124904335 0.0266855502927 0)
(10.1211683357 0.0292999505968 0)
(10.0010136425 -0.00415124114668 0)
(10.00502283 -0.00730187608205 0)
(10.010910476 -0.00891769966538 0)
(10.0175754159 -0.00931870138182 0)
(10.0244924573 -0.00898706867353 0)
(10.0316297231 -0.00819043910642 0)
(10.039017419 -0.00703111702414 0)
(10.0466324098 -0.00556502806951 0)
(10.0544144668 -0.00385092317208 0)
(10.0623104201 -0.00194781613146 0)
(10.0702903441 9.03280437554e-05 0)
(10.0783419 0.00222119484925 0)
(10.0864594115 0.00440997666717 0)
(10.0946370618 0.00662836105685 0)
(10.1028651133 0.00884824097193 0)
(10.1111313277 0.0110456030692 0)
(10.1193851305 0.0131958820987 0)
(10.1280915626 0.0152781153832 0)
(10.0014699348 -0.00682256553634 0)
(10.0066477978 -0.0117910558006 0)
(10.0138243834 -0.0143171077425 0)
(10.0213999786 -0.0152620207792 0)
(10.0288897496 -0.0154321141981 0)
(10.036460036 -0.0151385831071 0)
(10.0442401577 -0.0144585840109 0)
(10.0522162841 -0.0134477525786 0)
(10.0603164962 -0.0121830515163 0)
(10.0684859036 -0.0107430684613 0)
(10.0767021156 -0.00919061638733 0)
(10.0849614484 -0.00756991630823 0)
(10.0932645067 -0.0059114959703 0)
(10.101606392 -0.00423826751469 0)
(10.1099754239 -0.00256975847842 0)
(10.1183580563 -0.000927024485525 0)
(10.126705171 0.000667727963511 0)
(10.135503652 0.00219033657139 0)
(10.002208042 -0.0100530741405 0)
(10.0090933786 -0.0167224635889 0)
(10.0178587336 -0.019723358757 0)
(10.0263280518 -0.0209124013852 0)
(10.0342867205 -0.0214276463038 0)
(10.0422174671 -0.0215152974737 0)
(10.0503396102 -0.0211799812078 0)
(10.0586189591 -0.0204697529388 0)
(10.0669617498 -0.0194795549874 0)
(10.0753145789 -0.0183033313254 0)
(10.0836687195 -0.0170109056343 0)
(10.0920351691 -0.0156487311455 0)
(10.1004233997 -0.014246954062 0)
(10.1088325274 -0.0128291073979 0)
(10.1172494587 -0.0114157535664 0)
(10.1256544811 -0.010029984681 0)
(10.1339879719 -0.0086959687837 0)
(10.1427076228 -0.0074411594817 0)
(10.0034073938 -0.0141227086402 0)
(10.0127324295 -0.0221299228322 0)
(10.0233221701 -0.0250226456335 0)
(10.0325452639 -0.0262028969746 0)
(10.0408350207 -0.026997167329 0)
(10.0490800239 -0.0274630124784 0)
(10.0575415925 -0.0275277625677 0)
(10.066131071 -0.0272467873646 0)
(10.0747274712 -0.026727556524 0)
(10.0832818679 -0.0260582790161 0)
(10.0918003628 -0.025291083588 0)
(10.1003062112 -0.0244516782505 0)
(10.1088151772 -0.0235534130939 0)
(10.11732712 -0.0226073570132 0)
(10.1258263591 -0.0216280725441 0)
(10.1342896359 -0.0206361814811 0)
(10.1426560431 -0.0196628006256 0)
(10.1514156458 -0.0187538215442 0)
(10.0053238396 -0.0193980823514 0)
(10.0180201111 -0.0279328742715 0)
(10.0305060187 -0.0300427929016 0)
(10.0401946528 -0.030949823951 0)
(10.0486186155 -0.0317103700593 0)
(10.0570579057 -0.0320654899594 0)
(10.0657350549 -0.0319329023139 0)
(10.0744926233 -0.0314581809344 0)
(10.0832010129 -0.0308172885665 0)
(10.0918334325 -0.0301246767456 0)
(10.1004192932 -0.0294289237724 0)
(10.1089953767 -0.0287379618535 0)
(10.1175808732 -0.0280416419858 0)
(10.1261720959 -0.0273286223777 0)
(10.1347450266 -0.0265927365488 0)
(10.1432606484 -0.0258370802312 0)
(10.151629339 -0.0250839896277 0)
(10.1602673139 -0.024392693167 0)
(10.0083609074 -0.0263305026121 0)
(10.0255415104 -0.0338974701219 0)
(10.0397688912 -0.035011255843 0)
(10.0496840802 -0.0364279082421 0)
(10.0582822369 -0.038144251558 0)
(10.0670368741 -0.039321184382 0)
(10.0759982202 -0.0397789121472 0)
(10.0849189012 -0.0397134240664 0)
(10.0936767425 -0.0393664991017 0)
(10.1022863515 -0.0389031210428 0)
(10.1108147947 -0.03840518285 0)
(10.1193230786 -0.0378985946337 0)
(10.1278416327 -0.0373813208119 0)
(10.1363693376 -0.0368415310042 0)
(10.1448806882 -0.0362649246193 0)
(10.1533283447 -0.0356373803431 0)
(10.1615983897 -0.0349580063895 0)
(10.1700571266 -0.0342855086652 0)
(10.0127326908 -0.0354811358985 0)
(10.0352519149 -0.038601291035 0)
(10.0500553583 -0.0361421293886 0)
(10.0590947406 -0.0360515411587 0)
(10.0670662841 -0.0372180657705 0)
(10.0753712568 -0.0383022122975 0)
(10.0837717205 -0.0389176456686 0)
(10.0918993842 -0.0391382397337 0)
(10.0996305852 -0.0391304003911 0)
(10.1070202121 -0.0390197121334 0)
(10.1141798794 -0.0388718466112 0)
(10.1212061148 -0.0387078324323 0)
(10.1281553207 -0.0385260094034 0)
(10.1350472887 -0.0383128442037 0)
(10.1418758269 -0.0380459363422 0)
(10.1486087098 -0.0376853480434 0)
(10.1551178807 -0.0371621920565 0)
(10.1615048177 -0.036371406086 0)
(10.0158745199 -0.0490095242157 0)
(10.0394620699 -0.052059743394 0)
(10.0458676253 -0.0493039321248 0)
(10.0432746762 -0.0485074500753 0)
(10.0384937534 -0.0486894943936 0)
(10.0331490711 -0.0488743857307 0)
(10.0270462283 -0.0487931664094 0)
(10.0199520411 -0.048486591542 0)
(10.0119250722 -0.048058152099 0)
(10.0032021409 -0.0475877909852 0)
(9.99405499856 -0.0471173137679 0)
(9.98471337452 -0.0466607235257 0)
(9.97534249307 -0.0462166028041 0)
(9.96605349655 -0.0457741570449 0)
(9.95692606571 -0.045312552198 0)
(9.94803015267 -0.0447840067444 0)
(9.93940235258 -0.0440696330491 0)
(9.9309026817 -0.0425001411861 0)
(9.8520426257 -0.0288151255158 0)
(9.72295228694 -0.0320240063453 0)
(9.57938778206 -0.0319013092161 0)
(9.43543628405 -0.0321070858485 0)
(9.29854455988 -0.0324010644798 0)
(9.16961414051 -0.0325175118841 0)
(9.04766222283 -0.0324169859051 0)
(8.93179308176 -0.0321516731672 0)
(8.82152090827 -0.0317855418976 0)
(8.71662057346 -0.0313672295924 0)
(8.61695418374 -0.0309263245842 0)
(8.52237528188 -0.0304784391263 0)
(8.43269901224 -0.0300306743346 0)
(8.34771065963 -0.029584196169 0)
(8.26719097286 -0.0291343200374 0)
(8.19094678766 -0.0286612748512 0)
(8.11905906321 -0.0280965957906 0)
(8.04980373133 -0.026810123401 0)
(0.0223516040852 -0.103037165205 1.87187968324e-19)
(0.0420487268841 -0.101991528896 0)
(0.0702511117393 -0.0864040621802 0)
(0.0890385094828 -0.0267420535415 0)
(0.0141021703695 0.0782451724121 0)
(-0.0914051001978 0.110612497746 -9.01157910616e-20)
(-0.204392623349 0.125628302285 0)
(-0.323453101874 0.135309049744 0)
(-0.448296553321 0.142108715482 3.90183929724e-20)
(-0.578146202049 0.146944273275 0)
(-0.71218780759 0.150332487287 -2.88576083835e-20)
(-0.849677951511 0.152613477348 0)
(-0.989961607523 0.154029707561 -2.37432738589e-20)
(-1.13247293252 0.154761443268 -2.21537106094e-20)
(-1.27672712237 0.154947696679 0)
(-1.42231233345 0.154696915211 2.00999665068e-20)
(-1.56888031157 0.154095464576 1.9457582297e-20)
(-1.71613820484 0.153211762638 1.89945415561e-20)
(-1.86384034839 0.152100929707 0)
(-2.01178090764 0.150806744796 0)
(-2.15978765845 0.149364821021 0)
(-2.30771689357 0.147803844909 0)
(-2.45544896156 0.146148171983 0)
(-2.60288509415 0.144418478785 0)
(-2.74994539657 0.142633867061 -1.84727126399e-20)
(-2.89656797843 0.140812166168 -1.86116532303e-20)
(-3.04270874946 0.138971361404 0)
(-3.18834230534 0.137129190317 1.89749817681e-20)
(-3.33346239571 0.135304066709 1.91917551165e-20)
(-3.47808277388 0.133513944003 1.94279847295e-20)
(-3.62223735707 0.131776422093 0)
(-3.76598003787 0.130106967312 0)
(-3.90938228357 0.128518697817 -2.02312301219e-20)
(-4.05252967076 0.127020093535 0)
(-4.1955166104 0.125614527649 0)
(-4.33843959402 0.124298131218 -2.11400192025e-20)
(-4.48138795978 0.123059815698 0)
(-4.62443393295 0.121879501348 0)
(-4.76762120805 0.120728957309 0)
(-4.91095327709 0.119571010079 0)
(-5.05438176557 0.118361658179 0)
(-5.19779633306 0.117050316741 4.62334033451e-20)
(-5.34101641669 0.115582745998 0)
(-5.48378467638 0.113901736614 0)
(-5.62576225743 0.111950384521 4.82109089908e-20)
(-5.76652578637 0.109673753385 4.88489491062e-20)
(-5.90556927563 0.107023743238 0)
(-6.04231219897 0.103960560996 0)
(-6.17611284299 0.100454550353 5.06472155029e-20)
(-6.30628025041 0.0964852964469 0)
(-6.43208415532 0.0920445420608 -5.17077604979e-20)
(-6.55276451678 0.0871369310474 0)
(-6.66754596138 0.0817822075259 5.26120634365e-20)
(-6.7756546739 0.0760164311511 0)
(-6.87634390108 0.0698925335848 5.33131950534e-20)
(-6.96892769937 0.0634748926127 5.35727356108e-20)
(-7.05281608969 0.0568301945213 0)
(-7.12754114396 0.0500176880512 0)
(-7.19276365071 0.043083763589 0)
(-7.2482535431 0.0360620482303 5.39028293151e-20)
(-7.29385515542 0.0289814170561 0)
(-7.32944242694 0.0218723031282 0)
(-7.35490141784 0.0147608165007 0)
(-7.3701148262 0.00768081786899 0)
(-7.37499507076 0.000704557386385 0)
(-7.36974473424 -0.00609391346218 0)
(-7.35453880448 -0.0126841652528 0)
(-7.32950503474 -0.0190939497242 -5.0003380818e-20)
(-7.29464513329 -0.0253928346617 0)
(-7.24977200123 -0.031682590334 -4.78101944958e-20)
(-7.19446516435 -0.0380907853291 -4.64874584588e-20)
(-7.12804725583 -0.0447587546971 0)
(-7.04958863499 -0.0518295673969 4.32825534913e-20)
(-6.95794580229 -0.0594283640775 0)
(-6.85183670844 -0.0676449633312 -3.91482764456e-20)
(-6.72994689941 -0.0765134168491 0)
(-6.59105908525 -0.0860011379165 3.38428085655e-20)
(-6.43419401281 -0.0959980058174 -3.06789556136e-20)
(-6.25874202467 -0.106321102545 0)
(-6.06456790214 -0.116724875886 0)
(-5.85208215585 -0.126921492112 0)
(-5.62227417645 -0.136593701546 0)
(-5.37667756325 -0.145428000055 -8.92557229677e-21)
(-5.11729148162 -0.15314490856 3.28567166047e-21)
(-4.84650112089 -0.159514945795 5.64279374853e-21)
(-4.56700426167 -0.164342634322 1.88423402762e-20)
(-4.28164127757 -0.167490070183 3.30997433826e-20)
(-3.99317791558 -0.168903855952 0)
(-3.70423365885 -0.168609980583 0)
(-3.41732060476 -0.166667138493 0)
(-3.13473124738 -0.163176029901 1.03389966135e-19)
(-2.85827804428 -0.158340851037 0)
(-2.58927121702 -0.152434115663 0)
(-2.32873229041 -0.145801993782 1.77199623689e-19)
(-2.07741884073 -0.138878314478 0)
(-1.83586847075 -0.132137333312 -2.44092373113e-19)
(-1.60435314627 -0.126018133572 0)
(-1.38300710561 -0.120861620287 3.35962622711e-19)
(-1.17175737526 -0.117131200197 0)
(-0.97008192308 -0.115294262335 0)
(-0.779476870889 -0.115439864494 0)
(-0.598923613125 -0.11806582575 7.15012628582e-19)
(-0.430679868985 -0.122318735054 0)
(-0.26562266747 -0.128231585396 1.24137233541e-18)
(-0.111231596441 -0.140113000907 1.80461767431e-18)
(0.0303530772124 -0.149904299077 0)
(0.185469212022 -0.13450978907 0)
(0.293723657984 -0.112843922085 0)
(0.398957264114 -0.0932316962478 1.20728296292e-18)
(0.50002114249 -0.077218191359 0)
(0.594394178896 -0.0642574301627 0)
(0.681340713683 -0.0536919496094 7.74964113971e-19)
(0.760663962799 -0.0450075652136 7.07683208346e-19)
(0.832349959339 -0.0377849584891 0)
(0.896542632526 -0.0317082131624 -6.16873079894e-19)
(0.953514549384 -0.0265220164624 -5.85360917399e-19)
(1.00362936339 -0.0220437473984 5.60067832892e-19)
(1.04728531022 -0.018127281825 0)
(1.08489143474 -0.0146726196108 0)
(1.11684419175 -0.011597353445 0)
(1.14352453291 -0.00884582337524 -4.9906898251e-19)
(1.16528125677 -0.00637090594495 0)
(1.18243139735 -0.0041470275979 -4.84180063236e-19)
(1.19526935352 -0.00215944593342 0)
(1.20409491442 -0.000438087063823 0)
(1.20925313259 0.000978973048067 0)
(1.21160334256 0.00209139697606 4.72405977036e-19)
(1.21143363954 0.00299031772599 4.71451587855e-19)
(1.20882873714 0.00375712802186 0)
(1.2038895895 0.00444017171873 0)
(1.1967272659 0.00506153087334 0)
(1.18745672457 0.00563986587523 0)
(1.17619349451 0.00618001622514 0)
(1.16305199913 0.00669024323493 0)
(1.14814547479 0.00717122416529 9.80683647183e-19)
(1.13158414507 0.00762985982062 0)
(1.11347631818 0.00806666638178 0)
(1.0939271554 0.00848706845945 0)
(1.0730444219 0.00889104714407 -1.04057292908e-18)
(1.0509456836 0.00928136715529 -1.06002776246e-18)
(1.02776575141 0.0096566192797 1.08131826749e-18)
(1.00364222819 0.010021203035 1.10445440358e-18)
(0.978714577345 0.0103752371157 0)
(0.953130435024 0.0107020414876 0)
(0.927058958322 0.0109777888985 0)
(0.900705492867 0.0111726181263 1.21485093502e-18)
(0.874280770369 0.0112376562637 0)
(0.847994843691 0.0111652753674 0)
(0.822123815342 0.0109841743636 -1.3125796282e-18)
(0.797047310499 0.0107096276266 0)
(0.773188193292 0.0103325393502 -1.37880570945e-18)
(0.751045801387 0.00982374254326 0)
(0.731178411912 0.00913720353522 -1.43701036118e-18)
(0.714285531678 0.00822060875221 0)
(0.701204799238 0.00706042806831 0)
(0.692685243788 0.00571578175945 0)
(0.690414443269 0.0043572071342 0)
(0.692921170255 0.0031573351576 0)
(0.699138106106 0.00214932250646 0)
(0.708219382363 0.00133334440581 0)
(0.719502912272 0.000696749660368 0)
(0.732460540106 0.000224614906085 -1.37721638233e-18)
(0.746661219098 -9.84480157635e-05 0)
(0.761734030648 -0.000285483286051 0)
(0.777346570994 -0.000345399098043 -1.31083734931e-18)
(0.793184381662 -0.000282198929086 0)
(0.808935175421 -0.000100945015994 0)
(0.824268942341 0.000195747232989 -1.25194024679e-18)
(0.838829869812 0.000605145420417 0)
(0.852223291399 0.00112117233682 0)
(0.864007367105 0.00172899392531 -1.20964867642e-18)
(0.87371123776 0.0024191051806 1.20072587434e-18)
(0.880868885365 0.00314553292537 -1.19479356646e-18)
(0.885066491583 0.00381731992515 0)
(0.886208243157 0.00435313836001 0)
(0.885499242391 0.00476048366643 -2.38277002917e-18)
(0.882209608838 0.00519998842082 0)
(0.874218201828 0.00594501482818 2.39690431949e-18)
(0.868257899412 0.00728396527464 2.41742623096e-18)
(0.736819176374 0.00566278780665 0)
(0.00573945339151 -0.0884535884054 -5.78162095249e-19)
(-0.0741450355382 0.0511776184604 0)
(-0.165348156411 0.154068723458 1.57559836249e-19)
(-0.237273439252 0.214845432847 -1.07477253042e-19)
(-0.32105010098 0.267432041682 -8.25042297648e-20)
(-0.421161514517 0.304197918476 3.39698726393e-20)
(-0.530601800403 0.330927892144 5.82705852356e-20)
(-0.647738700705 0.351219521411 0)
(-0.771028879375 0.36674484829 -2.25640836073e-20)
(-0.899185832358 0.378523981624 4.1693647055e-20)
(-1.03117516473 0.387276977459 5.77168863851e-20)
(-1.16615428359 0.393551369695 -3.64269468217e-20)
(-1.3034290041 0.39778424642 5.17880755386e-20)
(-1.44242577107 0.400334044994 1.64288057367e-20)
(-1.58267063456 0.401500276083 0)
(-1.72377353118 0.40153410439 -1.56882679161e-20)
(-1.86541492631 0.400646858208 -1.55034722458e-20)
(-2.00733459485 0.399014712444 -1.54115246266e-20)
(-2.14932167568 0.396784141814 3.13628351462e-20)
(-2.29120590997 0.394075088517 0)
(-2.43285027057 0.390985717301 3.16109187647e-20)
(-2.57414485879 0.387595533903 0)
(-2.71500220949 0.383970117129 -3.22045705205e-20)
(-2.85535375449 0.380164008951 0)
(-2.99514757816 0.376225107305 4.93431467931e-20)
(-3.13434772101 0.372196891215 -1.6980204335e-20)
(-3.27293441084 0.368121742164 -3.40644312105e-20)
(-3.41090484705 0.364041760956 -5.17491125807e-20)
(-3.54827409912 0.360000465951 -1.7427133671e-20)
(-3.68507629404 0.356041564819 -1.7746108348e-20)
(-3.82136497607 0.352208548636 0)
(-3.95721243051 0.348541451162 -3.7151520661e-20)
(-4.09270733551 0.345074812596 1.87657143182e-20)
(-4.22795090555 0.341832847194 0)
(-4.36305091999 0.338826521885 0)
(-4.49811386216 0.336048661885 1.98539819676e-20)
(-4.63323526768 0.333471812178 0)
(-4.76848889033 0.331044474684 0)
(-4.90391470923 0.328691062222 0)
(-5.03950650041 0.326310839974 0)
(-5.17520018959 0.323781310021 0)
(-5.3108642625 0.320960279327 4.47604627585e-20)
(-5.44629279967 0.31769181683 9.05172089138e-20)
(-5.58120026062 0.313809988574 0)
(-5.71521710885 0.309146162267 4.70499367119e-20)
(-5.84788567658 0.303535475268 -4.72059362385e-20)
(-5.97866343476 0.296828224748 0)
(-6.10693584019 0.288896296945 0)
(-6.23203305828 0.279638194802 -1.48583556669e-19)
(-6.3532399274 0.268979387176 -1.00629325148e-19)
(-6.46980154756 0.256879787556 5.05858669218e-20)
(-6.58093327317 0.243337669391 1.0314664571e-19)
(-6.68583272271 0.228395953776 5.25511402637e-20)
(-6.78369751089 0.21214750185 0)
(-6.87375967674 0.194734601671 -1.59034510921e-19)
(-6.95532854437 0.176335227302 -5.31401075374e-20)
(-7.02783538396 0.157143304284 0)
(-7.09085243449 0.137351980856 1.08423922879e-19)
(-7.14408655553 0.117143189351 -1.08854692049e-19)
(-7.18735052163 0.096689268179 -5.41297397783e-20)
(-7.22050278697 0.0761556124994 0)
(-7.24343607863 0.0556921739581 0)
(-7.25604271423 0.0354358666419 0)
(-7.25815680284 0.0155510725567 1.08404890986e-19)
(-7.25022191643 -0.00373715330263 0)
(-7.23295639174 -0.0222382069457 -1.05921037153e-19)
(-7.20657600244 -0.039966853776 0)
(-7.17124025954 -0.0570441225469 -5.16804587313e-20)
(-7.12693303046 -0.0736897665257 0)
(-7.07341543661 -0.0902101687638 -4.9508593642e-20)
(-7.0101824556 -0.106981838133 -4.82104677384e-20)
(-6.93643990824 -0.12442043934 0)