/*--------------------------------*- C++ -*----------------------------------*\
| =========                 |                                                 |
| \\      /  F ield         | OpenFOAM: The Open Source CFD Toolbox           |
|  \\    /   O peration     | Version:  v1806                                 |
|   \\  /    A nd           | Web:      www.OpenFOAM.com                      |
|    \\/     M anipulation  |                                                 |
\*---------------------------------------------------------------------------*/
FoamFile
{
    version     2.0;
    format      ascii;
    class       volVectorField;
    location    "9";
    object      Ua;
}
// * * * * * * * * * * * * * * * * * * * * * * * * * * * * * * * * * * * * * //

dimensions      [0 1 -1 0 0 0 0];


internalField   nonuniform List<vector> 
12225
(
(-0.414255083955 36.5132870505 0)
(1.04340540533 8.3782617475 0)
(0.398877676379 7.50260536434 0)
(0.599500309243 7.80207190383 0)
(0.563739218895 7.94437494769 0)
(0.606874462483 8.16614947183 0)
(0.637675655638 8.34614007609 0)
(0.67577080332 8.48546525749 0)
(0.710610606336 8.58269059322 0)
(0.735942318044 8.66286219903 0)
(0.753795398086 8.75575352398 0)
(0.774296275189 8.87762177842 0)
(0.81723072357 9.05932339373 0)
(0.918930396881 9.2552995382 0)
(1.15141615365 9.33743133284 0)
(1.6261187397 8.96833966675 0)
(2.3737605996 7.49845842413 0)
(2.77441479899 4.03096771875 0)
(2.54787396447 -34.0423043732 0)
(0.523652721686 -6.26135100492 0)
(0.782876355287 -5.24897493155 0)
(0.708586314964 -5.5680450974 0)
(0.756535574204 -5.53044875648 0)
(0.804392466029 -5.59671633557 0)
(0.860363672191 -5.64449071175 0)
(0.91906030626 -5.69616940405 0)
(0.972108138589 -5.74862371953 0)
(1.02263153357 -5.79103085718 0)
(1.07897853987 -5.79674088561 0)
(1.14975034684 -5.73405379226 0)
(1.24747885365 -5.58253441923 0)
(1.39661163406 -5.31435789687 0)
(1.63833962473 -4.89498323003 0)
(2.01002329587 -4.30028348075 0)
(2.43243337145 -3.58567878299 0)
(2.42218435826 -2.96078343927 0)
(-1.32042650013 25.1971528489 0)
(0.791422569782 3.62458636224 0)
(0.690839385221 3.02678907141 0)
(0.693643331069 3.15333381375 0)
(0.699810233272 3.13199865242 0)
(0.703060382704 3.09328906538 0)
(0.709799928023 3.0179872096 0)
(0.712648319232 2.90137710093 0)
(0.712907956567 2.7502731087 0)
(0.713761689971 2.57078962683 0)
(0.722676040787 2.36336097267 0)
(0.749632396863 2.12252138922 0)
(0.809249022542 1.84560260212 0)
(0.924930809245 1.5339561222 0)
(1.12887312946 1.17780985752 0)
(1.43606774944 0.741151869073 0)
(1.75131679057 0.132071595324 0)
(1.75438378579 -0.716778913792 0)
(1.21562114832 -12.2553777081 0)
(0.988426801246 -1.51121365875 0)
(0.784101311381 -1.47091468467 0)
(0.826095788957 -1.41441223029 0)
(0.815449214038 -1.3735581441 0)
(0.829402815073 -1.29590726826 0)
(0.841352633873 -1.20193033463 0)
(0.854115326436 -1.0801138883 0)
(0.863100552005 -0.933479759483 0)
(0.869663588415 -0.763297198206 0)
(0.877570637301 -0.576058293848 0)
(0.894725127319 -0.382981177739 0)
(0.933956401452 -0.196881114712 0)
(1.01452572737 -0.0360601158429 0)
(1.15773258725 0.0661655880558 0)
(1.36004190372 0.0452911344231 0)
(1.52931067598 -0.195692639124 0)
(1.47594516918 -0.672597897818 0)
(0.505549752791 4.10306911823 0)
(0.81465626948 0.571157257972 0)
(0.808263290908 0.625697909599 0)
(0.801585153606 0.461523401065 0)
(0.806919453882 0.377940646 0)
(0.815955848031 0.287675079293 0)
(0.827760813038 0.206871869563 0)
(0.83987452324 0.131406174589 0)
(0.850708010808 0.0641561478757 0)
(0.861906837818 0.0098774870375 0)
(0.876947497424 -0.0274170457267 0)
(0.902605457818 -0.045892339389 0)
(0.949138531292 -0.046656536541 0)
(1.02989911715 -0.0393291617416 0)
(1.15348452118 -0.0493346349367 0)
(1.30057637008 -0.128294034494 0)
(1.39210636193 -0.337579941628 0)
(1.32544086501 -0.650747632685 0)
(0.815136426067 -0.569004392509 0)
(0.895773447822 -0.0778509528425 0)
(0.867729659969 -0.0777145509218 0)
(0.865751493361 -0.0716500863364 0)
(0.864532294335 -0.0656334933085 0)
(0.868095074552 -0.0591328315946 0)
(0.872730785428 -0.0576553652528 0)
(0.878327151116 -0.0594173156097 0)
(0.883750356869 -0.0634698453605 0)
(0.891183913551 -0.0666498178122 0)
(0.903880707347 -0.0669866378564 0)
(0.927761722123 -0.0639675319084 0)
(0.970729916253 -0.0595552395161 0)
(1.04111274991 -0.0631800832386 0)
(1.13889706042 -0.0959373059739 0)
(1.23924391281 -0.191949368774 0)
(1.28360451588 -0.374912743585 0)
(1.22162360513 -0.597411688719 0)
(0.878026298844 0.374683828947 0)
(0.90104325975 0.0522895094136 0)
(0.910082481175 0.0558320363916 0)
(0.900825816599 0.0164192306244 0)
(0.901448836145 -0.0043785115079 0)
(0.902882515921 -0.023518113922 0)
(0.905313461975 -0.0409013958277 0)
(0.908735856978 -0.0564182361885 0)
(0.912529488957 -0.0695007439507 0)
(0.91894429867 -0.078708298651 0)
(0.930803382761 -0.0838297082556 0)
(0.95300720893 -0.0861861306915 0)
(0.991122422337 -0.0895021545118 0)
(1.04909442796 -0.103856054714 0)
(1.12158509549 -0.147210766375 0)
(1.18490206511 -0.241111408466 0)
(1.20044524444 -0.389181965267 0)
(1.14625881253 -0.54840958963 0)
(0.95047730811 0.325932783539 0)
(0.919504005899 0.0635957180665 0)
(0.945278366661 0.0527056417058 0)
(0.932790785452 0.0217326413102 0)
(0.933919116621 0.000506883268986 0)
(0.933755458467 -0.0192547849871 0)
(0.934411646765 -0.0382145570217 0)
(0.936264491095 -0.0557771772593 0)
(0.938938949802 -0.0713986714133 0)
(0.944613911984 -0.0840799221761 0)
(0.955557751281 -0.0940446262293 0)
(0.975507545117 -0.103001305977 0)
(1.00780453491 -0.115011803705 0)
(1.05298938849 -0.13906325228 0)
(1.10326507875 -0.188438569135 0)
(1.13930143424 -0.274389769592 0)
(1.13779150451 -0.391271317063 0)
(1.09080192702 -0.50741276335 0)
(1.00252146718 0.34715605056 0)
(0.936680922786 0.0682588097089 0)
(0.974417452748 0.0520364640003 0)
(0.959869172567 0.0239289303968 0)
(0.96168821657 0.00186231326726 0)
(0.960603563587 -0.0186814351374 0)
(0.960151352745 -0.0386017187052 0)
(0.960986785879 -0.0572945145498 0)
(0.962848424807 -0.0745226540448 0)
(0.967766340617 -0.0897937928084 0)
(0.977408708735 -0.10374728622 0)
(0.99438212824 -0.11831012439 0)
(1.02016729112 -0.137388703096 0)
(1.05310307649 -0.16819882666 0)
(1.08508955198 -0.219369776947 0)
(1.1019265857 -0.2951215908 0)
(1.09063314308 -0.387048983165 0)
(1.04941945213 -0.474011158255 0)
(1.04175628788 0.342416284192 0)
(0.952493241063 0.0709508457717 0)
(0.998320507942 0.0507085664042 0)
(0.982785377225 0.0261384949176 0)
(0.98510802272 0.00384267530412 0)
(0.983594877053 -0.0168438109989 0)
(0.982442475323 -0.0371784153541 0)
(0.982608025931 -0.0565594498437 0)
(0.98379789599 -0.0749825171066 0)
(0.987840048136 -0.0923705666933 0)
(0.995790409061 -0.109586498148 0)
(1.00925032889 -0.128604674199 0)
(1.02832744676 -0.152775571078 0)
(1.05025696032 -0.187388716203 0)
(1.06789390563 -0.237277074684 0)
(1.07163024503 -0.302687694855 0)
(1.05474895778 -0.375623885461 0)
(1.01807035222 -0.442580941162 0)
(1.074345255 0.333020608704 0)
(0.966827039543 0.0684762476192 0)
(1.01687401387 0.0417352823262 0)
(1.00123816022 0.0220737084174 0)
(1.00381012563 -0.000111285596224 0)
(1.00222478726 -0.0200057781309 0)
(1.00064593244 -0.0400045098457 0)
(1.00033589031 -0.0593079207765 0)
(1.00087539373 -0.0782228739107 0)
(1.00387540689 -0.0968755189007 0)
(1.0098290652 -0.116227948856 0)
(1.01953727146 -0.13809309424 0)
(1.03222681403 -0.165194094671 0)
(1.04484805471 -0.200926131225 0)
(1.05172868579 -0.24752484715 0)
(1.04679343808 -0.303300254018 0)
(1.0270125724 -0.361835679952 0)
(0.994026218957 -0.414565596934 0)
(1.08381466971 0.309308559417 0)
(0.979214216403 0.064064300433 0)
(1.02460987932 0.0318809826683 0)
(1.01106212086 0.0168830082573 0)
(1.01325918905 -0.00473083693954 0)
(1.0121455522 -0.0235709071789 0)
(1.01037115244 -0.0430364160124 0)
(1.00981877126 -0.0619858598669 0)
(1.00981699536 -0.0809850365878 0)
(1.01183731811 -0.100254051836 0)
(1.01590863974 -0.120784904874 0)
(1.02223978486 -0.144214197727 0)
(1.02970398813 -0.172429402598 0)
(1.03549313316 -0.207583901556 0)
(1.0353439172 -0.25016020568 0)
(1.02548757222 -0.298089331764 0)
(1.00463920831 -0.346366056977 0)
(0.974675563946 -0.389523020015 0)
(1.08129890956 0.288941673229 0)
(0.988125146283 0.057872689844 0)
(1.02606641766 0.0254771232361 0)
(1.01523549209 0.0125794774197 0)
(1.01676240693 -0.00821740594916 0)
(1.01624633284 -0.0263930688625 0)
(1.01448169649 -0.0454120742603 0)
(1.01394913153 -0.0640942995941 0)
(1.01360961682 -0.0830085232419 0)
(1.01479694626 -0.102499976155 0)
(1.01710792072 -0.123549195445 0)
(1.02050416405 -0.147390372515 0)
(1.02365793253 -0.175303907049 0)
(1.02422520349 -0.208450397853 0)
(1.01911936006 -0.246538893593 0)
(1.00614908093 -0.287588030123 0)
(0.985165943634 -0.327969293186 0)
(0.957993199906 -0.363867070181 0)
(1.07390873252 0.264174127986 0)
(0.994745750462 0.0539498443181 0)
(1.02389539312 0.0218209133888 0)
(1.01621299192 0.00976171035328 0)
(1.01666287055 -0.0107157626664 0)
(1.01681310353 -0.0285970385596 0)
(1.01495449206 -0.0476088148315 0)
(1.01437217605 -0.0663235774023 0)
(1.01358146392 -0.0854726501215 0)
(1.01372078707 -0.105271901445 0)
(1.01416358893 -0.12664193458 0)
(1.01460887241 -0.150255286987 0)
(1.01379621606 -0.177100032153 0)
(1.00992600752 -0.207298074806 0)
(1.00099490988 -0.24052539873 0)
(0.985959429579 -0.274875539775 0)
(0.965382922621 -0.308083862234 0)
(0.940921398885 -0.337538708721 0)
(1.06355398902 0.243075943534 0)
(1.00148371704 0.0533920219751 0)
(1.02064307171 0.0229684686798 0)
(1.01668953603 0.0110055539152 0)
(1.01550272208 -0.00864037692808 0)
(1.01608512192 -0.0261647918651 0)
(1.01383066447 -0.0448478438644 0)
(1.01296879121 -0.0634710224814 0)
(1.01140181092 -0.082611381633 0)
(1.01023605854 -0.10254851431 0)
(1.00863354957 -0.123727296478 0)
(1.00620156508 -0.146773118069 0)
(1.00195055075 -0.171802020798 0)
(0.994591336948 -0.19889329408 0)
(0.982924575011 -0.227241205469 0)
(0.96672191031 -0.255748710546 0)
(0.946865247044 -0.282658582318 0)
(0.924965514405 -0.306700760564 0)
(1.04868155858 0.211629766146 0)
(1.00608973636 0.0446752188469 0)
(1.01561263253 0.018182588308 0)
(1.01547558037 0.00584579112843 0)
(1.01261385792 -0.0122358092103 0)
(1.01356322015 -0.0287822192166 0)
(1.01074056321 -0.0462551723304 0)
(1.00936352083 -0.0638825617836 0)
(1.00678553315 -0.0820670861076 0)
(1.00420144104 -0.10103180771 0)
(1.00058075531 -0.120977500096 0)
(0.995736101409 -0.142215641388 0)
(0.98881619373 -0.164576368006 0)
(0.979064332552 -0.187914206778 0)
(0.965838351897 -0.211502386593 0)
(0.949372645714 -0.234577131066 0)
(0.930635024326 -0.256087074895 0)
(0.911061245029 -0.275288737849 0)
(1.03408722346 0.188715268857 0)
(1.00763589156 0.0365858169104 0)
(1.00902882701 0.0137194165166 0)
(1.01210300313 0.00145664578015 0)
(1.00779228362 -0.0149189395321 0)
(1.00886942543 -0.0301354974893 0)
(1.00533364423 -0.046121980286 0)
(1.00319343609 -0.0621901975062 0)
(0.99942653151 -0.0788257524872 0)
(0.995316643992 -0.0959631017291 0)
(0.989917673996 -0.113866600254 0)
(0.983083213159 -0.132422727735 0)
(0.974306371702 -0.151634747345 0)
(0.963139069267 -0.170969042379 0)
(0.949342854728 -0.190166201891 0)
(0.933301874607 -0.208475159048 0)
(0.915998067042 -0.225553722701 0)
(0.89855939272 -0.240760231863 0)
(1.0141469992 0.166073949284 0)
(1.00767966413 0.028661194817 0)
(0.999863617889 0.00982349003409 0)
(1.00610646335 -0.00202111933533 0)
(1.0002952382 -0.0161944629411 0)
(1.00133239725 -0.0297537277518 0)
(0.997006037815 -0.0437280963115 0)
(0.994029582939 -0.057783650178 0)
(0.989106875365 -0.0721849816408 0)
(0.983681907987 -0.0868962257906 0)
(0.976869778913 -0.102002716247 0)
(0.968673114617 -0.117454078938 0)
(0.958820299231 -0.133081195748 0)
(0.947092319632 -0.148557615405 0)
(0.933442932076 -0.163630830652 0)
(0.918303481742 -0.177943218714 0)
(0.902563321325 -0.191254342727 0)
(0.88715158023 -0.203299924665 0)
(0.994733084075 0.154342258561 0)
(1.00686093364 0.0161766182715 0)
(0.992360737376 0.00631229423293 0)
(1.00049261752 -0.00586167902328 0)
(0.993717170742 -0.0167411946974 0)
(0.994332425092 -0.0281926586741 0)
(0.989238018016 -0.0396211302148 0)
(0.985382056491 -0.0511409719187 0)
(0.979405806731 -0.0628738822711 0)
(0.972882250802 -0.0746641669112 0)
(0.965011036517 -0.0866662366399 0)
(0.955927728755 -0.0987005810799 0)
(0.945525189493 -0.110731712756 0)
(0.933706605515 -0.122429049737 0)
(0.920509153087 -0.133752322342 0)
(0.906333042533 -0.144426466747 0)
(0.89195468666 -0.154427671532 0)
(0.878163256825 -0.163551011059 0)
(1.00351010555 0.148181110918 0)
(1.00195274374 0.00632479631961 0)
(0.993723679556 0.00360588873143 0)
(0.997794017527 -0.00807212690402 0)
(0.991780464431 -0.0159634494954 0)
(0.990839759066 -0.0254426863623 0)
(0.985074890332 -0.0344617365897 0)
(0.98020198747 -0.0438388862215 0)
(0.973403680754 -0.0531250339817 0)
(0.966092644172 -0.0625974102978 0)
(0.957596632882 -0.0719504513049 0)
(0.948104828416 -0.0814081151294 0)
(0.937563665163 -0.0905856059873 0)
(0.925919226632 -0.0995832113231 0)
(0.913214760464 -0.108071017408 0)
(0.899812250126 -0.116206880019 0)
(0.886411751243 -0.123682710494 0)
(0.873768508019 -0.130701190218 0)
(1.01297995958 0.140623192835 0)
(1.00151357407 0.00307394899416 0)
(0.998799075541 0.00221383805583 0)
(0.999902645205 -0.00748076110171 0)
(0.994362252797 -0.0130440940875 0)
(0.992298594037 -0.0203556695736 0)
(0.98599357565 -0.0271758356775 0)
(0.980471752895 -0.0345134452628 0)
(0.973083221477 -0.0417979746322 0)
(0.965293584371 -0.0493039367708 0)
(0.956428306684 -0.0567265085308 0)
(0.946731563789 -0.0642685383931 0)
(0.936145414426 -0.0715647221151 0)
(0.92467871904 -0.0787420813588 0)
(0.912293763863 -0.0854907895879 0)
(0.899403194397 -0.0919682883267 0)
(0.886558554893 -0.0979200994691 0)
(0.874562097849 -0.103518958945 0)
(1.02195899889 0.113372512697 0)
(1.00309174561 -0.0122611317902 0)
(1.00470074103 -0.0102127582709 0)
(1.00361344515 -0.0182342354128 0)
(0.998951173179 -0.0217887388929 0)
(0.995924255382 -0.027085885162 0)
(0.989266037076 -0.0321004401886 0)
(0.983099912451 -0.037443878186 0)
(0.975334858158 -0.0430140985914 0)
(0.967189211404 -0.0486479016708 0)
(0.958084619281 -0.0544676998584 0)
(0.948293547354 -0.060219828121 0)
(0.937741460886 -0.0660133006438 0)
(0.926445497927 -0.0714953966874 0)
(0.914397339092 -0.0768454501773 0)
(0.901925791126 -0.0817033224521 0)
(0.889594553442 -0.0863520626542 0)
(0.878130804 -0.0905093185389 0)
(1.04190605232 0.215248004258 0)
(1.00515231956 0.0437866702024 0)
(1.01242321609 0.0513105287131 0)
(1.00855781863 0.0421268608383 0)
(1.00468118916 0.0399220919689 0)
(1.00078373867 0.0350405903944 0)
(0.993887246826 0.0306986583239 0)
(0.987296849453 0.0256735039012 0)
(0.979145473668 0.0204665657763 0)
(0.970646149445 0.0149597222507 0)
(0.961272007294 0.00926616927319 0)
(0.951238214716 0.00336999680521 0)
(0.940619908336 -0.00266361129263 0)
(0.92934639397 -0.00864197866874 0)
(0.917474722467 -0.0144534212793 0)
(0.905209438126 -0.020008235784 0)
(0.893023924612 -0.0252784443428 0)
(0.881270730791 -0.0301881439782 0)
(1.03110332566 -0.508198812299 0)
(0.997713260277 -0.278144905428 0)
(1.02480299822 -0.275501155434 0)
(1.01684162656 -0.274397411479 0)
(1.01491884663 -0.269078690707 0)
(1.0100616067 -0.266596406229 0)
(1.00305785632 -0.263565835786 0)
(0.996008999871 -0.261166002306 0)
(0.987686122317 -0.258790764838 0)
(0.979031612592 -0.256525540262 0)
(0.969735562614 -0.254222465172 0)
(0.959883254921 -0.251708404735 0)
(0.949450298041 -0.248802646667 0)
(0.938620517723 -0.245772220851 0)
(0.927421387629 -0.242284183161 0)
(0.916089648681 -0.238356839028 0)
(0.905209931158 -0.233700636568 0)
(0.896308974919 -0.228883148274 0)
(1.15809950022 2.70873683029 0)
(1.03718238572 0.932668954448 0)
(1.01839533734 0.969748172629 0)
(1.01549506446 0.925665404158 0)
(1.01225039237 0.908661016822 0)
(1.00647071693 0.883240307663 0)
(0.999096043279 0.860204697342 0)
(0.991544934464 0.836307783583 0)
(0.982724243875 0.812282997148 0)
(0.97347250656 0.787609278018 0)
(0.963057351006 0.762151466017 0)
(0.952141147437 0.735123505085 0)
(0.940780271552 0.706823774179 0)
(0.928900344059 0.67796131704 0)
(0.916490618697 0.64873977359 0)
(0.903759275828 0.61941632351 0)
(0.890512972799 0.590181860948 0)
(0.87570382287 0.561715665198 0)
(0.615678520958 -8.66539806838 0)
(0.919986027549 -2.5198454916 0)
(1.07928475513 -2.53909029514 0)
(1.04542615487 -2.42987795015 0)
(1.05344432791 -2.35644652743 0)
(1.04598627488 -2.28146197547 0)
(1.04072873365 -2.21038784813 0)
(1.03421118378 -2.14189902379 0)
(1.02674139549 -2.07547166533 0)
(1.01874567147 -2.01103026699 0)
(1.01037218004 -1.94818363115 0)
(1.00102837476 -1.88603820419 0)
(0.991024026161 -1.8248462856 0)
(0.980972740424 -1.76458375686 0)
(0.971076998417 -1.70450858547 0)
(0.961487949622 -1.64369961223 0)
(0.95312432255 -1.58186806974 0)
(0.946205947597 -1.51964530501 0)
(2.40416219131 22.245770939 0)
(1.21409513167 4.66703702075 0)
(0.987321121986 4.52000918649 0)
(1.02199825987 4.31782137035 0)
(1.00454419378 4.17165295625 0)
(0.997018234659 3.99917436116 0)
(0.985940721244 3.83894103868 0)
(0.975021018496 3.67983210604 0)
(0.962775720758 3.52673099122 0)
(0.950011176286 3.37956780769 0)
(0.936465924724 3.23925201704 0)
(0.923552734724 3.10771499509 0)
(0.91113452849 2.98691359147 0)
(0.899639399317 2.87584350036 0)
(0.889781367624 2.77427151631 0)
(0.881964469792 2.68168775161 0)
(0.875488052573 2.59734306686 0)
(0.876401797436 2.51983133956 0)
(-2.06066159397 -39.7050097065 0)
(0.979577124246 -6.87604416758 0)
(1.09968303138 -5.92903836637 0)
(1.07127972689 -5.79108521892 0)
(1.08531203974 -5.50506610822 0)
(1.0707577997 -5.24710851159 0)
(1.06896374739 -4.9943690382 0)
(1.06330418307 -4.74871952593 0)
(1.05829416742 -4.51418305787 0)
(1.05222547506 -4.29281061179 0)
(1.04458720063 -4.08678918813 0)
(1.03619868734 -3.90028051497 0)
(1.02712606997 -3.73512695155 0)
(1.01613478883 -3.5915127179 0)
(1.00248798154 -3.47111117696 0)
(0.985563702497 -3.37499393867 0)
(0.964857891276 -3.30415110461 0)
(0.932416029356 -3.26012395532 0)
(4.32984166894 51.2253986726 0)
(0.666924578852 9.00852724532 0)
(1.25283009963 8.09855282845 0)
(1.07549814195 7.85265195201 0)
(1.1130039916 7.42202520819 0)
(1.10262418746 7.05750415065 0)
(1.09962922871 6.69872498421 0)
(1.09566347977 6.35916502326 0)
(1.09026650452 6.04114736056 0)
(1.08480252078 5.74713946494 0)
(1.07883777482 5.47865211987 0)
(1.07144960559 5.23556049434 0)
(1.06272727714 5.01616166385 0)
(1.05325132825 4.81961155888 0)
(1.04359148922 4.64330634334 0)
(1.03327111875 4.48453574505 0)
(1.01989813118 4.34335876351 0)
(1.00920261691 4.22445150942 0)
(0.431434280892 -52.5585856204 0)
(1.13044865654 -11.429402783 0)
(0.785388456503 -10.7697121601 0)
(0.852078411498 -10.2000754929 0)
(0.820103091115 -9.72651534265 0)
(0.814020494972 -9.26550799684 0)
(0.804981417628 -8.82509922516 0)
(0.797222370449 -8.40248512842 0)
(0.791189066246 -7.99866895543 0)
(0.785848642921 -7.61646765722 0)
(0.781133609859 -7.25766053223 0)
(0.776995629785 -6.92418446619 0)
(0.772810543296 -6.61707835361 0)
(0.767622418332 -6.336835248 0)
(0.760941136829 -6.08240928122 0)
(0.755170721167 -5.84917505407 0)
(0.756258274077 -5.62286685153 0)
(0.765081509341 -5.37046772953 0)
(-0.249545095482 0.101221209494 -8.00900326479e-20)
(-0.304879649585 0.0105737010847 0)
(-0.32472959095 -0.126350269155 0)
(-0.34563352672 -0.238190470617 0)
(-0.273101699015 -0.260225652244 0)
(-0.202358723563 -0.23026960256 3.73652089166e-20)
(-0.139983447395 -0.181335597956 0)
(-0.0911651350612 -0.13014008883 0)
(-0.0567831608934 -0.0839010156214 -1.72918489027e-20)
(-0.0352675428937 -0.0451346875244 0)
(-0.0243037289263 -0.0143899371633 1.26522064176e-20)
(-0.02126809619 0.00892136753531 0)
(-0.0237955609497 0.0255558373111 1.01817074487e-20)
(-0.0298801673255 0.0364721436691 9.37271699214e-21)
(-0.0378893390604 0.0423949215991 0)
(-0.0466138714419 0.0440564027934 -8.22734236142e-21)
(-0.0551070500023 0.0419415278578 -7.80731092035e-21)
(-0.0627571879368 0.0365349360365 -7.45579851068e-21)
(-0.0690885657132 0.028130425873 0)
(-0.073869123645 0.0170366033048 0)
(-0.0769138183034 0.00343358162939 0)
(-0.0782074985958 -0.0124770157272 0)
(-0.0777378529051 -0.0305792227532 0)
(-0.0755939791402 -0.0507343420748 0)
(-0.0718538684058 -0.0728550280931 5.80559717374e-21)
(-0.0666698685461 -0.0968269381423 5.61931490245e-21)
(-0.060180602703 -0.122554647762 0)
(-0.0525581537355 -0.149915868384 -5.26470500457e-21)
(-0.0439544625159 -0.178794764533 -5.09672640233e-21)
(-0.0345322546264 -0.209055446421 -4.93597337047e-21)
(-0.0244395487833 -0.240559811063 0)
(-0.013818862415 -0.273156370267 0)
(-0.00279201227321 -0.306702796451 4.49938217863e-21)
(0.00852875686614 -0.341049855893 0)
(0.0200541810327 -0.376060900805 0)
(0.0316958109239 -0.41160586052 4.13756849435e-21)
(0.0433872949232 -0.44756860666 0)
(0.0550769233036 -0.483848503445 0)
(0.066730141145 -0.52037091557 0)
(0.0783111259679 -0.557078457312 0)
(0.0897991575099 -0.593935733821 0)
(0.101169896553 -0.630926165789 -7.21457086984e-21)
(0.112413211386 -0.668051223192 0)
(0.123514100049 -0.70533219486 0)
(0.13447259662 -0.742803820972 -6.81283720381e-21)
(0.145283119897 -0.780523276335 -6.69036950665e-21)
(0.155953746704 -0.818556338936 0)
(0.166486657971 -0.856993729641 0)
(0.176894670716 -0.895927823079 -6.34602798212e-21)
(0.18719166524 -0.935483854038 0)
(0.197394141167 -0.97579125004 6.12880972686e-21)
(0.207521549084 -1.01701917458 0)
(0.21757669577 -1.0593252129 -5.91715071402e-21)
(0.227563307612 -1.1028679332 0)
(0.237475917255 -1.1477764077 -5.70917620791e-21)
(0.247326500514 -1.19418822852 -5.60681144005e-21)
(0.257119621758 -1.24222841926 0)
(0.266875558991 -1.29201977334 0)
(0.276578794722 -1.3436685579 0)
(0.286204603845 -1.39724891233 -5.21774163796e-21)
(0.295732849835 -1.45273143458 0)
(0.305087538926 -1.50983760032 0)
(0.313978750538 -1.56779382381 0)
(0.32209158309 -1.62513044548 0)
(0.329720467018 -1.67687298162 0)
(0.337185040481 -1.72255756833 0)
(0.344727236956 -1.76247188728 0)
(0.35254169253 -1.79710982218 4.71858705381e-21)
(0.360792085658 -1.82708010605 0)
(0.369602224608 -1.85301115591 4.68928095868e-21)
(0.379073623914 -1.87551402488 4.68872074295e-21)
(0.389287460371 -1.89514702754 0)
(0.400298439726 -1.9124102818 -4.71384462961e-21)
(0.412156328424 -1.92773146617 0)
(0.424905036234 -1.94149846243 4.77318865184e-21)
(0.438573304978 -1.95403636381 0)
(0.453183128289 -1.96563193071 -4.86706216449e-21)
(0.46875268323 -1.97653484602 4.92689060792e-21)
(0.485288558494 -1.98698062098 0)
(0.50279030724 -1.99715958026 0)
(0.521245028652 -2.0072263548 0)
(0.540625568627 -2.01726601548 0)
(0.560893422391 -2.02731357706 5.3424764643e-21)
(0.582000733451 -2.03730207298 -5.44381538129e-21)
(0.603865384476 -2.04704911499 1.10981815371e-20)
(0.626412497108 -2.05621590856 1.13132690657e-20)
(0.649491115276 -2.06431853486 1.15306699038e-20)
(0.672870801084 -2.0706994184 0)
(0.696329605224 -2.07443182441 0)
(0.719263665408 -2.07478937154 0)
(0.741082299571 -2.07064957193 1.24810872168e-20)
(0.761194002362 -2.06104471155 0)
(0.77904563222 -2.04406999605 0)
(0.794318934227 -2.01668262757 1.41115024817e-20)
(0.805815869717 -1.97483130683 0)
(0.811821304976 -1.91538811325 -1.65732933409e-20)
(0.811509993769 -1.8354681943 0)
(0.80371783799 -1.73372456469 2.10165864617e-20)
(0.786890762857 -1.61054049441 0)
(0.764791533586 -1.45952715257 0)
(0.748579602452 -1.2437617251 0)
(0.749420547123 -0.987906446306 3.81540750261e-20)
(0.76931410891 -0.79636383644 0)
(0.819865831655 -0.606851182974 5.44898137045e-20)
(0.696816614241 -0.430173587139 7.08608034413e-20)
(0.464860979148 -0.21767144544 0)
(0.43794602252 0.622392579497 0)
(0.449227793514 1.06077721878 0)
(0.419658712855 1.28414526505 4.83573497239e-20)
(0.400709458605 1.42288169382 0)
(0.389809014223 1.52090454307 0)
(0.383105259643 1.5949199213 3.48059844757e-20)
(0.380110384607 1.65402188005 3.29305611119e-20)
(0.37803181339 1.70162552118 0)
(0.37640830713 1.73993606613 -3.05486681644e-20)
(0.374886652265 1.7703888601 -2.97766661245e-20)
(0.373319417049 1.79396628867 2.91931717876e-20)
(0.371677778357 1.81133788837 0)
(0.36997717444 1.82290231354 0)
(0.368222248842 1.82890851752 0)
(0.366389143586 1.82936701107 -2.81539297527e-20)
(0.364441466307 1.82428934631 0)
(0.36236342325 1.81364781152 -2.81600186612e-20)
(0.360172611932 1.79734235496 0)
(0.35791199837 1.77525337653 0)
(0.355572582958 1.74721830375 0)
(0.353137491365 1.71499265451 2.87837185382e-20)
(0.350589499848 1.6811312404 2.90380430516e-20)
(0.347933434615 1.64573192774 0)
(0.345223074796 1.60886231009 0)
(0.342486068072 1.57058422589 0)
(0.33965548737 1.53076242549 0)
(0.336654670416 1.48939781007 0)
(0.333412270162 1.44630425815 0)
(0.329861076191 1.40132099916 6.49711687664e-20)
(0.325940633209 1.35420783525 0)
(0.321588752691 1.30486759778 0)
(0.316739521425 1.25320683767 0)
(0.311283408473 1.19937528091 -7.09841199802e-20)
(0.305095880058 1.14374297942 -7.26316603534e-20)
(0.298060529766 1.08618994824 7.4293688166e-20)
(0.290070430821 1.02657681071 7.59489676226e-20)
(0.281080935658 0.964862031237 0)
(0.271137067969 0.900994292776 0)
(0.260363188629 0.834846169904 0)
(0.248914625237 0.766184461888 8.21884295915e-20)
(0.236945000134 0.694836439553 0)
(0.224628143708 0.620585683242 0)
(0.212232427896 0.543324295414 -8.52065026478e-20)
(0.200245683253 0.462926306001 0)
(0.18928186555 0.37866946342 -8.51557948324e-20)
(0.179834730556 0.290329560496 0)
(0.17172353401 0.198979789649 -8.26146631066e-20)
(0.164483431864 0.105691387608 0)
(0.158084208557 0.0112963965332 0)
(0.152429489258 -0.0829278988976 0)
(0.14740252195 -0.175155152158 0)
(0.14286337312 -0.263179339673 0)
(0.138674473645 -0.344331741898 0)
(0.134699464236 -0.415691778036 0)
(0.13085229953 -0.474040621265 0)
(0.127141442332 -0.516285267582 -5.5678439718e-20)
(0.123715845407 -0.539536505951 0)
(0.120808844118 -0.541327321042 0)
(0.118658334582 -0.519684552535 -4.45379224397e-20)
(0.117524446273 -0.473491425263 0)
(0.117724190007 -0.402690583088 0)
(0.119768118428 -0.308272302473 -3.43297602261e-20)
(0.124312189167 -0.19231593223 0)
(0.132198256121 -0.0585649689936 0)
(0.144172157359 0.0874280201095 -2.72677977512e-20)
(0.16103472486 0.237208265187 2.61841188371e-20)
(0.183677510489 0.37920042021 -2.58525075734e-20)
(0.211859046479 0.496030920515 0)
(0.24314657197 0.572925800889 0)
(0.273163983605 0.596706615505 -5.20722222148e-20)
(0.296238780103 0.559878011931 0)
(0.30337613995 0.46660579486 4.02149907946e-20)
(0.286568692138 0.337539296075 2.73168465162e-20)
(0.24141086442 0.228640045564 0)
(-0.200976425313 0.268235034088 2.25784809134e-19)
(-0.206254203583 -0.0556434010864 0)
(-0.136445084486 -0.199113907929 -6.55566437757e-20)
(-0.0707223475734 -0.237604207394 4.8977648104e-20)
(-0.00983081529014 -0.226422598611 3.95781767939e-20)
(0.039833830637 -0.192562027782 -1.55186430699e-20)
(0.0750268752282 -0.15327372724 -2.76311587598e-20)
(0.0969558969498 -0.118155220506 0)
(0.108737498611 -0.0912806228768 1.03194918476e-20)
(0.113967722384 -0.073087026451 -1.82055827171e-20)
(0.115591592812 -0.0624243327703 -2.49019086976e-20)
(0.115728443015 -0.0573581215775 1.50087486293e-20)
(0.115717562667 -0.0560531925896 -2.12952626153e-20)
(0.116306180962 -0.056756875139 -7.01344774077e-21)
(0.117870230629 -0.0581650141832 0)
(0.120511385807 -0.0591727597059 6.45883770482e-21)
(0.124230653186 -0.0590793043132 6.24969601325e-21)
(0.128917358568 -0.0573234389798 6.07186887371e-21)
(0.134480937428 -0.0536334852465 -1.03887418229e-20)
(0.140785973751 -0.0478096567973 0)
(0.147742582947 -0.0398385931936 -9.74196378341e-21)
(0.155235973413 -0.0297298965039 0)
(0.163200800019 -0.0176042383873 9.18030221693e-21)
(0.171549532574 -0.00357852492022 0)
(0.180228298827 0.0121710162181 -1.37845509051e-20)
(0.189162193989 0.0294850882161 3.40757261059e-21)
(0.198287353085 0.0481804037901 8.1585353097e-21)
(0.207530266781 0.0680976189314 1.2664635956e-20)
(0.216829883697 0.0890715853588 4.62849068184e-21)
(0.226121142253 0.110960376842 4.50906104754e-21)
(0.235346803855 0.13362359909 0)
(0.244453397273 0.156943432652 6.98280913606e-21)
(0.253406782239 0.180807406845 -4.17475360365e-21)
(0.262179990911 0.205119827563 0)
(0.27075485121 0.229790851953 0)
(0.279123044686 0.254744927907 -3.88887192785e-21)
(0.287292342888 0.279916146856 0)
(0.295273834352 0.305249258545 0)
(0.30309071346 0.330698437966 0)
(0.310765482616 0.356226800437 0)
(0.318323978637 0.381811424339 0)
(0.325785632344 0.407437187993 -3.49448539905e-21)
(0.333171996489 0.433107529793 -1.01328070123e-20)
(0.340496800179 0.458831621327 0)
(0.347775960732 0.484642077139 -3.03231407102e-21)
(0.355017493591 0.510573247209 6.47541033937e-21)
(0.362230393486 0.53668756231 0)
(0.369418618571 0.563043760031 0)
(0.376581670184 0.589731190184 1.48541936825e-20)
(0.383712857053 0.616829111717 8.45316631082e-21)
(0.390800764732 0.644445357997 -6.00050816284e-21)
(0.397843798395 0.672669848244 -8.04085676926e-21)
(0.404846776669 0.701617251427 -2.02256381923e-21)
(0.411812528598 0.731395390306 0)
(0.41872076795 0.762144516206 1.31178972334e-20)
(0.425545517835 0.794002236843 5.56285764899e-21)
(0.432247498663 0.827123840482 0)
(0.438779989047 0.861655063884 -6.9501554298e-21)
(0.445084902356 0.897761876439 6.79113298352e-21)
(0.451103030058 0.935659719268 5.24143383045e-21)
(0.456740186053 0.975584053401 0)
(0.461950122876 1.01758677381 0)
(0.467010664398 1.06117466918 0)
(0.472032074134 1.10237144805 -6.06417511911e-21)
(0.47640898297 1.13422867397 0)
(0.479814184352 1.15731126947 5.67964681319e-21)
(0.482154693628 1.17271576559 0)
(0.483415048828 1.18157467632 4.87114530647e-22)
(0.48364050597 1.18493021173 0)
(0.48292273022 1.18368543521 1.54655065122e-22)
(0.481383043196 1.17856695434 -6.23627572837e-24)
(0.479161467302 1.17013422955 0)
(0.4764112543 1.15878768105 4.78455145081e-21)