/*--------------------------------*- C++ -*----------------------------------*\
| =========                 |                                                 |
| \\      /  F ield         | OpenFOAM: The Open Source CFD Toolbox           |
|  \\    /   O peration     | Version:  v1806                                 |
|   \\  /    A nd           | Web:      www.OpenFOAM.com                      |
|    \\/     M anipulation  |                                                 |
\*---------------------------------------------------------------------------*/
FoamFile
{
    version     2.0;
    format      ascii;
    class       volScalarField;
    location    "8";
    object      pa;
}
// * * * * * * * * * * * * * * * * * * * * * * * * * * * * * * * * * * * * * //

dimensions      [0 2 -2 0 0 0 0];


internalField   nonuniform List<scalar> 
12225
(
8.52505474472
4.94344125539
4.51460269387
4.5124493333
4.93144395477
5.35760936419
5.82431929177
6.19839446626
6.4108580153
6.43230816422
6.42328477967
6.69248220212
7.61305818695
9.90518676306
14.6687568118
22.8900692536
32.9055263349
33.1814558713
24.3644041526
13.9860866886
12.7969802921
12.746438492
12.9777733737
13.3966084238
13.9444889112
14.5529206575
15.1858265498
15.8844157215
16.8418937972
18.2967438974
20.5353775684
24.1073469423
29.6370307777
37.073516488
43.2033296656
37.3793297995
-2.41168386336
8.11834310813
8.60390826413
8.23561655832
8.21874133966
8.27097277524
8.36907966447
8.45298424217
8.5176480996
8.638768934
9.03397295894
9.98880332936
11.8748638812
15.1828676839
20.3797077554
27.0285170818
31.8924356425
27.97816203
17.3143696108
12.1738208817
12.1850272207
11.9295573721
11.9239052038
11.9586614741
12.020416102
12.0360593322
11.9941173333
11.9546275679
12.0868075344
12.6289221096
13.9121671596
16.2961969996
19.9791275552
24.2475315168
26.436777546
22.8911571675
10.0970309019
11.1153482854
11.046824738
11.025827468
11.1067906957
11.2344053662
11.3843405366
11.5105480858
11.6205872476
11.779467021
12.1263488203
12.8480870303
14.1886262396
16.3521391724
19.2729230035
22.0940500108
22.8641863512
19.9735009608
12.1959848578
11.9467102351
11.9042417049
11.8210129882
11.8236682101
11.8458528594
11.8899032362
11.9258244327
11.9785697411
12.1156745089
12.4567012761
13.1504217116
14.3626785848
16.1706706814
18.3525157124
20.1015986244
20.149815816
17.9260232259
12.1258554679
12.2026697628
12.1876659692
12.1535949906
12.1662682484
12.1793518904
12.2070411247
12.2314183714
12.2860330706
12.4332080625
12.772030333
13.4144304257
14.4574479953
15.8843459019
17.4122197358
18.3922278618
18.0852704324
16.372189415
12.232606079
12.3732213618
12.3980455647
12.3924466213
12.4146348562
12.4237894615
12.4462274063
12.4718678435
12.5372494535
12.6951807027
13.0229482924
13.5961045432
14.4542154679
15.5212353736
16.5186785945
16.9783953191
16.5096362703
15.1568766466
12.2548062702
12.4632175544
12.5283603142
12.5490445602
12.5849666244
12.5975904212
12.6234855087
12.6569222958
12.7341278747
12.8967482871
13.2012690912
13.6906804445
14.3624856002
15.1132894299
15.7055084225
15.8279306219
15.2951594444
14.1934903338
12.2346916219
12.492689659
12.5975014103
12.6388325756
12.6901938216
12.7102846414
12.7440041154
12.7869679433
12.8728777928
13.032011702
13.3017970055
13.6991782347
14.1953340943
14.6835251233
14.9800459048
14.8917667762
14.3442909016
13.4215777481
12.2240497494
12.4778098118
12.6018308377
12.6580993457
12.7238866576
12.7526675182
12.7946010953
12.8451556954
12.9342370842
13.081526394
13.3078403149
13.6116415984
13.9512326218
14.231450745
14.3204673565
14.1060238578
13.5691467369
12.7829636018
12.200163996
12.4038267306
12.5234250233
12.5864944845
12.6633865881
12.6994543142
12.7475991446
12.8017463053
12.8881679644
13.0176611281
13.1995707711
13.421754605
13.6401512119
13.7755639196
13.7369134139
13.4584104707
12.9463903378
12.2595984685
12.1445536055
12.2766707786
12.3902282458
12.4513528098
12.5368393669
12.5786049508
12.6319365385
12.6873353728
12.7673628342
12.8755503913
13.013423831
13.1618033433
13.2789587323
13.3051986833
13.1774619124
12.8641106487
12.3806287969
11.7807143383
12.0670523953
12.0939597255
12.2089905185
12.2586713246
12.3482057415
12.3918449208
12.4473394751
12.5007515125
12.5695075532
12.6511736229
12.7397225038
12.8151456878
12.8414132809
12.77561165
12.5817703619
12.2470372233
11.799639445
11.2769253198
11.9508196757
11.8693768803
11.9897037822
12.0220635624
12.1110290987
12.1500661199
12.2028393857
12.248038235
12.3004392973
12.3489939737
12.3887005611
12.3955763822
12.3463632978
12.2099405746
11.9714340568
11.6300609132
11.2179537871
10.7667799846
11.78493353
11.6070672703
11.737496101
11.7500921593
11.8333253015
11.8629740673
11.905003453
11.9349027471
11.9617732472
11.975890504
11.9653317791
11.9171294914
11.8083973925
11.6280314434
11.3642113612
11.0331780699
10.6562121958
10.2688989519
11.5870091444
11.3115114355
11.4475612532
11.4374830173
11.5104762281
11.5240349694
11.5478943376
11.552575111
11.5477546605
11.5211495354
11.4663892106
11.3708692009
11.223761263
11.0159962737
10.7494229231
10.4351624598
10.1001660281
9.76353450261
11.3327095441
10.9686249377
11.1080414567
11.0754698244
11.1348897994
11.1286320111
11.1297788812
11.1051518738
11.0663501864
11.001713208
10.9091996205
10.7793977422
10.6081846986
10.3899200304
10.1311706076
9.84133488905
9.54554258193
9.25606284093
11.0134772344
10.6064807382
10.7455206755
10.6931252455
10.7340424519
10.7048434893
10.6806686107
10.6265152225
10.5562276904
10.4597264072
10.3384717341
10.1859808217
10.0022037055
9.78325308894
9.53737978297
9.27188469163
9.00910519238
8.757519699
10.7674061764
10.4100396707
10.5110505306
10.4486203118
10.4661207749
10.4149266711
10.3675102361
10.2881553007
10.1963507434
10.0775440692
9.94099393379
9.77627211385
9.58971266451
9.37283810806
9.13900553855
8.88906139006
8.64891528087
8.42061792071
10.6018444748
10.3095137261
10.3937902298
10.3248147359
10.3229590077
10.2558779694
10.1896421976
10.0967065848
9.9873083506
9.85982349496
9.71175726493
9.54573128393
9.35595544618
9.14722848381
8.91777457645
8.68356995315
8.45218963417
8.24254245955
10.4844942168
10.2629521396
10.3224050158
10.261238516
10.2458192654
10.1682031456
10.0863491604
9.97957829296
9.86099684102
9.72338559102
9.57090300754
9.40196882151
9.21503868757
9.00948084661
8.78884855038
8.56231442174
8.34238213236
8.14002435454
10.4726182897
10.2988675034
10.3450649434
10.2847237577
10.2606446109
10.1714707495
10.0815163024
9.96572488839
9.83770398261
9.69430251943
9.53756405894
9.36674943089
9.18114301486
8.97945467179
8.76732844968
8.54750023044
8.33854375072
8.1438234855
10.0325274754
10.1399574055
10.1611672036
10.1229326601
10.0820103605
9.98287185102
9.87438788473
9.7440447677
9.60409093743
9.44834820644
9.28359313051
9.1063993409
8.91855490219
8.71796259722
8.50876245292
8.29747290074
8.0925491866
7.89919842383
11.6740649819
11.0146949945
11.0524802898
11.0332204758
10.9966371681
10.9036587463
10.8083889522
10.6921799273
10.5655495867
10.4260209608
10.2740590644
10.1111497146
9.93437459599
9.74991295579
9.5577414202
9.36189390449
9.17231762039
9.02079130062
4.68575758346
8.37875579467
8.40376481876
8.43213304058
8.33569508269
8.20749392882
8.06896611586
7.91092107893
7.74018164495
7.55242719162
7.35432173218
7.14909385383
6.94143985567
6.73296109072
6.52996005356
6.3355845679
6.14955342164
5.90405251434
24.3255954848
14.7785954101
14.6151239713
14.5792932432
14.4655025925
14.3246152506
14.1897867215
14.0403648012
13.8826945945
13.7133754688
13.5368061189
13.3623907155
13.1949895039
13.0405010748
12.9018637779
12.7714053282
12.6361781149
12.6373028566
-17.234930657
4.19667250326
5.89203137253
5.80517967416
5.68896634771
5.61877796249
5.56440943447
5.51427999737
5.46633148968
5.41231005748
5.35440062046
5.28985883836
5.21015275404
5.11228289333
4.98891979346
4.82171689392
4.59216233694
4.12121635886
31.9967467239
17.7673086246
16.21999306
16.0911772856
15.863185168
15.6677461033
15.4757355682
15.2772122183
15.0685932106
14.8450663582
14.6086839704
14.3588145963
14.0876280064
13.7925970347
13.4797325478
13.1508937946
12.7746639843
12.5458205036
3.60456226549
3.15411281765
2.17521632959
2.03764831104
2.03917170346
2.0161215815
2.01911163257
2.01088841264
1.99993702287
1.97353928998
1.92977078979
1.86183810221
1.76677324123
1.64739234066
1.52771775604
1.4707688154
1.58585092462
1.80206252433
1.88632220662
1.89798126939
1.91913698839
1.95588660328
2.00063261589
2.04516002177
2.08062277862
2.10547897393
2.12065415971
2.13060445872
2.13840028208
2.14825155921
2.16178231807
2.18153828676
2.20753956757
2.24106447453
2.28114642768
2.32834615147
2.38117143174
2.43976012532
2.50238730009
2.56899031503
2.63777745916
2.70861608092
2.77981978947
2.85143882109
2.92212110229
2.99230530579
3.06097495862
3.12889615401
3.1954075088
3.26157754122
3.32687226838
3.39241325655
3.457764297
3.5239824433
3.59059232567
3.65842322205
3.72680839941
3.79633517198
3.86629512184
3.93707784639
4.00798025073
4.07918373946
4.1500071745
4.22038320261
4.28963427106
4.35744422391
4.42314828894
4.4861945582
4.54583525958
4.60134106289
4.65211880725
4.69787461671
4.73837254683
4.77335612072
4.80246815003
4.82549098247
4.84220144644
4.85284215154
4.85821499364
4.8597166458
4.85869501969
4.85625371598
4.85215319485
4.84482118213
4.8327733083
4.81453935753
4.78914247043
4.7554645463
4.71298788707
4.6608590271
4.59889993342
4.52644627007
4.44367254075
4.35010422055
4.24635031669
4.1320716846
4.00813862075
3.87445758356
3.73262795538
3.58280239602
3.42679605551
3.26492559285
3.09957331647
2.93126833908
2.76232115052
2.5937503634
2.42748172592
2.26476687037
2.10655065972
1.95761162913
1.82150884349
1.70135663806
1.60022448821
1.52317630486
1.46818030355
1.4254551324
1.38499783331
1.34692398423
1.31920090843
1.30101891946
1.24801940689
1.15008519741
1.04189608038
0.973818226911
0.952862917742
0.94360906574
0.94065911474
0.945337696536
0.955814652425
0.970655244736
0.987651104416
1.00575093266
1.02418102695
1.04260029901
1.06077367528
1.07874476284
1.09642826805
1.11382022038
1.13068052681
1.1469190645
1.16241647027
1.17720843694
1.19136589172
1.20493607506
1.21803394734
1.23072467108
1.24300864164
1.25481691594
1.26606853539
1.27663363076
1.286404576
1.295258754
1.30313541296
1.30996956877
1.31575888869
1.32051069987
1.32421010116
1.32682902481
1.3282588361
1.32862572244
1.32796312326
1.32647703879
1.32418160848
1.32119016786
1.31743549792
1.31296406402
1.30765674746
1.30151545111
1.29438611865
1.28622359648
1.27688392023
1.26635738508
1.25453843781
1.24143790211
1.22699799975
1.21124879438
1.19417249294
1.17579662227
1.15618148655
1.13544842728
1.11378898134
1.0914451875
1.06880994639
1.04636319884
1.02482532595
1.0049916784
0.988312802833
0.976475922655
0.971402327183
0.97446643714
0.985867594772
1.00232954534
1.01472533051
1.01123105279
0.97624973405
0.893471125282
0.755092001231
0.569590233662
1.83271643206
1.8799302702
1.96833291047
2.07001243113
2.15181778327
2.20279211159
2.22547000173
2.22798572558
2.21737343642
2.20021899251
2.18009853034
2.16026667182
2.14169055309
2.12581170533
2.11238665173
2.10207026917
2.0941116293
2.08881593303
2.0852098348
2.08337547769
2.0822323253
2.08174051138
2.08078184893
2.07924346417
2.07603659705
2.07114087477
2.06369144999
2.0538825421
2.04106583235
2.02569517632
2.00738155443
1.98677196871
1.96362662825
1.93863515799
1.91164658406
1.88334879526
1.8535536601
1.82278556326
1.79078783907
1.75791149464
1.72387053448
1.68891338767
1.65279279874
1.61565546028
1.57729320845
1.53773147029
1.49678090975
1.45434714876
1.41025231221
1.36438492166
1.31666792804
1.26698573051
1.21489792068
1.16001477004
1.10215412027
1.04131881793
0.977669884766
0.911716743626
0.844353298964
0.776315559365
0.70793047719
0.639717685096
0.572066161481
0.503963298962
0.436853980243
0.371963351975
0.309965577667
0.251127240342
0.195693662229
0.143716844134
0.0954337705606
0.0509736542599
0.010730456693
-0.0251048259672
-0.0560329089346
-0.0818201518218
-0.102037452526
-0.116789440687
-0.12599247754
-0.129973605865
-0.128649481839
-0.122620835579
-0.112127019194
-0.0978493333333
-0.0796936215586
-0.0583465343343
-0.0342225789156
-0.00761353508957
0.0223325585822
0.0533102648912
0.0841038076742
0.116895594833
0.157453389665
0.207259201653
0.266003181462
0.336827659564
0.420557423825
0.508827758689
0.588237482347
0.660913141809
0.723623985402
0.772358017269
0.80680481768
0.836181849572
0.892040170998
1.0164296387
1.12711040953
1.18788078375
1.23826415708
1.28489978442
1.32849513303
1.36831842843
1.40442197327
1.43722638675
1.46710259965
1.49438207339
1.51948086932
1.54281334058
1.56473714742
1.58544495419
1.60501937934
1.62354920535
1.64116640203
1.65809916191
1.67459628817
1.69093444958
1.70736738788
1.72404681997
1.74103730939
1.75836335061
1.77601416967
1.79394447421
1.81208796153
1.83037467969
1.8487399261
1.86711675049
1.88548333606
1.90382137504
1.92210672956
1.94029465655
1.95828331148
1.97606389059
1.99369169505
2.01121946148
2.02861871084
2.04579979113
2.06261037459
2.07885387397
2.0942659474
2.10851971627
2.12120766741
2.13189453502
2.14010621662
2.14533023744
2.14702834815
2.14467787682
2.1378026907
2.12600443947
2.10902609981
2.08678144268
2.05931076754
2.02684669839
1.98992391631
1.94926220568
1.90583543371
1.86072478779
1.81526674633
1.77099487182
1.72979181733
1.69308546015
1.66179695085
1.63544774315
1.6116001302
1.58351023387
1.54353809284
1.4833260337
1.39353153235
1.27184049098
1.13934926251
1.07636702291
1.79772333016
1.93783579668
2.11122507252
2.2565658261
2.33330017111
2.34628559172
2.31804377239
2.27039682078
2.21680913806
2.16552685098
2.11986655899
2.0819987458
2.05202498367
2.03057362165
2.0170073322
2.01158413453
2.0134502297
2.02265767226
2.03820523029
2.05995431255
2.08674904828
2.11828832647
2.15335684421
2.19154373058
2.23164058527
2.27330226905
2.31547525106
2.35800310129
2.40006203813
2.44173421957
2.48246723781
2.52254780839
2.56159833974
2.60004699549
2.63763897776
2.67480245261
2.71133181836
2.74758737909
2.78332514308
2.81881189628
2.85383497227
2.88859190142
2.92292922605
2.95697748992
2.99062926774
3.02392441637
3.05676174205
3.08908158696
3.12077697075
3.15169868558
3.18174608159
3.21085992097
3.23900790867
3.26587468097
3.29109831199
3.31435275401
3.33531597776
3.35353227489
3.36820356541
3.37854436654
3.3833205138
3.38061608744
3.36861687472
3.34723270348
3.31466321599
3.27163910472
3.21961175608
3.15987002675
3.09341699187
3.02086337626
2.9426635067
2.8590327299
2.77023180996
2.6764548153
2.57808352304
2.47555680611
2.36956334993
2.2607652246
2.15006377257
2.03840379894
1.92692863639
1.81662459588
1.70848677155
1.6032833902
1.50187728884
1.4047355339
1.31206610189
1.22410849218
1.14079024645
1.06144918381
0.983485893454
0.909084271076
0.843800131911
0.790286351179
0.747572423729
0.710070965775
0.683050948136
0.657231788413
0.640974941678
0.649600245022
0.659161743221
0.651380118682
0.681536769839
0.744299832009
0.804066610382
0.892098864095
1.00780575978
1.12147783848
1.21051736985
1.2778609419
1.32945440118
1.36949347798
1.40088464241
1.42559735789
1.44496403122
1.4599107936
1.47126371138
1.47966444997
1.48571964001
1.48977616112
1.49212723671
1.49294462261
1.49249254022
1.49107747611
1.4890509125
1.48674355969
1.48425233124
1.48166544792
1.47909085319
1.47661920181
1.47429157169
1.47212942743
1.47013083594
1.46831148477
1.46670253039
1.46540488623
1.46456632012
1.46436065808
1.46487999124
1.46592884331
1.46744429546
1.4694295012
1.47209652696
1.47559667404
1.48010830266
1.48568763443
1.49243604062
1.50036297321
1.50953428914
1.51992126812
1.53155855737
1.54440947094
1.55848156164
1.57371846146
1.59013525948
1.60767219126
1.62632564493
1.64600148216
1.66663781424
1.68801990937
1.70987403994
1.73173056886
1.7531004313
1.77327829008
1.79154905427
1.80703506633
1.81901003322
1.82701883745
1.83089612658
1.83034619108
1.82496186198
1.8131598219
1.79114379783
1.75140860805
1.6870714966
1.58836527627
1.44452908179
1.25221635832
1.03531559163
0.870265523942
1.87400930682
2.06557480272
2.24045118844
2.37508012346
2.42125493853
2.39592790443
2.33373811376
2.2605448833
2.18917638227
2.12560137526
2.07105554333
2.02607115558
1.98971937307
1.96184295846
1.94140179352
1.92827801463
1.92149163663
1.92092705212
1.92558038055
1.93523955339
1.94886212062
1.96613468916
1.98595866567
2.00798633155
2.03114440287
2.05512223171
2.07899422071
2.10261246346
2.12525982511
2.14700673412
2.16735564892
2.18658044212
2.20438168474
2.22113928622
2.23666879751
2.25140871379
2.26519118789
2.27840017645
2.29088387922
2.30294857693
2.31445277234
2.32563758672
2.33640042992
2.34690663434
2.35707799903
2.36698294641
2.37654092415
2.38571182284
2.39437062182
2.40239281289
2.40958072415
2.41566228506
2.42055390143
2.42413098671
2.42622130994
2.4266647676
2.4253497248
2.42216521402
2.4169552747
2.40976593549
2.40124251373
2.39283824582
2.38639015791
2.38402228526
2.38753771503
2.39673001699
2.41096986757
2.42953754033
2.45172859988
2.47672112607
2.50361394617
2.5312803635
2.55846310275
2.58363209434
2.60519668926
2.62141800458
2.63061728273
2.6311749129
2.62179856849
2.60155573594
2.57002219277
2.52720966104
2.47361071211
2.40998442795
2.33739034161
2.25706784135
2.17002610848
2.07683868113
1.97854813211
1.87503977436
1.76718738936
1.6577269602
1.54900923995
1.44349932446
1.34334432195
1.25385598174
1.18937943277
1.15665444261
1.1753799961
1.24429168303
1.31350481811
1.34957297024
1.37235698321
1.38334257626
1.39029964954
1.42157528773
1.49278016199
1.58390443809
1.66964364901
1.74057075876
1.79754130724
1.84394442567
1.88244927251
1.91494577155
1.94263100447
1.96639235518
1.98692704075
2.0048299483
2.02060157209
2.03459288949
2.04703531851
2.05810429082
2.06801110969
2.07701048617
2.08538036512
2.0933721225
2.10112045941
2.10872531627
2.11626681097
2.12379915479
2.1313215123
2.1388063477
2.14620064225
2.15348460006
2.16067975542
2.16790573702
2.17531646551
2.18306131831
2.19111343372
2.19923797271
2.2071694817
2.21479275394
2.22209933387
2.22909712474
2.23572581063
2.24187433875
2.2473868081
2.25209145315
2.25580464123
2.25834539274
2.25955905764
2.2593151114
2.25751362299
2.25409126277
2.24906149453
2.24247814111
2.23447383248
2.22520206864
2.21486895252
2.20364428684
2.19175839487
2.17938039761
2.16669293525
2.15380578655
2.14087851793
2.12808371334
2.11582358453
2.10477643281
2.09588409328
2.09007998542
2.08793413811
2.08865609851
2.08903347365
2.08291019132
2.06290513116
2.01955076273
1.94441433525
1.83771883769
1.72286108227
1.65532134574
2.04725416949
2.15604518075
2.26750907072
2.39130323773
2.42440733897
2.38786109234
2.32193636702
2.25028557706
2.18216480918
2.12120401243
2.06789694046
2.02253896347
1.9844881829
1.95372781095
1.92955203375
1.91195898085
1.90024474218
1.89436289622
1.89356216567
1.89771514976
1.90596330421
1.91808138027
1.93315609137
1.95086729121
1.97028736777
1.99112069413
2.01250656593
2.03424809148
2.05564126899
2.07664758755
2.09675931933
2.11609624548
2.13430709589
2.15165363385
2.16789237316
2.18332782862
2.19778211799
2.21156224959
2.22449749928
2.23686303365
2.24851859409
2.25969083439
2.27026622047
2.28040089751
2.28998259551
2.29906190308
2.30748020778
2.31515689831
2.32187611353
2.32741440388
2.33150619516
2.33392537731
2.33442370411
2.33276171755
2.32869843663
2.32198381053
2.31248681536
2.300247321
2.28570583218
2.26968727486
2.25312980127
2.23655726315
2.22014587228
2.20418951673
2.18966072761
2.17760670631
2.16896998559
2.16458200717
2.16517305577
2.17130531915
2.18340726383
2.20162561058
2.22587147043
2.2556554894
2.29012742396
2.32793866808
2.36735522118
2.40620894129
2.44216344102
2.47281877273
2.49597189374
2.50979151033
2.51292417047
2.50440577117
2.48394828127
2.45180420249
2.40821375026
2.35388037804
2.28919139935
2.21548066291
2.13354120898
2.04933467561
1.96848795425
1.89201264269
1.83345954952
1.82441476092
1.87413168821
1.96035914634
2.04677246674
2.0918805114
2.07966655628
2.01992808769
1.94487787227
1.86788120836
1.80103188859
1.75604593357
1.73919359851
1.74238990623
1.75465427669
1.76738175278
1.7772941293
1.78421796071
1.78870177535
1.79139122884
1.7927173443
1.79307814449
1.79274045467
1.79204484969
1.79119390119
1.79039293317
1.78966829121
1.78906840294
1.78862195448
1.78841480337
1.78855098245
1.78912447178
1.7901791068
1.79171007126
1.7936995172
1.79607229716
1.79873087074
1.80152101657
1.80431446702
1.8070066156
1.80962164671
1.8122759737
1.81517968826
1.81848207918
1.82216550171
1.82602095704
1.82980857261
1.83348631228
1.83711565413
1.84082979125
1.84470632399
1.84882626985
1.85322456201
1.85795880172
1.86305044737
1.86854668269
1.87446564523
1.88084594318
1.88768602346
1.89499262587
1.90273895704
1.91089291174
1.91938703724
1.92812067412
1.93693779753
1.94561513955
1.95391255258
1.96153387229
1.96816772367
1.97344945405
1.97704831825
1.97868266672
1.97832259852
1.97619083271
1.97276855171
1.96858095508
1.96382305529
1.95758184963
1.94747752991
1.92943112775
1.89883914073
1.84977324071
1.77945839929
1.69323401196
1.61319521674
1.57786142039
2.2453470494
2.12687735126
2.18553499677
2.34869369063
2.39607956021
2.36793675288
2.31333683946
2.25330523137
2.19475270233
2.14042620892
2.09103311411
2.04719571201
2.00880941146
1.97613812209
1.94889288881
1.92722907387
1.91075959105
1.89956318754
1.89314275161
1.89146973913
1.89396581048
1.90048389854
1.91032118496
1.92326194512
1.93854992691
1.95592536035
1.97466494178
1.99455762023
2.01497578944
2.03581453988
2.0565764984
2.07728865076
2.09759270915
2.11761548646
2.13710610524
2.15627631236
2.17492557886
2.1932921807
2.21122196448
2.22895226945
2.24635881356
2.26366186366
2.2807648317
2.29784029437
2.31478805299
2.33168926111
2.34839795216
2.36486127263
2.38083601547
2.39614874065
2.41048422077
2.4235407824
2.43500719586
2.4445581225
2.45183657632
2.45654054564
2.45845125979
2.45736645885
2.45320892829
2.44595991515
2.43565479851
2.42230534656
2.40603081475
2.38659817396
2.3643777299
2.34019500583
2.31503132279
2.28991649583
2.26593980837
2.24421476264
2.22589458432
2.21207842553
2.20380330449
2.20186792641
2.20684347758
2.21886133362
2.23757458071
2.26199886267
2.29062087023
2.32142886948
2.352110311
2.38024520695
2.40354222329
2.42003603104
2.42832979878
2.42762421306
2.41725752693
2.39775876171
2.37153404998
2.33941594529
2.29992014466
2.25961995265
2.23689212789
2.24540301554
2.29163031679
2.37229408163
2.46604165944
2.53933789701
2.55739694236
2.50575972123
2.40296450497
2.27762606825
2.15428242632
2.04197996894
1.94691688693
1.87240643495
1.81977898417
1.7860090745
1.76702814662
1.75770201706
1.754024085
1.7535787118
1.75501013074
1.75751340832
1.76061206501
1.7639807742
1.76745437498
1.77099333733
1.77464209867
1.77842721968
1.78233711569
1.78632418589
1.79035387703
1.79443434161
1.79862453464
1.80299014237
1.80758214111
1.81241297977
1.81746947139
1.82268188598
1.82794471053
1.83310537135
1.83803691779
1.84266654091
1.84707066327
1.85144056479
1.85605448941
1.8610905134
1.86655911012
1.87224337186
1.87795849355
1.88362764365
1.88931572743
1.89508730463
1.90100544143
1.90707577311
1.91330218199
1.91964849341
1.92607984604
1.93253285656
1.9389498185
1.94526003872
1.95140097254
1.95731550625
1.96295993695
1.96830709074
1.97333969455
1.97804670833
1.98239853424
1.98634845365
1.98982718073
1.99274054671
1.99495989994
1.99631921074
1.99663058639
1.9957336292
1.99359793311
1.99033050604
1.98614378552
1.98115878457
1.97505185911
1.96652276992
1.95313624442
1.9312523585
1.89654879699
1.84467342046
1.7744939862
1.69234806734
1.61721636327
1.57472534943
2.39087770166
1.95260129264
2.03790053321
2.29266413897
2.35768348001
2.33991118008
2.29874430336
2.25184106967
2.20451725625
2.15901035045
2.11618491184
2.07672711501
2.04088347041
2.00902738968
1.98118736059
1.95760323077
1.93815766443
1.92297441884
1.91181580695
1.90472494788
1.90130963946
1.90149656678
1.90478051089
1.91098101838
1.9195243614
1.93020333999
1.94242400451
1.95598936893
1.97035908494
1.98540233889
2.0006817744
2.01615946415
2.03151031849
2.04680945546
2.06182681508
2.07671389588
2.09131741679
2.10583956244
2.12016306445
2.13451123452
2.14879750581
2.16323858938
2.17776179401
2.19254683092
2.20750454299
2.22273221904
2.23807250513
2.25349135104
2.26874224208
2.28362454463
2.29779382314
2.31097261769
2.32281622732
2.33304460156
2.34131689897
2.34737326237
2.35093976222
2.35162655239
2.34935923682
2.34445913002
2.33752636203
2.32916993355
2.32009840654
2.31081185853
2.30135396331
2.2915943013
2.28138260902
2.27061354303
2.25928332064
2.24753808282
2.23573198219
2.22442017115
2.21437989258
2.20650054948
2.20176611047
2.20112002047
2.20536158537
2.2148505972
2.22949834391
2.24866034051
2.27110944975
2.29524170869
2.31914829377
2.34103798537
2.35977375821
2.37438666348
2.38375041671
2.3876697677
2.38665568342
2.38307631247
2.37920324469
2.38541769286
2.41135494515
2.46739619366
2.55416484454
2.64574923269
2.70721803938
2.71612675695
2.66653857843
2.56932877912
2.44844285212
2.32471728241
2.20929642755
2.10565083564
2.01641339951
1.94288832746
1.8854884037
1.84334053706
1.81485426172
1.79732622017
1.78762376872
1.78318792331
1.78207534977
1.78297383794
1.78500271112
1.787542533
1.79029799535
1.79312379011
1.79610356025
1.79927871884
1.80269614997
1.80631086057
1.81007467228
1.81397611446
1.81804447358
1.82234007454
1.82689555983
1.83173323702
1.83680711557
1.84204348993
1.84728490132
1.85237290782
1.85713601316
1.86152746477
1.86561610134
1.86964958557
1.87389559036
1.87855459318
1.88360401995
1.88886458299
1.89416329596
1.89944193735
1.90473824948
1.91010712068
1.9155880941
1.92119135819
1.9269163885
1.93273905795
1.93863180988
1.9445425747
1.95042665463
1.95622067376
1.96188180787
1.96735824222
1.97262619053
1.9776546618
1.98243580573
1.98694020077
1.99113700036
1.99495340958
1.9983013607
2.00104134099
2.00301531443
2.0040198508
2.00385699232
2.0023574404
1.99947030524
1.99524796265
1.98981564157
1.98318701489
1.97493209933
1.96383047156
1.94775605365
1.9236918538
1.88797633214
1.83754311973
1.7723690153
1.69886915201
1.63224259739
1.58969017569
2.43553036626
1.66220164905
1.87106972736
2.22752165493
2.28707581296
2.2771993818
2.25038493634
2.21787829027
2.18395403446
2.15019381526
2.11733441017
2.08600966439
2.05669130629
2.02982865173
2.00569750461
1.98458707941
1.96657658514
1.95182793057
1.940267344
1.9319621433
1.92668787912
1.92436462871
1.92463111847
1.9273745597
1.93217024765
1.93885003005
1.94696389493
1.95634197564
1.96655985665
1.97749192137
1.98878495034
2.00039990417
2.01207956218
2.02387336611
2.03561769979
2.04744555023
2.05925034004
2.07121537201
2.0832690988
2.0956115134
2.10818147126
2.12117413379
2.13452781329
2.1484049728
2.162713289
2.17753377367
2.19270388024
2.20817646445
2.22367330612
2.23900709196
2.25379905697
2.26774986413
2.28056369794
2.29216039442
2.30226877554
2.31081271401
2.31731109702
2.32073500551
2.32090753091
2.31843479074
2.31408533294
2.30838901423
2.30170060012
2.29428095475
2.28639203068
2.27821368712
2.26990061738
2.26155360516
2.25326196277
2.24508021844
2.23705292954
2.22926738096
2.22192659665
2.21532168567
2.20990397767
2.20628638382
2.20521687339
2.20737571616
2.2132567898
2.22307641537
2.23662738586
2.25337256278
2.27236955885
2.29209581521
2.31140206259
2.32883240888
2.34391907946
2.35621944172
2.36577110826
2.37288317047
2.38290244208
2.40952800983
2.46143477864
2.53873898827
2.62359052093
2.68830144788
2.7102601198
2.68462600426
2.6190074187
2.52834711256
2.4282387441
2.32910300751
2.23522375938
2.14836941787
2.07052269841
2.0030745143
1.94699155167
1.90249610196
1.86920889118
1.84578274819
1.83021348584
1.82048874372
1.81481562817
1.81184277452
1.81052361469
1.81013611561
1.81025243621
1.81074667979
1.81166186588
1.8131026792
1.81509019282
1.81756391709
1.82042883746
1.82363726069
1.82717661301
1.83107280011
1.83533474301
1.83995722074
1.84487262869
1.84997195528
1.85507255797
1.8599848375
1.86452925608
1.8686584238
1.87246132611
1.87619879388
1.88013470192
1.88446316602
1.88914537421
1.89405532454
1.89903543014
1.90406382994
1.90914571643
1.91434192815
1.91965679297
1.92511736908
1.93070147937
1.93641130482
1.94220352774
1.94805180324
1.95389453407
1.95968750853
1.96536993447
1.97090079562
1.97623620305
1.98134618844
1.98619990641
1.99076187616
1.99498200403
1.99878237411
2.0020580382
2.00466093826
2.00641667416
2.00711460914
2.00654747932
2.00453776099
2.0009981701
1.99591361563
1.98930785498
1.98107822224
1.9707244661
1.95710364454
1.93837936862
1.91203453699
1.87514940775
1.82567101945
1.7643616489
1.69726940483
1.63645329936
1.5942083239
2.36694896101
1.3137593272
1.70399909938
2.12418506671
2.15505240119
2.15966231757
2.1498426498
2.13318145953
2.11440470062
2.09428914216
2.07350454598
2.05274011519
2.03271123803
2.01391537254
1.99680534142
1.98166743164
1.96869915132
1.95802861793
1.94970978414
1.94376728857
1.9400057307
1.9383403404
1.93854794152
1.94054103958
1.94403598199
1.94891349834
1.95484664682
1.96171246728
1.96920424016
1.97724279259
1.98558426796
1.99421579672
2.00297320501
2.01192244614
2.02096516522
2.03022870273
2.03965958972
2.0494149464
2.0594497123
2.06992627104
2.08079365607
2.09220186795
2.10408280479
2.11655027094
2.1294907776
2.14294483264
2.15673568949
2.17081481865
2.18491342322
2.19883975065
2.21219824873
2.22475226208
2.23633873926
2.2474448016
2.25791296161
2.2678122431
2.27611856681
2.28039089754
2.28076231792
2.27889520247
2.27607457688
2.27308680944
2.27021522301
2.26732660306
2.26416283975
2.26052114158
2.25632823577
2.25162109835
2.2465739912
2.24137286895
2.23619225736
2.23110930612
2.22622655345
2.22164011705
2.21747444736
2.21399767396
2.2116291851
2.21079066917
2.21212457942
2.21605159148
2.2227310913
2.23213181815
2.24350914808
2.25568954674
2.2677560721
2.27864130801
2.28931400545
2.29893412641
2.30685953349
2.31894648565
2.34488640097
2.39266459948
2.45954988962
2.53593396265
2.6026599404
2.64238541591
2.64618696553
2.61661816802
2.56164589306
2.49128437037
2.41386192216
2.3347690922
2.25683136184
2.18205828547
2.11264991142
2.05020919116
1.99614398986
1.95108223997