/*--------------------------------*- C++ -*----------------------------------*\
| =========                 |                                                 |
| \\      /  F ield         | OpenFOAM: The Open Source CFD Toolbox           |
|  \\    /   O peration     | Version:  v1806                                 |
|   \\  /    A nd           | Web:      www.OpenFOAM.com                      |
|    \\/     M anipulation  |                                                 |
\*---------------------------------------------------------------------------*/
FoamFile
{
    version     2.0;
    format      ascii;
    class       surfaceScalarField;
    location    "8";
    object      phia;
}
// * * * * * * * * * * * * * * * * * * * * * * * * * * * * * * * * * * * * * //

dimensions      [0 3 -1 0 0 0 0];
oriented        oriented;


internalField   nonuniform List<scalar> 
24170
(
1.90178032408e-07
1.26642030027e-07
2.29884847552e-07
-4.08262744584e-08
1.57048917546e-07
7.0299799412e-08
1.82668407996e-07
-2.77084607712e-08
1.87558097983e-07
-7.36950882244e-09
1.96879159042e-07
-1.05294056953e-08
2.05432230462e-07
-1.04653703116e-08
2.15842873278e-07
-1.10353433703e-08
2.29150572615e-07
-1.44165373285e-08
2.46901986292e-07
-1.79152745186e-08
2.67271267848e-07
-2.09246461957e-08
2.93714321566e-07
-2.65431788372e-08
3.25856649911e-07
-3.24517413432e-08
3.65615600117e-07
-3.99531469424e-08
4.11841911729e-07
-4.64757569534e-08
4.58363960136e-07
-4.66540071017e-08
5.32107946953e-07
-7.3670219699e-08
-5.02456742557e-07
1.03456616447e-06
6.1455492739e-07
-1.41733480094e-07
2.04188284722e-07
3.72058891111e-07
2.47398742583e-07
2.70762398973e-08
2.40160363955e-07
-2.08490303853e-08
2.43980247609e-07
-1.20684882093e-08
2.56205683605e-07
-2.27757592962e-08
2.7447322784e-07
-2.90853955149e-08
2.9965902943e-07
-3.56694430405e-08
3.28777717978e-07
-4.30695373973e-08
3.61692072855e-07
-4.96784590117e-08
3.97625081297e-07
-5.57681843814e-08
4.36377264526e-07
-6.39086660798e-08
4.77001269103e-07
-7.1843572987e-08
5.18027616768e-07
-7.98778800133e-08
5.56765553695e-07
-8.43939653287e-08
5.97748814856e-07
-8.70393113092e-08
6.89370420517e-07
-1.64786067128e-07
-6.11963673773e-07
7.98965745469e-07
-2.17973041382e-07
4.39557265413e-07
2.78870474548e-07
-1.27532540949e-07
2.58508622645e-07
4.44267414372e-08
2.40654588185e-07
-5.24847889937e-09
2.46886075198e-07
-2.05629356902e-08
2.51790571309e-07
-2.90389951388e-08
2.58627251989e-07
-3.76061696259e-08
2.67006478656e-07
-4.49561248853e-08
2.76836981977e-07
-5.39948982552e-08
2.89333828265e-07
-6.27791977238e-08
3.0515599241e-07
-7.23524490701e-08
3.25055384885e-07
-8.43547994856e-08
3.49524718518e-07
-9.69014193616e-08
3.78548837478e-07
-1.09392774986e-07
4.1389705435e-07
-1.2019205505e-07
4.69336645511e-07
-1.428187121e-07
5.71630340628e-07
-2.67306070126e-07
-6.28660460369e-07
5.87854204025e-07
5.81324246938e-07
2.52814063073e-07
3.13139124901e-07
1.41231077382e-07
3.20640239928e-07
3.62672509648e-08
3.16363229954e-07
-1.70622169902e-09
3.15524366091e-07
-2.07075122385e-08
3.18812695722e-07
-3.28305307503e-08
3.24810098207e-07
-4.41975891505e-08
3.33910101431e-07
-5.41285680304e-08
3.44996019893e-07
-6.50577275367e-08
3.58136905475e-07
-7.55278537512e-08
3.72980101359e-07
-8.67540116473e-08
3.89259901747e-07
-1.00062022528e-07
4.0690505755e-07
-1.1403915513e-07
4.25862372719e-07
-1.27926362355e-07
4.5029608665e-07
-1.44342360211e-07
4.94547335258e-07
-1.86897752748e-07
5.54866410637e-07
-3.27533388354e-07
-5.8889856282e-07
5.15027052217e-07
2.75896371261e-07
3.94128759547e-07
3.57595054022e-07
5.63691415743e-08
3.44542136149e-07
4.62119104377e-08
3.40967484682e-07
-3.53859266676e-10
3.40673990729e-07
-2.25049187958e-08
3.44170264594e-07
-3.77225397589e-08
3.50276357031e-07
-5.1806876738e-08
3.59250638227e-07
-6.41017030796e-08
3.70173493859e-07
-7.70108355621e-08
3.83188447651e-07
-8.92985886522e-08
3.97992924494e-07
-1.02352152681e-07
4.14223628542e-07
-1.16962850876e-07
4.31824236204e-07
-1.322872547e-07
4.51690842712e-07
-1.48355201917e-07
4.78540499896e-07
-1.71695233933e-07
5.19021662159e-07
-2.27784674719e-07
5.50157738706e-07
-3.58997634446e-07
-5.38239773701e-07
4.98994319005e-07
4.16981269035e-07
4.27307226995e-07
4.01988571128e-07
6.99275002398e-08
3.99583669374e-07
4.70326305123e-08
3.95213356672e-07
2.61966079264e-09
3.936715394e-07
-2.22097417339e-08
3.950624231e-07
-4.01230008395e-08
3.98796889936e-07
-5.63846772076e-08
4.05001211652e-07
-7.09067495397e-08
4.13079818467e-07
-8.54790803781e-08
4.23162556501e-07
-9.96290586584e-08
4.35057174218e-07
-1.14377391672e-07
4.48455305866e-07
-1.30460818632e-07
4.63491974546e-07
-1.47409636278e-07
4.81731059604e-07
-1.66717662829e-07
5.06857339291e-07
-1.96963410152e-07
5.37797175353e-07
-2.58889700861e-07
5.4824818087e-07
-3.69612676943e-07
-4.91732464683e-07
5.016519837e-07
4.50129456775e-07
4.57162955558e-07
4.49471756972e-07
6.73000470216e-08
4.47645808951e-07
4.59695960565e-08
4.44245782409e-07
3.76348503768e-09
4.42547008744e-07
-2.23486159891e-08
4.43291975273e-07
-4.23390716061e-08
4.46037309925e-07
-6.04114567447e-08
4.5087112012e-07
-7.68131999731e-08
4.57364812128e-07
-9.29074760002e-08
4.65578349532e-07
-1.08694047563e-07
4.75321889356e-07
-1.24894514352e-07
4.86412434986e-07
-1.42266731296e-07
4.99230432524e-07
-1.60880615271e-07
5.15356039422e-07
-1.83432602689e-07
5.36273772074e-07
-2.18395711012e-07
5.56096531416e-07
-2.79129249205e-07
5.53631597037e-07
-3.6740886688e-07
-4.52528099535e-07
5.13723846445e-07
5.01751733515e-07
4.70763619844e-07
4.97944731125e-07
6.84200529889e-08
4.98136791163e-07
4.33611810475e-08
4.95192554354e-07
4.81268748095e-09
4.93466824682e-07
-2.22470814564e-08
4.93614376631e-07
-4.37459352928e-08
4.95447461691e-07
-6.33642051728e-08
4.99042156396e-07
-8.12472143598e-08
5.04074561459e-07
-9.86981269879e-08
5.10571654796e-07
-1.15767364425e-07
5.18338950415e-07
-1.3320145887e-07
5.27328227536e-07
-1.51720083619e-07
5.38006527615e-07
-1.72013327698e-07
5.5136982399e-07
-1.97208654812e-07
5.66692414221e-07
-2.34119027577e-07
5.76555150202e-07
-2.89297083101e-07
5.6662798984e-07
-3.5792387669e-07
-4.18552001578e-07
5.3236719397e-07
5.52476061521e-07
4.70355417156e-07
5.48382654323e-07
6.94941314226e-08
5.49995801561e-07
3.90708995463e-08
5.47603762895e-07
5.05674324566e-09
5.46097912496e-07
-2.24910177593e-08
5.45877457431e-07
-4.49494790272e-08
5.47032926584e-07
-6.57322328411e-08
5.49576870153e-07
-8.48370972989e-08
5.53320787328e-07
-1.03366494551e-07
5.58215256002e-07
-1.21509219566e-07
5.64136000802e-07
-1.39861245368e-07
5.71078329499e-07
-1.5935694452e-07
5.79430149468e-07
-1.8099461469e-07
5.89315450688e-07
-2.07675077788e-07
5.98598132001e-07
-2.43901173685e-07
6.00464511157e-07
-2.91585058116e-07
5.86456609126e-07
-3.44250814737e-07
-3.88728495133e-07
5.55876268473e-07
6.03991931089e-07
4.58109986453e-07
6.00609361007e-07
6.97451841555e-08
6.03701290937e-07
3.33727928966e-08
6.01735487078e-07
4.85047293176e-09
6.00573510591e-07
-2.30172394453e-08
6.00127005468e-07
-4.59337275755e-08
6.00741215168e-07
-6.7461624841e-08
6.02368691454e-07
-8.74474747005e-08
6.04922682653e-07
-1.06699440524e-07
6.08333494119e-07
-1.25564580052e-07
6.12483163586e-07
-1.44587430709e-07
6.17361604789e-07
-1.6481332296e-07
6.23131694306e-07
-1.8721522706e-07
6.29121872478e-07
-2.14147099326e-07
6.32689754934e-07
-2.478435917e-07
6.28553961097e-07
-2.87775967289e-07
6.1203491776e-07
-3.28225941145e-07
-3.61062049034e-07
5.8394914568e-07
6.58284884274e-07
4.34595912419e-07
6.5461835299e-07
7.05565584598e-08
6.58689422372e-07
2.66864500347e-08
6.57233287603e-07
4.18619504584e-09
6.56438718332e-07
-2.40327408837e-08
6.55908963655e-07
-4.68235107461e-08
6.56062727017e-07
-6.88730646125e-08
6.5691713336e-07
-8.93071844038e-08
6.5836916292e-07
-1.09043391557e-07
6.60378382466e-07
-1.28288964835e-07
6.62764712129e-07
-1.47658331828e-07
6.655359747e-07
-1.68064252424e-07
6.68503733683e-07
-1.90750351513e-07
6.70579134522e-07
-2.16623166848e-07
6.69165092167e-07
-2.46861559393e-07
6.60649210888e-07
-2.7956633081e-07
6.42717757202e-07
-3.1062247585e-07
-3.35226728999e-07
6.16199252408e-07
5.96493155191e-07
4.08966169697e-07
5.94720409158e-07
6.93202447458e-08
5.97273295936e-07
2.14633559934e-08
5.96754406071e-07
2.56872413194e-09
5.96316789292e-07
-2.54513247746e-08
5.95954918618e-07
-4.79019895206e-08
5.9587369335e-07
-7.00867810671e-08
5.96129033437e-07
-9.05904982339e-08
5.96637023105e-07
-1.10445907412e-07
5.97367106866e-07
-1.29719170231e-07
5.98168622896e-07
-1.49009714466e-07
5.98837009457e-07
-1.69656287651e-07
5.99302433826e-07
-1.91504506518e-07
5.98204355955e-07
-2.16239617835e-07
5.9400224954e-07
-2.42900934425e-07
5.84459489553e-07
-2.70501856901e-07
5.68663909832e-07
-2.95289504901e-07
-3.14627070074e-07
5.47439609523e-07
7.27632518199e-07
3.78900000281e-07
7.27600343254e-07
6.69952942213e-08
7.29049252434e-07
1.79742144917e-08
7.29145276266e-07
5.28934561966e-10
7.289476756e-07
-2.67336935984e-08
7.28611561806e-07
-4.89922541709e-08
7.28365433419e-07
-7.08986751116e-08
7.28216711878e-07
-9.1448628228e-08
7.28162063962e-07
-1.11098603571e-07
7.28071675166e-07
-1.30216295858e-07
7.27504983293e-07
-1.49527868527e-07
7.26728311417e-07
-1.69321179445e-07
7.24783950333e-07
-1.904936754e-07
7.21015046202e-07
-2.12680022795e-07
7.13308871007e-07
-2.3590227286e-07
7.00724200845e-07
-2.58098821185e-07
6.82281516443e-07
-2.77635233293e-07
-2.92060913923e-07
6.59401820912e-07
8.85570300003e-07
3.44211013641e-07
8.86352783479e-07
6.41748195032e-08
8.86946792222e-07
1.52259715748e-08
8.87548306358e-07
-1.33777099673e-09
8.87439394312e-07
-2.83313382776e-08
8.87229511148e-07
-4.96845982466e-08
8.86635334691e-07
-7.15921512614e-08
8.86001118321e-07
-9.14519019556e-08
8.85023768495e-07
-1.10953298573e-07
8.83511986333e-07
-1.29530542357e-07
8.81276311308e-07
-1.48284120836e-07
8.78053224165e-07
-1.67007371262e-07
8.73346426606e-07
-1.86428242427e-07
8.65903085166e-07
-2.05818474266e-07
8.54727576444e-07
-2.25037890669e-07
8.38625534574e-07
-2.42549910901e-07
8.18007929645e-07
-2.57237436404e-07
-2.68048636896e-07
7.93093155418e-07
1.07595544645e-06
3.06378054261e-07
1.07840725366e-06
5.95071079452e-08
1.07857372638e-06
1.36335468144e-08
1.07935807145e-06
-4.13364710812e-09
1.07954852259e-06
-2.92959619745e-08
1.07879364412e-06
-5.05609705716e-08
1.07788287817e-06
-7.1132086759e-08
1.07596202748e-06
-9.07691063091e-08
1.07373641151e-06
-1.09050784351e-07
1.06992494511e-06
-1.27217059242e-07
1.06538311821e-06
-1.44283096276e-07
1.05871145635e-06
-1.61809186674e-07
1.05059227166e-06
-1.7837331663e-07
1.0388532202e-06
-1.95000533455e-07
1.02390499893e-06
-2.09962119244e-07
1.00428427922e-06
-2.23549723293e-07
9.81075767599e-07
-2.34071292869e-07
-2.41910431211e-07
9.54716394207e-07
1.30206224352e-06
2.69949674291e-07
1.30841259611e-06
5.13062990474e-08
1.30866911542e-06
1.13125946303e-08
1.31026199738e-06
-6.91218457864e-09
1.3099141219e-06
-3.06117863131e-08
1.30913916194e-06
-5.04460471668e-08
1.30676080515e-06
-7.01069056411e-08
1.30386968449e-06
-8.81347300281e-08
1.29893768088e-06
-1.05520639057e-07
1.29315392455e-06
-1.21705756033e-07
1.28456495954e-06
-1.3745169283e-07
1.27507280568e-06
-1.52164235841e-07
1.26187377799e-06
-1.66476579012e-07
1.2467525362e-06
-1.79354448277e-07
1.22693157172e-06
-1.91153423356e-07
1.20486833766e-06
-2.00749023486e-07
1.17829373271e-06
-2.08499887594e-07
-2.13562618158e-07
1.15081675155e-06
1.57429561839e-06
2.39310454434e-07
1.58283597383e-06
4.09308665474e-08
1.58448067848e-06
7.9043865759e-09
1.58632299319e-06
-1.02501447324e-08
1.58581843532e-06
-3.14062505399e-08
1.58391820657e-06
-4.96331685333e-08
1.58021576979e-06
-6.72818463152e-08
1.57479845367e-06
-8.35045905674e-08
1.56744633261e-06
-9.88197747761e-08
1.55780685093e-06
-1.12995902445e-07
1.54608131835e-06
-1.26228814258e-07
1.53167969226e-06
-1.38474849373e-07
1.51479274863e-06
-1.49738397116e-07
1.49459273397e-06
-1.59664085143e-07
1.4717313811e-06
-1.68182227862e-07
1.44558758535e-06
-1.75015181293e-07
1.41764359098e-06
-1.80194344105e-07
-1.83652177276e-07
1.3871173678e-06
1.90017071719e-06
2.20708614289e-07
1.91210148696e-06
2.70233233499e-08
1.91393660838e-06
4.16453365343e-09
1.91597328617e-06
-1.38806358544e-08
1.91462843822e-06
-3.12831662903e-08
1.9109906955e-06
-4.72020211231e-08
1.90508558105e-06
-6.21093623844e-08
1.89643567299e-06
-7.58506113162e-08
1.88575893273e-06
-8.85422005261e-08
1.87193205887e-06
-1.00140107616e-07
1.85618627622e-06
-1.1066062721e-07
1.83702108563e-06
-1.20185276528e-07
1.81596520686e-06
-1.28623333909e-07
1.79133654778e-06
-1.35812722894e-07
1.7651808031e-06
-1.41730342977e-07
1.73574481551e-06
-1.46328701679e-07
1.70590847386e-06
-1.49686092978e-07
-1.51873907943e-07
1.67323706788e-06
2.29450830581e-06
2.20130971045e-07
2.31150524738e-06
7.06417345964e-09
2.31348256643e-06
9.53783230031e-11
2.31519256579e-06
-1.76923593869e-08
2.31239816344e-06
-3.01005797255e-08
2.30644464989e-06
-4.26569940084e-08
2.29758341676e-06
-5.42271043167e-08
2.28515486927e-06
-6.45128710925e-08
2.27037508974e-06
-7.4302882696e-08
2.2519075682e-06
-8.26937879708e-08
2.23156757148e-06
-9.05072800713e-08
2.20745168628e-06
-9.71199055095e-08
2.18198572969e-06
-1.03074376025e-07
2.15291123147e-06
-1.07761475505e-07
2.12323532163e-06
-1.1170117586e-07
2.0903302367e-06
-1.14502227816e-07
2.05805810082e-06
-1.16628973528e-07
-1.17871971985e-07
2.0227810701e-06
1.68315048755e-06
2.13916655139e-07
1.68987400081e-06
-3.54962621021e-09
1.69127559085e-06
-4.77281677652e-09
1.68993390933e-06
-2.01398229464e-08
1.68730325225e-06
-2.83274994395e-08
1.68022447727e-06
-3.87266819247e-08
1.67320716328e-06
-4.68566518059e-08
1.6614546388e-06
-5.55999724046e-08
1.65049400656e-06
-6.23525617695e-08
1.63490064833e-06
-6.94612635352e-08
1.62033372406e-06
-7.48048759474e-08
1.60149187495e-06
-8.03263459026e-08
1.58395004204e-06
-8.42615342132e-08
1.56247595034e-06
-8.81885202112e-08
1.54272661327e-06
-9.0644201363e-08
1.51951133432e-06
-9.30551878625e-08
1.49856912792e-06
-9.42038070042e-08
-9.54043010445e-08
1.47460709751e-06
1.47122094074e-06
2.04313162493e-07
1.47553951143e-06
-1.16970929712e-08
1.47664987461e-06
-7.59284081773e-09
1.47459408081e-06
-2.13791030916e-08
1.47026565312e-06
-2.72638486869e-08
1.46440042505e-06
-3.47819631155e-08
1.45575336114e-06
-4.10913334515e-08
1.44662467307e-06
-4.67444686842e-08
1.4345112026e-06
-5.24498313782e-08
1.42235688148e-06
-5.70825338998e-08
1.40753218717e-06
-6.15891620693e-08
1.39293395487e-06
-6.52317067389e-08
1.37591484676e-06
-6.86105283212e-08
1.359543528e-06
-7.1150738145e-08
1.34102366117e-06
-7.33556178692e-08
1.32363835253e-06
-7.47888483047e-08
1.30430056617e-06
-7.5965852119e-08
-7.64312888357e-08
1.28653494542e-06
1.28617596606e-06
1.87030502111e-07
1.29191479931e-06
-2.0038510259e-08
1.29005248749e-06
-1.17505853065e-08
1.28873421973e-06
-2.21906593392e-08
1.28440320153e-06
-2.54447073251e-08
1.27856792153e-06
-3.06935829144e-08
1.27089630543e-06
-3.52252541247e-08
1.26171610284e-06
-3.95832090606e-08
1.25151540299e-06
-4.33710095876e-08
1.24005291041e-06
-4.68843273591e-08
1.2275934073e-06
-5.00330818346e-08
1.21441377612e-06
-5.26263715828e-08
1.20019991827e-06
-5.51553912975e-08
1.18573401189e-06
-5.69244814428e-08
1.17055769514e-06
-5.87046555299e-08
1.15536740934e-06
-5.9659858204e-08
1.13994239427e-06
-6.0599617258e-08
-6.11062910775e-08
1.12433796193e-06
1.13190812235e-06
1.65470596302e-07
1.13055180654e-06
-2.02942727416e-08
1.12986260397e-06
-9.55245570406e-09
1.12763175622e-06
-2.2696861111e-08
1.1237878351e-06
-2.30821836409e-08
1.11801890195e-06
-2.75105450187e-08
1.1111192889e-06
-2.97633955874e-08
1.10291623329e-06
-3.26878471978e-08
1.09373271554e-06
-3.53731329337e-08
1.08353740723e-06
-3.7777141347e-08
1.07281692186e-06
-3.99485840648e-08
1.06087927536e-06
-4.20238768874e-08
1.04906379988e-06
-4.35580081116e-08
1.03593792938e-06
-4.51907686882e-08
1.02363050871e-06
-4.60725211943e-08
1.01007039537e-06
-4.70857998034e-08
9.97385261309e-07
-4.73590086285e-08
-4.67291033178e-08
9.82231618872e-07
9.60903906209e-07
1.65609819166e-07
9.93269086882e-07
-5.4802692977e-08
9.90112447232e-07
-1.13978587833e-08
9.89795302501e-07
-2.23397679007e-08
9.8580702973e-07
-1.98678009002e-08
9.80953875009e-07
-2.26336026425e-08
9.74410893621e-07
-2.44304093172e-08
9.67077337843e-07
-2.64802941992e-08
9.59066835191e-07
-2.81819411718e-08
9.50200581838e-07
-3.00010474397e-08
9.40839466025e-07
-3.13689270501e-08
9.30853451533e-07
-3.27478037492e-08
9.20287205422e-07
-3.39460870717e-08
9.09609134492e-07
-3.49805615125e-08
8.98692289875e-07
-3.58781312308e-08
8.87875544905e-07
-3.64887159284e-08
8.77276274137e-07
-3.70921063231e-08
-4.17267733927e-08
8.72025030706e-07
9.65963541623e-07
4.31958934855e-08
8.61739659287e-07
5.04099925416e-08
8.63003854425e-07
-1.00212721679e-08
8.62387999096e-07
-2.22490947474e-08
8.58453984203e-07
-1.64777947678e-08
8.53499569908e-07
-1.90125303121e-08
8.47685361413e-07
-1.91459989702e-08
8.4118666208e-07
-2.05958241233e-08
8.33999678091e-07
-2.17344932538e-08
8.26287957942e-07
-2.25574183261e-08
8.17845468508e-07
-2.36266812382e-08
8.09038282549e-07
-2.45389765016e-08
7.99596726703e-07
-2.52859484689e-08
7.89832092994e-07
-2.57932445403e-08
7.79799423269e-07
-2.62875953344e-08
7.69765122608e-07
-2.67697538537e-08
7.59066261748e-07
-2.699920336e-08
-1.47815044036e-08
7.31993601228e-07
3.74815439358e-07
4.00399361254e-07
7.88383612372e-07
-3.6258756366e-07
7.70039325863e-07
7.3786223913e-09
7.71345372911e-07
-2.28319423816e-08
7.68108181469e-07
-1.23345292312e-08
7.64843020693e-07
-1.54159745696e-08
7.60521697647e-07
-1.53502931979e-08
7.5568663564e-07
-1.63165114755e-08
7.50380663499e-07
-1.67798334974e-08
7.44580346009e-07
-1.74446507706e-08
7.38255838179e-07
-1.76525791007e-08
7.31379546521e-07
-1.82132303918e-08
7.24078146223e-07
-1.83811203122e-08
7.16606745886e-07
-1.87532293435e-08
7.09189528795e-07
-1.92233858456e-08
7.01461710343e-07
-1.92380063875e-08
6.9230548905e-07
-1.84023282876e-08
-4.05639525793e-08
7.17527679644e-07
1.56010052302e-06
-5.19398151758e-07
6.30931302864e-07
5.68996198634e-07
6.45622293755e-07
-5.39167097266e-09
6.56154711739e-07
-2.92864363508e-08
6.48153458976e-07
-6.20409511929e-09
6.42461602008e-07
-9.74167519936e-09
6.36225335739e-07
-9.21615499116e-09
6.29613847019e-07
-9.94624408469e-09
6.22501773443e-07
-9.95872633697e-09
6.14800759279e-07
-9.80857604517e-09
6.06319284302e-07
-9.9312818083e-09
5.98121870709e-07
-1.00878078799e-08
5.89728946421e-07
-1.03334900583e-08
5.81031436365e-07
-1.03548638503e-08
5.72603995052e-07
-1.09726003528e-08
5.66443268949e-07
-1.33111884207e-08
5.68329777848e-07
-2.04409272603e-08
-6.61149526468e-09
5.33411601079e-07
-7.9953695569e-07
8.3853016133e-07
6.55380493344e-07
-8.83171517404e-07
6.30307012781e-07
2.28282098879e-08
5.99999653481e-07
4.87750214949e-09
6.01999295151e-07
-8.06258594146e-09
5.99386037514e-07
-6.92624693404e-09
5.98000532338e-07
-7.68789627505e-09
5.96009163134e-07
-8.04789638686e-09
5.94153679098e-07
-8.14500821946e-09
5.91932204197e-07
-8.04132905759e-09
5.89234196051e-07
-7.56976762063e-09
5.86168448602e-07
-7.17172886176e-09
5.82655917885e-07
-6.88183984626e-09
5.7837461597e-07
-6.25280377179e-09
5.72722506144e-07
-5.43445827076e-09
5.62754618754e-07
-3.30811738456e-09
5.35307620719e-07
6.31255198997e-09
-5.33965333793e-10
5.28929842792e-07
1.33492469394e-06
-9.45957999423e-09
4.00063064545e-07
5.49368790383e-08
5.36893238666e-07
-1.10212415011e-07
5.27534766466e-07
1.88340753665e-08
5.25571662937e-07
-5.54960324571e-09
5.22966718994e-07
-4.02105390318e-09
5.20183641872e-07
-4.73120275596e-09
5.17659197535e-07
-5.57634911937e-09
5.14720487776e-07
-5.34933518063e-09
5.11613019933e-07
-5.30300384199e-09
5.0853023541e-07
-4.86986037005e-09
5.05344326924e-07
-4.05272939116e-09
5.01498768332e-07
-3.09764999619e-09
4.9698415589e-07
-1.89843563604e-09
4.92118808495e-07
-6.35482025608e-10
4.89569735337e-07
-9.59027869738e-10
5.01871390216e-07
-6.30751600837e-09
1.43584652178e-08
4.86339955126e-07
4.11053036348e-07
4.66282749701e-07
3.56521036139e-07
3.75411016604e-07
3.69893299992e-07
3.65895857455e-07
3.6115838026e-07
3.55568625258e-07
3.50170876304e-07
3.44801985338e-07
3.39918327452e-07
3.35860437498e-07
3.32731667306e-07
3.30812956811e-07
3.30157558364e-07
3.2912136542e-07
3.22662434964e-07
3.37064306968e-07
-2.0773602618e-07
2.59469083416e-07
-2.98762280458e-07
1.52247149236e-07
-2.69942688188e-07
9.25233256102e-09
-1.84683512884e-07
-5.50740457219e-08
-1.18663054259e-07
-5.26651742973e-08
-6.91711221562e-08
-3.53622516326e-08
-4.52490843517e-08
-1.77049460446e-08
-3.25587221369e-08
-3.94314899539e-09
-3.36030059949e-08
4.97961347585e-09
-3.74733352805e-08
9.99504180814e-09
-4.67799161131e-08
1.19616488961e-08
-5.42899980598e-08
1.20213202602e-08
-6.31866333005e-08
1.07376861979e-08
-6.86768096125e-08
8.82168006095e-09
-7.38990050511e-08
6.48319963191e-09
-7.55662481706e-08
4.11628165154e-09
-7.64455098833e-08
1.73976192144e-09
-7.42086455908e-08
-4.26611199469e-10
-7.11201787986e-08
-2.44634596398e-09
-6.55239371714e-08
-4.19531737451e-09
-5.92013078532e-08
-5.76695686015e-09
-5.09735429036e-08
-7.08225966358e-09
-4.21510429231e-08
-8.23336288225e-09
-3.19526000624e-08
-9.17946121327e-09
-2.13343078241e-08
-9.99137220059e-09
-9.75380755946e-09
-1.06423993518e-08
2.06676822386e-09
-1.11942212668e-08
1.45402992545e-08
-1.16211040137e-08
2.70994171961e-08
-1.19671764904e-08
4.00745037147e-08
-1.22161492924e-08
5.29739709908e-08
-1.24023442925e-08
6.61313054969e-08
-1.25041339982e-08
7.90965220458e-08
-1.25568583321e-08
9.2173000093e-08
-1.25413561123e-08
1.04964048347e-07
-1.2489070394e-08
1.17763775034e-07
-1.23791136297e-08
1.30229412173e-07
-1.22429754853e-08
1.42619957346e-07
-1.20619940134e-08
1.54650548964e-07
-1.18666294127e-08
1.66541521768e-07
-1.16414185046e-08
1.7807094784e-07
-1.1414015432e-08
1.894195049e-07
-1.1171065283e-08
2.00430176983e-07
-1.0936002194e-08
2.11239616802e-07
-1.06979516224e-08
2.21755879716e-07
-1.04746507824e-08
2.32066089627e-07
-1.02582195873e-08
2.421422751e-07
-1.0059883699e-08
2.52016767881e-07
-9.87598526135e-09
2.61715176708e-07
-9.70823481775e-09
2.71234409074e-07
-9.55948687792e-09
2.80625736566e-07
-9.43039496168e-09
2.8988269301e-07
-9.32310237081e-09
2.99054012051e-07
-9.2343900907e-09
3.08144571789e-07
-9.16649198187e-09
3.17168383144e-07
-9.11406659964e-09
3.26171929129e-07
-9.07346968575e-09
3.35110517745e-07
-9.04922923049e-09
3.44076495836e-07
-9.03466155509e-09
3.5295831724e-07
-9.03008946131e-09
3.61825611478e-07
-8.94059252092e-09
3.70293074037e-07
-8.64280368304e-09
3.78165463167e-07
-7.98472899969e-09
3.84876951157e-07
-6.91958221069e-09
3.91211827091e-07
-6.493938042e-09
3.97710881526e-07
-6.75668304631e-09
4.0474567446e-07
-7.22266972837e-09
4.12319788295e-07
-7.84257808154e-09
4.20631009657e-07
-8.52966154458e-09
4.29622695685e-07
-9.28233991811e-09
4.39410276862e-07
-1.00554787273e-08
4.49932178365e-07
-1.08605078845e-08
4.61286214784e-07
-1.1675207953e-08
4.73376538122e-07
-1.25273987957e-08
4.86334951663e-07
-1.33704269744e-08
5.00080729282e-07
-1.4248404354e-08
5.14677860182e-07
-1.51305468499e-08
5.30074921788e-07
-1.60161040327e-08
5.46298502145e-07
-1.68771804145e-08
5.63279669849e-07
-1.77194276496e-08
5.81002741771e-07
-1.85110843179e-08
5.99416854459e-07
-1.92523573959e-08
6.18437727841e-07
-1.99138469484e-08
6.38017340168e-07
-2.04820906098e-08
6.57979964855e-07
-2.09470882147e-08
6.7828365971e-07
-2.12790044989e-08
6.98596529786e-07
-2.14164510436e-08
7.18798653142e-07
-2.12515932861e-08
7.3832511114e-07
-2.07312813969e-08
7.56798857744e-07
-1.9451242762e-08
7.72725890188e-07
-1.7641595775e-08
7.85934868831e-07
-1.49859547446e-08
7.96078709461e-07
-1.22002735921e-08
8.03246374541e-07
-8.93003595838e-09
8.06364097474e-07
-4.46890154899e-09
8.03904058967e-07
1.67781600349e-09
7.95536733533e-07
8.45570572431e-09
7.80048447374e-07
1.62875581657e-08
7.52166598031e-07
2.99484876415e-08
7.34609977156e-07
2.02218699804e-08
7.53423492503e-07
-1.44504076686e-08
7.89123766671e-07
-3.06304022024e-08
8.30267820664e-07
-3.36363886278e-08
8.15513737188e-07
2.31213642776e-08
7.43030116574e-07
8.14525777951e-08
7.37413400777e-07
1.55192537634e-08
6.86376062535e-07
5.96674318999e-08
6.0050766376e-07
9.12439731473e-08
5.33132286147e-07
7.09310414576e-08
4.89665070667e-07
4.57536216727e-08
4.63510036287e-07
2.77229200253e-08
4.49615450522e-07
1.46232838323e-08
4.4205803042e-07
7.87362335192e-09
4.37358657425e-07
4.3759804922e-09
4.34092153334e-07
2.68498679992e-09
4.31237184003e-07
1.774392348e-09
4.28641141421e-07
1.3481245812e-09
4.25962784194e-07
1.0452540899e-09
4.23310238043e-07
8.91905483335e-10
4.20535342243e-07
7.44644020974e-10
4.17795977581e-07
6.49047789049e-10
4.15063289897e-07
5.58092796112e-10
4.12373871637e-07
4.89946682765e-10
4.0965737579e-07
4.30427833228e-10
4.06877998912e-07
3.60760065023e-10
4.04136985239e-07
2.11809625907e-10
4.0114348577e-07
3.69436317287e-10
3.97947555751e-07
5.64940602536e-10
3.94619777992e-07
6.37246410816e-10
3.91291708273e-07
6.74484096999e-10
3.87914154078e-07
6.59425818441e-10
3.84572647658e-07
6.72068229907e-10
3.8115449821e-07
6.67177959754e-10
3.77710666109e-07
7.37297833876e-10
3.74062126802e-07
8.45308395578e-10
3.70242921195e-07
1.05249197978e-09
3.6611372392e-07
1.26031165009e-09
3.61740194319e-07
1.5561351517e-09
3.5702469547e-07
1.85269306048e-09
3.51910246254e-07
2.41845341935e-09
3.46146169765e-07
3.03659059526e-09
3.39652640062e-07
3.85336044358e-09
3.32061231991e-07
4.69844334499e-09
3.23383751012e-07
5.72963293009e-09
3.13413617582e-07
6.74092593323e-09
3.02337117316e-07
7.87620579287e-09
2.90026473632e-07
8.89466329789e-09
2.76780471912e-07
9.94609181631e-09
2.62536204093e-07
1.07605672008e-08
2.47717779844e-07
1.15101852009e-08
2.32322889189e-07
1.19141879568e-08
2.16880762336e-07
1.21833744812e-08
2.01407852305e-07
1.20413477274e-08
1.86481198125e-07
1.17528886228e-08
1.7206691744e-07
1.10599786291e-08
1.58708607257e-07
1.02912926057e-08
1.46248211646e-07
9.2079639374e-09
1.3514427324e-07
8.17043825031e-09
1.2510244171e-07
6.9327811892e-09
1.1649791143e-07
5.85368386326e-09
1.08926885627e-07
4.67465724726e-09
1.02682051675e-07
3.74971672096e-09
9.73129730834e-08
2.77379571581e-09
9.31692142509e-08
1.98352779888e-09
8.9934818097e-08
1.02243162307e-09
8.805337481e-08
1.13060438044e-10
8.72883356984e-08
-1.01729720121e-09
8.81764459346e-08
-2.2546640437e-09
9.06045370514e-08
-3.79256996673e-09
9.51629929903e-08
-5.57103183147e-09
1.01885178684e-07
-7.74496827133e-09
1.11113229107e-07
-9.98041485905e-09
1.22309665095e-07
-1.19904826427e-08
1.3495157441e-07
-1.32281501134e-08
1.48997440432e-07
-1.47182455183e-08
1.62484785647e-07
-1.39725987291e-08
1.73839245549e-07
-1.19565538433e-08
1.81315744003e-07
-7.85493129031e-09
1.80371110004e-07
3.97855716377e-10
1.67549621008e-07
1.23577359988e-08
2.10051188619e-08
1.45755395782e-07
-2.02886593529e-08
3.07438166325e-07
1.03434466173e-07
4.73782274086e-08
1.49339720199e-07
-2.60468870933e-08
1.38492367033e-07
-3.42689809923e-08
1.15522217729e-07
-2.35549657153e-08
9.55048494577e-08
-8.55724851234e-09
7.82730219928e-08
3.78369672932e-09
6.80924592981e-08
1.13183997953e-08
6.17436624184e-08
1.44018511052e-08
6.14951120197e-08
1.42421600431e-08
6.38613045873e-08
1.19701959122e-08
7.04200584685e-08
8.56598959932e-09
7.82927306938e-08
4.64408626798e-09
8.88091686717e-08
6.65468969e-10
9.97352830743e-08
-3.14633758565e-09
1.12232493204e-07
-6.61498111744e-09
1.24611373288e-07
-9.70186016685e-09
1.37865642328e-07
-1.23550938305e-08
1.50749065576e-07
-1.46115018279e-08
1.64051987807e-07
-1.64708427898e-08
1.7688942429e-07
-1.79841185488e-08
1.89858426676e-07
-1.91761553292e-08
2.02326929946e-07
-2.01016219876e-08
2.14742734634e-07
-2.07804976243e-08
2.26650450991e-07
-2.12659325549e-08
2.38352309009e-07
-2.15811664672e-08
2.49543280523e-07
-2.17586888033e-08
2.60473055207e-07
-2.18195558722e-08
2.70890488707e-07
-2.17930211892e-08
2.81027105967e-07
-2.1690440859e-08
2.90682408269e-07
-2.15346167982e-08
3.00087632363e-07
-2.13319160779e-08
3.09067892286e-07
-2.10999746674e-08
3.1784334629e-07
-2.08417167046e-08
3.2626855925e-07
-2.05693774078e-08
3.34549936449e-07
-2.02824499208e-08
3.42565281895e-07
-1.99910731745e-08
3.50490524375e-07
-1.96929969681e-08
3.58223735638e-07
-1.93963916532e-08
3.65901098342e-07
-1.90994558837e-08
3.73442282618e-07
-1.88083186454e-08
3.80944774094e-07
-1.85215730706e-08
3.88349567865e-07
-1.82431711265e-08
3.95715760346e-07
-1.79716864602e-08
4.03007009034e-07
-1.77089805445e-08
4.10243913501e-07
-1.74539592249e-08
4.17412731673e-07
-1.72058073115e-08
4.2450262323e-07
-1.69640805386e-08
4.31511573783e-07
-1.67271983695e-08
4.38407791749e-07
-1.64917965534e-08
4.45196081969e-07
-1.62539043447e-08
4.51833761391e-07
-1.60182654702e-08
4.58315903678e-07
-1.57812687593e-08
4.64622893333e-07
-1.5544507143e-08
4.70732755843e-07
-1.53057291963e-08
4.76643874818e-07
-1.50581568977e-08
4.82288763012e-07
-1.47918099691e-08
4.87651099116e-07
-1.44813421281e-08
4.92601399902e-07
-1.40979699163e-08
4.97138517347e-07
-1.3582729596e-08
5.01241848419e-07
-1.28814483348e-08
5.05102307991e-07
-1.19750787402e-08
5.09199511848e-07
-1.12004120378e-08
5.11970371755e-07
-9.43574173326e-09
5.13149422997e-07
-8.14017209363e-09
5.13036501248e-07
-7.31936034065e-09
5.11830095124e-07
-6.86563754551e-09
5.09793538078e-07
-6.72635463859e-09
5.07126602518e-07
-6.8729537594e-09
5.04067518604e-07
-7.26312538327e-09
5.00766847632e-07
-7.87541943815e-09
4.97415051973e-07
-8.65962527141e-09
4.94124290986e-07
-9.59579840993e-09
4.91002473268e-07
-1.06643967445e-08
4.88121433155e-07
-1.18374556058e-08
4.85581773297e-07
-1.30838272357e-08
4.8340987676e-07
-1.4407973478e-08
4.81684463036e-07
-1.57706674152e-08
4.80443926687e-07
-1.71574911e-08
4.79735208052e-07
-1.85367408732e-08
4.79593971405e-07
-1.98856199905e-08
4.80028461781e-07
-2.11663614001e-08
4.81039508248e-07
-2.23370773744e-08
4.82546017725e-07
-2.33473442652e-08
4.84489861451e-07