/*--------------------------------*- C++ -*----------------------------------*\
| =========                 |                                                 |
| \\      /  F ield         | OpenFOAM: The Open Source CFD Toolbox           |
|  \\    /   O peration     | Version:  v1806                                 |
|   \\  /    A nd           | Web:      www.OpenFOAM.com                      |
|    \\/     M anipulation  |                                                 |
\*---------------------------------------------------------------------------*/
FoamFile
{
    version     2.0;
    format      ascii;
    class       volScalarField;
    location    "8";
    object      sensitivity;
}
// * * * * * * * * * * * * * * * * * * * * * * * * * * * * * * * * * * * * * //

dimensions      [0 2 -3 0 0 0 0];


internalField   nonuniform List<scalar> 
12225
(
4.51151566753
-9.82782285245
-3.67773584934
-5.23113751943
-4.99909724174
-5.21399192107
-5.33016288185
-5.41052055639
-5.46219238229
-5.51293654717
-5.59127160808
-5.70602828521
-6.02009527974
-6.80066471505
-8.43698010867
-11.3885821744
-15.5009681199
-17.0156825813
-23.5364727349
-5.69600850531
-7.09825444453
-6.41445842032
-6.42289566301
-6.6593520383
-7.01527492145
-7.5326912729
-8.11677702278
-8.74783733328
-9.4482125458
-10.2459881027
-11.2732772542
-12.7101206786
-14.7925000264
-17.6947061318
-20.7244139504
-20.0274353175
7.80508507857
-5.99118620038
-6.63948004456
-6.28818359337
-6.50302658984
-6.61252678574
-6.78184713128
-6.91036700697
-6.99833859239
-7.08390982841
-7.2461623541
-7.57958021112
-8.23137625733
-9.38982016551
-11.2752148999
-13.9217130788
-16.4237491603
-15.9772000545
-9.97854263124
-9.11543669901
-7.61768171197
-7.87566390774
-7.75886697697
-7.82409909137
-7.8838654548
-7.96526764781
-8.04054781118
-8.13842211005
-8.30005437187
-8.59202933236
-9.1236788946
-10.0275554008
-11.4241362745
-13.2062290833
-14.5201615414
-13.6995173658
-6.54523879604
-7.93626506354
-7.99345883888
-7.85822755571
-7.8467905551
-7.87670713583
-7.93762397773
-8.02276847127
-8.11865403726
-8.25133775983
-8.45238670325
-8.77722439696
-9.30989640514
-10.1386816834
-11.2915900735
-12.5528660104
-13.2102028333
-12.373383037
-8.54063617689
-8.58673298733
-8.51157279851
-8.42737857499
-8.37641759624
-8.37392406652
-8.38589248157
-8.42439222215
-8.47831134723
-8.57602073732
-8.745683152
-9.03529685972
-9.50541425602
-10.2030819994
-11.0912795772
-11.9248513898
-12.1882192837
-11.4587027817
-9.24312848324
-8.7622564013
-8.92985851634
-8.81387140321
-8.7742326361
-8.75944726796
-8.75281059655
-8.77161774029
-8.80672362915
-8.88621702928
-9.03357309185
-9.287316315
-9.68604934593
-10.2427262162
-10.8839664073
-11.3874851195
-11.4198386519
-10.807191679
-9.85191487233
-8.97407770199
-9.26908863491
-9.1447223958
-9.11291664494
-9.09228103739
-9.07415590471
-9.08082653282
-9.10359994858
-9.1692893894
-9.29586742683
-9.5114016725
-9.83515748291
-10.2555316027
-10.6862277422
-10.9510044928
-10.8527956631
-10.3370196767
-10.2695778535
-9.15371038866
-9.54282674408
-9.41713164162
-9.39578902317
-9.37510450152
-9.352124249
-9.3526108436
-9.36743725567
-9.42149729811
-9.52686898681
-9.70166510795
-9.95003319373
-10.2458676638
-10.5066631135
-10.6055976216
-10.4359672917
-9.99372420323
-10.5647724786
-9.31001372758
-9.762320213
-9.64246083189
-9.63058867879
-9.61361989933
-9.58943213095
-9.58696167795
-9.59581357828
-9.63867629037
-9.72176155855
-9.85467296318
-10.0311088224
-10.2192792243
-10.3495341846
-10.3374318179
-10.1300863052
-9.74245542271
-10.7894665413
-9.45121872133
-9.92628645649
-9.81880868852
-9.81480936215
-9.8040903549
-9.78112799993
-9.77785454967
-9.78190589052
-9.81352307733
-9.87352034932
-9.96511918417
-10.0762893246
-10.175859348
-10.2098267809
-10.1254477645
-9.90068350582
-9.55615001442
-10.7916523001
-9.56641221568
-9.98227773987
-9.90474751552
-9.90107274281
-9.90019442059
-9.88020515055
-9.87855019241
-9.87927358988
-9.90115799543
-9.94124134752
-9.99859467187
-10.058932691
-10.094993507
-10.0668610975
-9.94246947696
-9.71456361492
-9.40397703838
-10.6914046846
-9.6443994494
-9.97691447173
-9.93212119445
-9.9264183017
-9.93485689747
-9.91748669237
-9.91762474309
-9.91586411306
-9.92949519281
-9.95178498491
-9.97948108404
-9.99832368427
-9.98688818061
-9.91655337631
-9.76911478933
-9.54600086341
-9.26773070571
-10.5485870167
-9.69703588186
-9.93533831862
-9.92612563382
-9.91260170858
-9.93030884976
-9.91462732837
-9.91619247857
-9.91085449954
-9.91442666146
-9.91789470974
-9.91710988743
-9.89922069201
-9.84833712174
-9.74647894522
-9.58528315672
-9.37221300978
-9.12536201777
-10.3758723925
-9.75762922101
-9.88599541435
-9.91759562489
-9.89135553982
-9.91582959091
-9.89816005824
-9.89839942656
-9.88660150123
-9.87783277524
-9.86191220414
-9.83412223182
-9.78461999283
-9.70339857021
-9.57975869845
-9.41252160173
-9.21136436632
-8.99383158188
-10.1769789114
-9.79645140979
-9.82118551101
-9.89217222996
-9.85132776237
-9.88083458085
-9.8591818299
-9.85598828087
-9.83567060281
-9.81429890798
-9.77994718144
-9.73023979944
-9.65767199858
-9.5568335007
-9.42233162703
-9.25709918499
-9.07104928881
-8.88001234379
-9.99880067871
-9.80472730587
-9.74291757639
-9.84467026627
-9.79067308808
-9.82262084373
-9.79499962969
-9.78574990756
-9.75523743357
-9.72045094156
-9.67053502416
-9.60418662487
-9.51685471412
-9.40607395235
-9.27021050962
-9.11327339593
-8.94506136593
-8.77829221922
-9.77993563363
-9.79762963294
-9.64551093838
-9.77509210194
-9.70735680137
-9.73889359036
-9.70350640216
-9.68643555821
-9.64517727269
-9.59854978261
-9.53651170996
-9.45938206455
-9.36474060884
-9.25213931995
-9.12163294486
-8.97738553987
-8.82807168956
-8.68447274604
-9.58244635632
-9.76474430735
-9.56318075492
-9.70413486113
-9.62981581034
-9.65804843743
-9.6161753414
-9.59199598871
-9.5421130472
-9.48679988696
-9.41689099919
-9.3340593343
-9.23733190215
-9.12725966769
-9.00459781043
-8.8730791363
-8.74006635729
-8.61499684745
-9.70605955711
-9.70038483177
-9.58461513026
-9.67592757266
-9.61161767549
-9.62528646063
-9.57706651993
-9.54348875012
-9.48614195768
-9.42404105813
-9.34923548414
-9.26387918475
-9.16732440047
-9.06044514988
-8.94412161867
-8.82161891663
-8.69956608842
-8.58694379346
-9.81476266058
-9.67794586078
-9.6367573009
-9.6923969195
-9.63547263582
-9.63882079048
-9.5863906874
-9.54750455008
-9.48560857331
-9.42018217743
-9.34320978809
-9.25728430688
-9.16159502248
-9.05759836295
-8.94531122637
-8.8286110022
-8.71266357133
-8.60691984943
-9.90913963516
-9.68240628667
-9.69690333219
-9.7258362295
-9.67974989119
-9.67473587392
-9.6196139174
-9.57520116478
-9.51055575527
-9.44260262209
-9.36432945585
-9.27862356273
-9.18428465668
-9.08253215997
-8.9738727616
-8.86145464112
-8.7504548893
-8.64927886784
-10.0951037898
-9.68823001652
-9.77926407946
-9.77659285092
-9.74001714699
-9.72704687678
-9.67006096555
-9.62257820753
-9.55482111364
-9.48470410885
-9.4051913384
-9.31850985896
-9.22453751296
-9.12407161053
-9.01813569624
-8.90877862554
-8.80091573317
-8.70058196613
-10.1527318324
-9.65317502935
-9.88695093715
-9.84769367189
-9.82978475394
-9.80858775215
-9.75083897099
-9.69909480715
-9.63019020289
-9.55851120394
-9.47908650153
-9.39369800503
-9.30111005358
-9.20362688906
-9.10198944046
-8.99898930671
-8.8991497163
-8.81670533604
-10.7562838814
-9.83464608693
-9.89443297013
-9.86108957811
-9.84330254799
-9.81145006717
-9.75185874656
-9.69764777686
-9.62637755196
-9.5526074031
-9.46791131524
-9.37755707249
-9.28112105877
-9.17947440584
-9.07303845642
-8.96309035454
-8.84976605464
-8.72299726352
-8.04655543534
-9.14527231087
-10.3693629864
-10.1301551138
-10.1928493562
-10.1509153024
-10.1075628183
-10.0609787101
-9.99911471955
-9.93280076766
-9.86169203737
-9.7818074094
-9.69419446673
-9.60596231284
-9.5195942175
-9.43683809266
-9.36589729566
-9.33357313524
-18.2590828187
-11.3008357359
-9.56941161658
-9.84265677729
-9.70398878904
-9.63728618066
-9.54396460663
-9.4603194937
-9.36372286244
-9.26297905647
-9.1496698012
-9.04132020966
-8.93553105401
-8.82982074064
-8.72750368528
-8.63229030243
-8.53663723091
-8.47226833638
12.2401839592
-8.20354767294
-11.207740624
-10.507587764
-10.7666483459
-10.6622010983
-10.6706936688
-10.6450023527
-10.6164999367
-10.582297173
-10.5353893936
-10.4767011575
-10.412239774
-10.3378842704
-10.2473779245
-10.1264159338
-9.95785504722
-9.64752230048
-37.7399238825
-7.23534191637
-11.2197582451
-10.0355035089
-10.1508033661
-10.1010518369
-10.0580209557
-10.0412556538
-10.0074167697
-9.96863500721
-9.9272059319
-9.8773383405
-9.81186229512
-9.72610738418
-9.62628436852
-9.52725845882
-9.42542235935
-9.39394926
-4.2858031823
-11.7090261799
-8.08620572419
-8.49230911459
-8.18686336968
-7.97809324727
-7.7789033654
-7.56707793927
-7.36647522153
-7.17564124489
-6.99074643346
-6.8143778964
-6.64712706269
-6.49745638783
-6.36596729206
-6.26139287882
-6.21775077393
-6.23539329606
0.010044996484
0.0162460807592
0.00234062543636
-0.00248153193275
-0.00522153603706
-0.00910473422228
-0.0123944191828
-0.0148330142039
-0.0172040222981
-0.0204771769784
-0.0253327089343
-0.0319670563085
-0.0401585278433
-0.0493774225947
-0.0589024016605
-0.0679709181862
-0.0758035027849
-0.081727089547
-0.0851001803372
-0.0854242326603
-0.0822286354674
-0.0751861819138
-0.063944971033
-0.048278581625
-0.0279620193954
-0.00288967279544
0.027012116628
0.0617085833256
0.101144595297
0.145166896535
0.193567284413
0.246077144612
0.302426537197
0.362284748093
0.425326325725
0.491185990088
0.559550717641
0.630096543302
0.702574643443
0.776697313313
0.852256112132
0.928994455639
1.00674515669
1.08528555238
1.16448657541
1.2441648893
1.32422631757
1.40451579352
1.48495178152
1.56540872181
1.64580076441
1.72601000087
1.805838422
1.88497270099
1.96303200607
2.0396553635
2.11444319855
2.18688355379
2.25631514255
2.32217025213
2.38343325741
2.43777031714
2.48305615255
2.51973752699
2.55027006617
2.57585741674
2.59707056804
2.61405905004
2.62671699686
2.63467101793
2.63746741158
2.63453982679
2.62533974048
2.60938490713
2.58632212711
2.55581744006
2.51772960236
2.47201391227
2.41882803356
2.35833396
2.29079256756
2.21651757999
2.1359683214
2.04952766679
1.95760528544
1.8608425614
1.75951827988
1.65435143839
1.54563938179
1.43428602065
1.32134975367
1.20717329736
1.09216644325
0.976128134622
0.857447655372
0.736635529673
0.615893998621
0.49971402109
0.395359745124
0.306512268226
0.229939957311
0.156578653111
0.0878728690509
0.0383266064101
0.00192391384656
0.0183124188028
-0.000321941121254
-0.0484511168706
-0.092804487156
-0.130447210797
-0.164499882779
-0.193352949641
-0.219266081382
-0.242194028846
-0.26226131781
-0.279629435405
-0.29445368359
-0.306924756327
-0.317213245831
-0.325476815862
-0.331845355741
-0.336450675634
-0.339435779306
-0.340958699706
-0.34121908971
-0.340382029225
-0.338641336475
-0.336232158403
-0.333269346785
-0.329851285671
-0.326061572491
-0.321981864329
-0.317668028259
-0.313234474928
-0.308825313771
-0.304477771255
-0.30020898088
-0.296041205207
-0.29195608992
-0.287809052525
-0.283445448901
-0.278724792554
-0.273509361761
-0.267686711725
-0.261158698863
-0.253838206508
-0.24566907963
-0.236637842723
-0.226789396417
-0.216222242723
-0.205089042797
-0.193581204535
-0.181936849352
-0.170417455947
-0.159281051789
-0.148738701364
-0.138947831444
-0.129989107981
-0.121874788434
-0.114543462972
-0.107885740087
-0.101713217629
-0.0958844796838
-0.0904322406188
-0.085572899816
-0.0816668091071
-0.0791420219476
-0.0786414195445
-0.0810984423193
-0.0881242668233
-0.10122860685
-0.121057650666
-0.147364715531
-0.178338398992
-0.211421813634
-0.240190215713
-0.257958461997
-0.25564973744
-0.226895672815
-0.159246319884
0.00475104735093
0.0343617215096
0.0529500877122
0.0538300583119
0.0487095060371
0.0437470866156
0.0422120043007
0.0454985115353
0.0538954146522
0.067111827769
0.0846536604354
0.105941883398
0.130464034044
0.157728291439
0.187362206241
0.219024543092
0.252500025944
0.287587152672
0.324210925602
0.362280758928
0.401811677857
0.442789557563
0.485280089459
0.529314429128
0.574983238723
0.622299502438
0.671300202941
0.721983745075
0.774361177529
0.82839749771
0.884073657734
0.941348423286
1.00021965536
1.06065705066
1.12265836286
1.18620083803
1.25131149603
1.31798584565
1.38626226833
1.45612653576
1.5275879286
1.6005849072
1.67507640879
1.75095402957
1.82813251975
1.90646690472
1.98583275029
2.0660582561
2.14696609297
2.22834492011
2.30994677159
2.39151103648
2.47280764418
2.55353908421
2.63329542098
2.71165993226
2.78816270837
2.86217123382
2.93279143237
2.99899370917
3.06016419942
3.11663293121
3.16843244551
3.21224974932
3.24443121526
3.26418831215
3.27161806488
3.26710565863
3.25125280704
3.2247144405
3.18809406601
3.14187906585
3.08645426067
3.02206705133
2.9489498638
2.86735515424
2.77766101019
2.68042644177
2.57645551096
2.46661087316
2.35187579157
2.23323181535
2.11174505362
1.98835999407
1.86381616499
1.73864373776
1.61367904297
1.48935982914
1.36587014404
1.2443689434
1.12591507422
1.01098277461
0.898121017684
0.784560110567
0.673324043375
0.571734504477
0.483359570651
0.408384253666
0.329140855525
0.233861282534
0.131260964469
0.0843458475995
0.0887901529211
0.0636526308142
0.0249983935014
-0.0430682534034
-0.119140658178
-0.188128948759
-0.233594446207
-0.275092277103
-0.308830368068
-0.336890410281
-0.361312919846
-0.382500610706
-0.401089559487
-0.417455937821
-0.431929849438
-0.444808372655
-0.456344710747
-0.466738536335
-0.476149865821
-0.484731656808
-0.492649630154
-0.500083538641
-0.507215460541
-0.514201411837
-0.521154184712
-0.528212851217
-0.535577742733
-0.543400614395
-0.551817510093
-0.560940161065
-0.570873922016
-0.58166882023
-0.59336452907
-0.60607633131
-0.619943685094
-0.63511515844
-0.651702017156
-0.669882687122
-0.689831253561
-0.711720445137
-0.735740249007
-0.762065815077
-0.790808834311
-0.821982030383
-0.855484299331
-0.891076047286
-0.928368008896
-0.966809726293
-1.00569589126
-1.0441871538
-1.08134491548
-1.1161684027
-1.14767935715
-1.1749947235
-1.19738602388
-1.21432662473
-1.22556106803
-1.23114187364
-1.23154468852
-1.22758809328
-1.22026906383
-1.21068511237
-1.2000487469
-1.18973083117
-1.18104386124
-1.17559680926
-1.17394671825
-1.17615630141
-1.18240860438
-1.19232433378
-1.20476647894
-1.21358701938
-1.21655569376
-1.20726079512
-1.18188701178
-1.13860127693
-1.08221391385
-1.03451687626
0.0203959129043
0.0677914988521
0.0683691667129
0.050462600965
0.0380970984229
0.0391308669542
0.0524651728818
0.0750340380384
0.104070020959
0.137409607212
0.173462934462
0.211053953662
0.249338196695
0.287711723708
0.325809953942
0.363418047657
0.400510884405
0.437147686109
0.473524389688
0.509885525761
0.546569111734
0.58389428132
0.622255422083
0.662001820643
0.703487472645
0.746998070492
0.792788536804
0.841019819127
0.891809737962
0.945177396255
1.00109510136
1.05946361052
1.12015105911
1.18296914164
1.24773031531
1.31421101815
1.38221749249
1.45154347043
1.52203333818
1.59351459206
1.66586456826
1.73893787748
1.81263338918
1.88681731502
1.96137966265
2.03616278304
2.11100413768
2.18567409569
2.2599155477
2.33338553479
2.40564366614
2.47612852964
2.54422026126
2.60933845236
2.67090066694
2.72832550412
2.78108604381
2.82894974549
2.87183810922
2.90950110057
2.94212820513
2.9708057949
2.99659121668
3.02085008462
3.04323058403
3.06041490148
3.06968168007
3.06881197847
3.05606950843
3.03021618561
2.99057151343
2.93695732775
2.86967638561
2.78949716493
2.69753617581
2.59513917831
2.48387184517
2.36540778951
2.24145137111
2.11362999325
1.98344920422
1.85230657789
1.7214973248
1.59210752805
1.46493299772
1.34079437485
1.22054008051
1.10467068129
0.993238344408
0.886813861086
0.786570744299
0.692476650193
0.60644328136
0.535777245814
0.483922207656
0.427923121011
0.348634413805
0.260596250799
0.198501154943
0.151002596429
0.159768297233
0.16889817415
0.137585224691
0.0759632855726
0.00631934398633
-0.0701195314943
-0.153431431322
-0.239423365564
-0.310595991019
-0.371687275727
-0.4220511084
-0.465367138148
-0.503836601655
-0.53827204832
-0.569468414583
-0.597871160603
-0.623824575937
-0.647606057833
-0.66944453676
-0.689520120014
-0.707972883603
-0.724927329914
-0.740496518561
-0.754818573501
-0.768033750238
-0.780353827849
-0.79196275225
-0.802942025726
-0.813358624155
-0.823288530801
-0.832789748084
-0.841903877936
-0.850662255682
-0.859097748464
-0.867238767708
-0.875119971526
-0.882785504818
-0.89028312906
-0.897666685127
-0.904874388196
-0.911752005862
-0.91817707504
-0.924077994388
-0.929410675733
-0.934136717466
-0.938232862288
-0.941712815195
-0.944650482646
-0.947196174742
-0.9495886236
-0.952160418798
-0.955336777962
-0.959607247335
-0.965503066634
-0.973572911514
-0.984334211614
-0.99821593749
-1.01550389945
-1.03630572704
-1.06051217633
-1.08782154678
-1.11771673239
-1.14942840908
-1.18200744592
-1.21447077772
-1.24590562551
-1.27547120815
-1.30254167702
-1.3266003805
-1.34730999994
-1.36470232634
-1.37831480005
-1.38649622402
-1.38692564985
-1.37687788525
-1.35418908373
-1.31533979758
-1.2571176339
-1.1877381041
-1.12411021542
-0.00765925797016
0.0552007446479
0.064095671391
0.0468638607135
0.0397030121408
0.0514288205021
0.0780004500331
0.114048989156
0.155585398277
0.19993365971
0.245322925706
0.290534040195
0.334772417218
0.377495042225
0.418404761244
0.457344124923
0.494324737358
0.529438923182
0.562912196391
0.594991172506
0.626021727683
0.656358485136
0.686396023586
0.716506710813
0.747094295528
0.778490883268
0.811018599826
0.844931392302
0.880447447177
0.917713543375
0.956839674352
0.997870742627
1.04083123278
1.08569603034
1.13243196978
1.18097461667
1.23127605737
1.28326392646
1.33689269894
1.39209204228
1.44882218154
1.50701257138
1.56661827532
1.6275589717
1.6897636679
1.75310588195
1.81744405904
1.88258499752
1.94829987112
2.01428377674
2.08019041288
2.14557637588
2.20987375765
2.27248338339
2.33281509317
2.39030029039
2.44435799372
2.49444501171
2.54023616791
2.58147736086
2.61710258548
2.64512412945
2.66446381665
2.67713348652
2.68444064593
2.68771778017
2.68702488456
2.68156955395
2.66995645519
2.65038784066
2.62089664252
2.57963435185
2.52512167923
2.45641603143
2.37329671354
2.2763461168
2.16686786171
2.04673731204
1.91824996053
1.78385005667
1.64599134976
1.50687506685
1.36855996573
1.23277002144
1.10090256809
0.974026858618
0.852975272807
0.737972525093
0.629799084894
0.531307232527
0.447997299684
0.383213518793
0.328325729744
0.264448636613
0.177017944821
0.0984590020541
0.0314030038863
0.0288950771337
0.039771486688
-0.0146250860932
-0.0679667172606
-0.112623215834
-0.159473770723
-0.211760747648
-0.26387217276
-0.321198551712
-0.392877718469
-0.473881523606
-0.547275781272
-0.608985603812
-0.658761417114
-0.699643455055
-0.73397846966
-0.763093998284
-0.78812428695
-0.809839582859
-0.828846904922
-0.845639741343
-0.860632604302
-0.874171246392
-0.886532582945
-0.897951986493
-0.908629848036
-0.918761364485
-0.928534723342
-0.938151327456
-0.947775254147
-0.957504819965
-0.967395630988
-0.977483570239
-0.987774742067
-0.998255518323
-1.00889861885
-1.01968528716
-1.03061223045
-1.04170938695
-1.05304146107
-1.06469415519
-1.07673692848
-1.08916106525
-1.10190327008
-1.11494866525
-1.12834982418
-1.14219181428
-1.15655472617
-1.17149918953
-1.18706322416
-1.20325836358
-1.22006448974
-1.23742245961
-1.25523328514
-1.27335490953
-1.29159790403
-1.30973397974
-1.32752601728
-1.34474547766
-1.36118720321
-1.37668258471
-1.39111832285
-1.40444854373
-1.41674120719
-1.42817059491
-1.43891218132
-1.44914866517
-1.45913438078
-1.46922163304
-1.47988919823
-1.49167229889
-1.50507406438
-1.52035460597
-1.53783382637
-1.55751712103
-1.57780385012
-1.59650037052
-1.61080206918
-1.61683804369
-1.61066331995
-1.58964211112
-1.55808447514
-1.53091115632
-0.0800557529196
0.0822654855166
0.122251279286
0.0907018035139
0.0689473256584
0.0728762037501
0.0962179247998
0.131744547532
0.174424920541
0.220916657222
0.269092206966
0.317557264442
0.365438543926
0.412157602515
0.457391662659
0.500941840148
0.542769975501
0.582890391834
0.621427459
0.658545865415
0.694483240439
0.729471612285
0.763820664222
0.79781108229
0.831744099528
0.865890148381
0.900518023019
0.935832386743
0.972026544066
1.00922805729
1.04754677891
1.08703962632
1.12774932259
1.16968336473
1.21285089701
1.25724026793
1.30285891699
1.34970096579
1.39779131209
1.44714005859
1.49778269653
1.54973164013
1.60301567588
1.6576244401
1.71353616828
1.77066253345
1.82887170582
1.88795353941
1.94766177991
2.00766688673
2.06752535341
2.1266792
2.18449912784
2.24032961622
2.29358935986
2.34380049538
2.39051915252
2.4332734098
2.4715595269
2.50475520919
2.53222852104
2.55351779885
2.56776529939
2.57424848566
2.57213266768
2.56163165042
2.54325796094
2.5175519009
2.48488804734
2.44530097648
2.39841364668
2.34341083574
2.27918916155
2.20457470768
2.11856343724
2.02061746022
1.91090089191
1.79035782258
1.66055524088
1.52368529786
1.38220281725
1.23854649334
1.09497392644
0.953663076327
0.816113575059
0.684038838955
0.558448420012
0.443148134323
0.342667645316
0.254690164759
0.17513605416
0.0855951762069
-0.0164378994959
-0.108357511369
-0.182217181023
-0.182828552182
-0.200260145273
-0.241807743549
-0.319553521811
-0.4059289211
-0.446123942494
-0.457005631669
-0.472434824894
-0.501147898535
-0.536732878843
-0.580002912229
-0.632229871527
-0.688752542168
-0.741092269683
-0.786656135397
-0.824842275099
-0.857065411376
-0.884767591544
-0.908916221423
-0.930337301881
-0.949599500774
-0.967120357443
-0.983228306191
-0.998187302652
-1.01220508787
-1.02543888976
-1.03799285471
-1.049956604
-1.06140493659
-1.07243279013
-1.08313964742
-1.09361616323
-1.103916088
-1.11407071388
-1.12408918804
-1.13396404104
-1.14367196053
-1.15318953376
-1.16250915342
-1.17165682671
-1.18070508867
-1.18976306437
-1.1989440186
-1.208308085
-1.21783047105
-1.22743236524
-1.2370753148
-1.24677455731
-1.25656770897
-1.26648727423
-1.27654891285
-1.28675643848
-1.2971049377
-1.30758688607
-1.31819555721
-1.32893357893
-1.33981479792
-1.35086720109
-1.3621323103
-1.37367708947
-1.38558985355
-1.39797053388
-1.41090829482
-1.42446706317
-1.43867012373
-1.45352196625
-1.46899615022
-1.48496492974
-1.50120498041
-1.51747096847
-1.533563587
-1.5493750708
-1.56493261584
-1.58023476356
-1.59519164826
-1.60986158976
-1.6240430028
-1.63666611038
-1.64606782508
-1.65133146105
-1.64997192943
-1.64061076868
-1.62427235995
-1.60766666614
-1.60513791464
-0.153865827316
0.222236340713
0.259671395475
0.160307539254
0.100364103923
0.0861434997106
0.0997553853123
0.128920221883
0.166580006504
0.208717509403
0.253039914011
0.298176158979
0.343326004573
0.387960745623
0.431778023456
0.474568391571
0.516242801858
0.55675455689
0.596156737866
0.634502040996
0.671927922742
0.708581528651
0.744652479893
0.780326810061
0.815834525514
0.851358171343
0.887098940388
0.923213668043
0.95985554558
0.99712915406
1.03513148302
1.07391846537
1.11354273626
1.15402659691
1.19540232779
1.23768557261
1.28091215775
1.32511497829
1.37035211979
1.41667252303
1.46414681475
1.51282078377
1.56274109782
1.61390610928
1.66627590593
1.71971404454
1.77400454286
1.82883245083
1.88380788448
1.93843004503
1.99208975831
2.0440466782
2.09350304699
2.13965354622
2.1817895775
2.21933801631
2.25195530777
2.27950509887
2.30188459151
2.31909335352
2.33116542723
2.33821448745
2.34103601607
2.34178819268
2.33900300396
2.33158549117
2.31826221967
2.29778198832
2.26904495628
2.23115170752
2.18338381787
2.12519714426
2.0561757889
1.97602971748
1.88459474367
1.78189774259
1.66840627735
1.54502095801
1.41304072784
1.27431479369
1.13121144676
0.985669703606
0.840140136811
0.696207397414
0.557166294689
0.426885258917
0.30608749083
0.195162090005
0.0866888895497
-0.029807285804
-0.141127458681
-0.253924565498
-0.341106242647
-0.362906127861
-0.379868348787
-0.415041518693
-0.4989032351
-0.593572343066
-0.671862882628
-0.710625538246
-0.708930873247
-0.699553191487
-0.706648586349
-0.729697638805
-0.761300661533
-0.798314131206
-0.838550784652
-0.879336428431
-0.917642240201
-0.952709040918
-0.984038406113
-1.01195154202
-1.03694192379
-1.05941267204
-1.07977573872
-1.0983485421
-1.1153830061
-1.13110969047
-1.14574744015
-1.15948559813
-1.1724752572
-1.18481674202
-1.19657746821
-1.207821288
-1.21862615611
-1.22907617344
-1.23924697916
-1.24919007574
-1.25893174163
-1.26847318155
-1.27779394327
-1.28685846223
-1.29563289611
-1.30410641685
-1.3123134416
-1.32034519123
-1.32832979202
-1.33638498715
-1.34456333925
-1.35282908678
-1.36111353349
-1.36938491144
-1.37765858233
-1.38597189063
-1.39435947587
-1.40284604157
-1.41144718089
-1.42017406254
-1.42903405676
-1.43803557656
-1.44718876705
-1.45650968277
-1.4660182335
-1.47574102447
-1.48571348946
-1.49598118398
-1.50658992614
-1.51757494812
-1.52895122357
-1.5407107992
-1.55283865866
-1.5653096043
-1.57804440091
-1.59091238515
-1.60378397834
-1.61658281297
-1.62930081391
-1.64202489028
-1.65479848611
-1.66754164004
-1.6801922797
-1.69240637191
-1.70326539674
-1.71128876543
-1.71533526622
-1.71353319946
-1.70504811065
-1.69187847724
-1.68063066777
-1.68249614871
-0.182233135824
0.485318248387
0.426542652526
0.213970186629
0.123412960442
0.0997138206154
0.106848105447
0.128827152168
0.158340480679
0.191950564955
0.227929925753
0.265302320761
0.303450337434
0.341934809086
0.380453957418
0.418771173176
0.456735838494
0.49422726899
0.531208385912
0.567658216021
0.603606992098
0.639094627516
0.674233780664
0.709114960201
0.743858324034
0.778569604681
0.813372746863
0.848355245143
0.883621017846
0.919237458254
0.955281742984
0.991798259878
1.02884206756
1.06644876355
1.10466420232
1.14352858655
1.1831040596
1.22344804653
1.26464439162
1.30676939261
1.34990814824
1.39411845035
1.43944445
1.48587491553
1.53334545705
1.58168743927
1.63063375314
1.67979512088
1.728717984
1.77686033224
1.8235391233
1.86794948658
1.90926259179
1.94666437422
1.97930762436
2.0065360656
2.02827029133
2.04493980945
2.05679746935
2.06402449604
2.06639040578
2.06380382738
2.05859589488
2.05150406013
2.04254495486
2.03152835372
2.01770108725
1.99978015428
1.97606102023
1.94462555106
1.90357847969
1.85117803361
1.78622839447
1.7082277795
1.61724310134
1.51387474171
1.3993666385
1.27524584306
1.14306070553
1.00484797589
0.862285089449
0.718332642371
0.575812903548
0.436995630242
0.303631955796
0.17644802695
0.0482450952202
-0.0791653671441
-0.2031085709
-0.33358732258
-0.422372665443
-0.472095263609
-0.491010592332
-0.510060244627
-0.578578079488
-0.680242507964
-0.785796569849
-0.861128078338
-0.897589241749
-0.901870813946
-0.892250152447
-0.891025315314
-0.906230803346
-0.932646240296
-0.964076622785
-0.997178373207
-1.03021500748
-1.06223185785
-1.09243288424
-1.12073787372
-1.14692315728
-1.1709883894
-1.19303246494
-1.21317113843
-1.23159010331
-1.24844988622
-1.26392192687
-1.27819334176
-1.29147491029
-1.30396779834
-1.31581777435
-1.32711932502
-1.33791292038
-1.34824382942
-1.35816435462
-1.36773793553
-1.37701904662
-1.38604746124
-1.39483636444
-1.4033759028
-1.41163187121
-1.41955847592
-1.42711474991
-1.43429053847
-1.44113140618
-1.44774276302
-1.45426453532
-1.46081180096
-1.46742845881
-1.47407796998
-1.480704429
-1.48728476789
-1.49383491586
-1.50038885613
-1.50698001334
-1.51363515912
-1.52037583826
-1.52721975416
-1.5341829173
-1.54128022131
-1.54852798392
-1.55594496237
-1.56355357043
-1.57138054616
-1.57945944289
-1.5878303025
-1.59653217632
-1.60559355076
-1.61502469645
-1.62481487189
-1.63494096657
-1.64536401417
-1.65599903949
-1.66671919303
-1.67739858672
-1.68796214613
-1.69838985812
-1.70874337793
-1.71906339227
-1.72929118258
-1.73934467909
-1.74892391656
-1.75732514213
-1.76335151108
-1.76609973288
-1.76420620774
-1.75733849503
-1.74788713488
-1.7417376021
-1.74644665078
-0.1309116482
0.831667601893
0.570619427111
0.249591978966
0.160995043198
0.135153707462
0.134631726032
0.145466636989
0.162286851999
0.183144555358
0.207026166727
0.233262991949
0.26129343659
0.290681168933
0.32106140512
0.352148500533
0.383703600288
0.415558798271
0.447614011083
0.47975746099
0.511951276666
0.544188602154
0.576490432488
0.608869880365
0.641373755896
0.674019672913
0.706858643603
0.739920673747
0.773256572356
0.806892238804
0.840869777075
0.87521164139
0.909952353952
0.945112772046
0.980736305863
1.01685961264
1.05354346632
1.09085480563
1.1288813517
1.16770317692
1.20740350586
1.24802784744
1.28959132102
1.33204054184
1.37525695144
1.41900926396
1.46295368634
1.50660139764
1.54938238706
1.59068516906
1.62972743195
1.66561951419
1.697455584
1.72442352195
1.7449628528
1.75777877735
1.76352584269
1.76372743581
1.75929549218
1.75058056332
1.73787776232
1.72224554279
1.70962538236
1.69741160495
1.68600989323
1.67507667495
1.66382791611
1.65080195422
1.63386023792
1.61045630544
1.57778207269
1.53312534578
1.47448614215
1.40101667032
1.31291447083
1.21127625834
1.09776864757
0.975000454049
0.845096095628
0.710208759697
0.572811128977
0.435209556445
0.300196236548
0.165985873731
0.0305439586002
-0.101236065595
-0.236737886052
-0.368615731755
-0.466491843711
-0.531098792819
-0.55662454352
-0.577840164609
-0.620255377506
-0.700850275633
-0.81355478805
-0.921488921736
-1.00006047579
-1.04184140125
-1.05583903396
-1.05713999479
-1.05957522978
-1.0721553269
-1.09504906234
-1.12342033581
-1.15327579201
-1.18247256105
-1.21026443551
-1.23653858955
-1.26127373869
-1.28459641135
-1.30648114431
-1.32691179209
-1.34588692104
-1.36341842124
-1.3795632988
-1.39438290596
-1.40798295327
-1.42052819239
-1.43222209753
-1.44326544686
-1.45379775989
-1.46388229744
-1.47353943701
-1.48278910776
-1.49166293515
-1.50020119037
-1.50844173924
-1.51640872758
-1.52410446244
-1.53150719254
-1.53857350849
-1.54524999191
-1.55149311864
-1.55729704834
-1.56271736045
-1.56787070918
-1.57289795983
-1.57790881263
-1.58293716717
-1.58795382116
-1.59291804966
-1.59781689087
-1.60266736617
-1.60749944192
-1.61234381262
-1.61722648147
-1.62217210877
-1.62720245727
-1.63233967861
-1.63760330188
-1.64301489539
-1.64859575391
-1.65437168442
-1.66036986015
-1.66662392598
-1.67316978883