/*--------------------------------*- C++ -*----------------------------------*\
| =========                 |                                                 |
| \\      /  F ield         | OpenFOAM: The Open Source CFD Toolbox           |
|  \\    /   O peration     | Version:  v1806                                 |
|   \\  /    A nd           | Web:      www.OpenFOAM.com                      |
|    \\/     M anipulation  |                                                 |
\*---------------------------------------------------------------------------*/
FoamFile
{
    version     2.0;
    format      ascii;
    class       volVectorField;
    location    "8";
    object      Ua;
}
// * * * * * * * * * * * * * * * * * * * * * * * * * * * * * * * * * * * * * //

dimensions      [0 1 -1 0 0 0 0];


internalField   nonuniform List<vector> 
12225
(
(-0.615346628831 35.923940686 0)
(1.0271564915 8.2462939993 0)
(0.375608771413 7.28531725215 0)
(0.562159271269 7.49137129767 0)
(0.548787721693 7.61109201797 0)
(0.587835543359 7.8212181264 0)
(0.615874747455 8.03273699327 0)
(0.64041155526 8.23331624018 0)
(0.662112015634 8.41811819684 0)
(0.684398207046 8.61731452982 0)
(0.711252592063 8.84758151867 0)
(0.744157603004 9.07723113319 0)
(0.805773581443 9.30934588997 0)
(0.938109448353 9.48732834701 0)
(1.20634660938 9.46736536308 0)
(1.6920750774 8.94394841031 0)
(2.39287108984 7.34442610543 0)
(2.73122580399 3.87287286923 0)
(2.69334129792 -33.9095400813 0)
(0.630342878517 -5.76986723593 0)
(0.762306953529 -4.75058310039 0)
(0.696065686951 -5.06464307231 0)
(0.698476616776 -5.12611427668 0)
(0.726436454171 -5.26491892968 0)
(0.767030893747 -5.39531386604 0)
(0.825054478503 -5.50597103588 0)
(0.89070038838 -5.58477078143 0)
(0.962207149744 -5.63140167918 0)
(1.04233826432 -5.63494295123 0)
(1.13417917351 -5.56579115321 0)
(1.25154703334 -5.39234837995 0)
(1.4151097917 -5.09605708455 0)
(1.65313904961 -4.66151005573 0)
(1.9868024159 -4.0907466155 0)
(2.34223673796 -3.43902507601 0)
(2.28201538597 -2.87595645312 0)
(-0.933349129895 23.3401646892 0)
(0.597154425099 3.15888279034 0)
(0.664346044493 2.73976884396 0)
(0.627995266644 2.74356646518 0)
(0.648052801818 2.74978563029 0)
(0.658096523565 2.74370591796 0)
(0.674322176796 2.72244606921 0)
(0.687045579735 2.65864327298 0)
(0.696343765232 2.54194500127 0)
(0.706195714504 2.37072248376 0)
(0.724736194785 2.1510964893 0)
(0.761662885445 1.88909632621 0)
(0.832109515847 1.59018110757 0)
(0.956001957232 1.25799100151 0)
(1.15732375025 0.886243503019 0)
(1.44084177509 0.450986584689 0)
(1.71340464896 -0.121489209155 0)
(1.6781472646 -0.89376822929 0)
(1.07323886298 -10.021001697 0)
(0.947996985236 -1.364910017 0)
(0.788553569878 -1.39613838795 0)
(0.814444239882 -1.22340803329 0)
(0.800553636457 -1.13827291657 0)
(0.806239951932 -1.03908431786 0)
(0.811155854701 -0.951397579849 0)
(0.818404621344 -0.857888793897 0)
(0.825070337823 -0.752792005891 0)
(0.834130158604 -0.629359532942 0)
(0.849847428593 -0.487238629558 0)
(0.879121544163 -0.33489895294 0)
(0.933278780895 -0.185387468484 0)
(1.0263158151 -0.0595442337132 0)
(1.17133937514 0.00763791575954 0)
(1.35801064719 -0.0440966448946 0)
(1.49859865622 -0.297935675452 0)
(1.41898187396 -0.760060961106 0)
(0.660697606052 2.9664159221 0)
(0.81654132265 0.603810169378 0)
(0.817223068089 0.608966580682 0)
(0.804342044647 0.449948715774 0)
(0.801922685426 0.347518247063 0)
(0.804925316009 0.246799951179 0)
(0.81089293523 0.158016587891 0)
(0.819544645831 0.0813091862123 0)
(0.829394584466 0.0191152167108 0)
(0.843138550267 -0.0253536828491 0)
(0.864023047189 -0.0510758616192 0)
(0.897760459313 -0.060693507699 0)
(0.953056520198 -0.0595304318829 0)
(1.03920846049 -0.060473562463 0)
(1.15946339796 -0.0885394109172 0)
(1.29188139566 -0.188479358886 0)
(1.36289681991 -0.408889098692 0)
(1.27953281176 -0.717066217236 0)
(0.87813608526 -0.215647012956 0)
(0.887956351494 -0.00471890725704 0)
(0.874927411332 -0.027538061631 0)
(0.866823775022 -0.0331312918999 0)
(0.85990919684 -0.0422224188186 0)
(0.859214932703 -0.0476617822456 0)
(0.859797234759 -0.0554117402025 0)
(0.86335460797 -0.0631092045095 0)
(0.868653045375 -0.0699224097213 0)
(0.878636227239 -0.073681898935 0)
(0.896202256856 -0.0738544915817 0)
(0.92630091717 -0.0722647338847 0)
(0.975222495117 -0.0728306654404 0)
(1.04795794537 -0.0863115162201 0)
(1.14088657329 -0.132818991962 0)
(1.22880454557 -0.241579533301 0)
(1.25827706457 -0.429601625487 0)
(1.18500292984 -0.648710991478 0)
(0.948904688278 0.31398742093 0)
(0.90668621716 0.0557236448741 0)
(0.918638557758 0.040930319078 0)
(0.907586138679 0.00808856699912 0)
(0.901906822276 -0.0151591872813 0)
(0.900115791021 -0.0342555617824 0)
(0.898907787364 -0.0514694370944 0)
(0.900557690375 -0.0657731577853 0)
(0.904019108071 -0.0769301050028 0)
(0.912211226333 -0.0841326809766 0)
(0.927553441058 -0.0881198163462 0)
(0.954027199381 -0.0918009392138 0)
(0.995655271554 -0.0999917952302 0)
(1.05386696124 -0.122964047409 0)
(1.12117957724 -0.176953677852 0)
(1.17462369432 -0.279490927445 0)
(1.17954774762 -0.430654460795 0)
(1.11762585543 -0.588391989591 0)
(1.01183961892 0.296491431968 0)
(0.929269792937 0.0561028904272 0)
(0.954492292582 0.0356501857835 0)
(0.942736891559 0.00815316078711 0)
(0.937881990273 -0.0139452381577 0)
(0.935570561359 -0.0327235589175 0)
(0.93323560711 -0.0501935036795 0)
(0.933696345992 -0.0654141540844 0)
(0.93593655774 -0.0782899669496 0)
(0.942748615732 -0.0884717861155 0)
(0.955986521431 -0.0970205943455 0)
(0.978552483223 -0.106944217215 0)
(1.01245740169 -0.122926595101 0)
(1.0565529199 -0.153619174803 0)
(1.10194659191 -0.210577385935 0)
(1.1303687279 -0.302291419051 0)
(1.12128670397 -0.421524523296 0)
(1.06887841772 -0.537853017119 0)
(1.05504681001 0.302045418606 0)
(0.948354904421 0.054953999731 0)
(0.983469274001 0.0326651269853 0)
(0.971735031396 0.00766761930234 0)
(0.967998502637 -0.0140124188924 0)
(0.96575915467 -0.0328052627324 0)
(0.962970810667 -0.0505447831367 0)
(0.962835027158 -0.0665012340105 0)
(0.964277770364 -0.0808404665498 0)
(0.96990119137 -0.0936109087925 0)
(0.980953157553 -0.106106191029 0)
(0.999302771048 -0.121259042626 0)
(1.02538229204 -0.14324082438 0)
(1.0565111888 -0.178730621713 0)
(1.08414612694 -0.234964491238 0)
(1.09510225491 -0.31448344373 0)
(1.07823732305 -0.40835464615 0)
(1.03305496885 -0.496495228393 0)
(1.08562768927 0.292338633926 0)
(0.964874574446 0.052277774867 0)
(1.00670612408 0.0283929533036 0)
(0.995714032428 0.00653375565721 0)
(0.993001271489 -0.0145124832201 0)
(0.991211697762 -0.0330323224644 0)
(0.98833184809 -0.0508978966645 0)
(0.9879124585 -0.0674796636282 0)
(0.988741247905 -0.0830929206904 0)
(0.993198818639 -0.0980658814814 0)
(1.00192304414 -0.113781212729 0)
(1.01589598531 -0.132964402642 0)
(1.03445605904 -0.159013768901 0)
(1.05431513045 -0.196616639942 0)
(1.06824008651 -0.249598829739 0)
(1.06743118691 -0.317289520555 0)
(1.04635552248 -0.391677218009 0)
(1.006542884 -0.460082490977 0)
(1.10874348553 0.283773066577 0)
(0.979734867342 0.0466990465534 0)
(1.02402339879 0.0173733374839 0)
(1.0144475402 -0.000109153865986 0)
(1.01258208502 -0.0209787914997 0)
(1.01147958461 -0.0389920852584 0)
(1.008733294 -0.0569006004093 0)
(1.00823133649 -0.0738091006672 0)
(1.00855039734 -0.0902922873842 0)
(1.01181589792 -0.106840136832 0)
(1.01810200678 -0.124815921108 0)
(1.02772881631 -0.146514916108 0)
(1.03943685783 -0.174551308606 0)
(1.04999272599 -0.211843076477 0)
(1.05377673551 -0.259974855554 0)
(1.04528012353 -0.316864916612 0)
(1.02219318471 -0.376251910063 0)
(0.986647656012 -0.430174324167 0)
(1.1081993915 0.258896859568 0)
(0.99180145321 0.0410003096253 0)
(1.02977153726 0.00743197649448 0)
(1.02345608259 -0.00598915727944 0)
(1.02161672231 -0.0261798526751 0)
(1.02154907981 -0.04329161025 0)
(1.01910585136 -0.0609047880306 0)
(1.01876303704 -0.0779122622127 0)
(1.01871096873 -0.0950162602644 0)
(1.02093050773 -0.112697194776 0)
(1.02511666672 -0.132165368014 0)
(1.03115541167 -0.1553236921 0)
(1.0375474534 -0.184033839028 0)
(1.04145408203 -0.219986028119 0)
(1.03871331409 -0.263315746261 0)
(1.02596625731 -0.311734655187 0)
(1.00244250007 -0.360465893767 0)
(0.970301875149 -0.40447451769 0)
(1.09728971336 0.238996639877 0)
(0.99987549592 0.034710303616 0)
(1.02913641086 0.00179876496127 0)
(1.02633074073 -0.00999055518457 0)
(1.02433149801 -0.0294181891883 0)
(1.02526103203 -0.0460130435822 0)
(1.02310160682 -0.063349941601 0)
(1.02294896657 -0.0803651320483 0)
(1.02264380449 -0.0977254413586 0)
(1.02400895152 -0.115910827548 0)
(1.02633858801 -0.135995371212 0)
(1.02927572419 -0.159496130535 0)
(1.03131204204 -0.187605688305 0)
(1.03021706624 -0.221149322901 0)
(1.02299583162 -0.259599490664 0)
(1.00773865487 -0.300846778781 0)
(0.984590364376 -0.341484565935 0)
(0.955671621482 -0.378012728285 0)
(1.08188508958 0.214622431925 0)
(1.00526869089 0.0310628273155 0)
(1.02470107006 -0.00125789515163 0)
(1.02571725719 -0.0122579474549 0)
(1.02297702061 -0.0315913708547 0)
(1.02493555908 -0.0482049223814 0)
(1.02300502608 -0.0658371654274 0)
(1.02302996486 -0.0831671370352 0)
(1.02235824048 -0.100959147815 0)
(1.02266045091 -0.119577293757 0)
(1.02299342219 -0.139997623496 0)
(1.0229008451 -0.163110867731 0)
(1.0210235062 -0.189757229403 0)
(1.0157059668 -0.219935983919 0)
(1.00507481079 -0.253111484268 0)
(0.988246374644 -0.287427274292 0)
(0.966010844515 -0.320726282123 0)
(0.940216824378 -0.350661386789 0)
(1.06318589998 0.191410278154 0)
(1.01144230329 0.0318191201217 0)
(1.01933783808 0.00184029964333 0)
(1.02474238108 -0.00896633897998 0)
(1.02075238541 -0.0275112782818 0)
(1.02348822361 -0.0439056773293 0)
(1.0214073672 -0.0614959251446 0)
(1.02132438897 -0.0790677245516 0)
(1.01998134575 -0.0971955599435 0)
(1.01896503063 -0.116197392396 0)
(1.01721599734 -0.136581079829 0)
(1.01421668704 -0.15905854885 0)
(1.00892534432 -0.183767112858 0)
(1.00031463172 -0.210581191388 0)
(0.987272716114 -0.238688825116 0)
(0.969676249699 -0.267000711277 0)
(0.948544592099 -0.293914261914 0)
(0.925670341374 -0.318363889117 0)
(1.04179146175 0.164880345114 0)
(1.01533602425 0.0268583814605 0)
(1.01230250007 0.00111078601051 0)
(1.02193219027 -0.0102915634782 0)
(1.016475806 -0.0277195495488 0)
(1.01979310986 -0.0436230549349 0)
(1.01733230609 -0.0605895783787 0)
(1.01690116865 -0.0777203389436 0)
(1.01464911138 -0.095436782692 0)
(1.01227233903 -0.113932467779 0)
(1.008522528 -0.133419613835 0)
(1.00313866837 -0.154297923885 0)
(0.995321838532 -0.176353875567 0)
(0.984540495714 -0.199334916458 0)
(0.970235626587 -0.222558666293 0)
(0.952720252252 -0.245290538675 0)
(0.933036119278 -0.266647228523 0)
(0.912788603647 -0.286042299206 0)
(1.02264965726 0.147523135574 0)
(1.01606431338 0.0203380015904 0)
(1.00384613804 -0.00142313313306 0)
(1.01676032729 -0.0130077731948 0)
(1.00995016448 -0.0289227896285 0)
(1.01354118558 -0.0437693653321 0)
(1.01045645479 -0.0595331504332 0)
(1.00936906131 -0.0754598747099 0)
(1.00600766432 -0.0919573720518 0)
(1.0021612306 -0.10895389277 0)
(0.996703900128 -0.126635808903 0)
(0.989481885925 -0.144967698388 0)
(0.980016697512 -0.163869168453 0)
(0.968083078866 -0.182808453092 0)
(0.953523212729 -0.201507104844 0)
(0.936755399699 -0.219321418206 0)
(0.91881795598 -0.236015746389 0)
(0.900975157494 -0.251142381613 0)
(0.999443392384 0.130316963695 0)
(1.01521857989 0.0129163960005 0)
(0.993408302368 -0.00459107820085 0)
(1.00924993925 -0.0161894677257 0)
(1.00098427435 -0.0300993935564 0)
(1.00451003716 -0.0434798941731 0)
(1.00057570115 -0.0574002523661 0)
(0.998619578832 -0.0714390488981 0)
(0.994069859773 -0.0858100418278 0)
(0.988907754381 -0.100430527794 0)
(0.982095643749 -0.115317405611 0)
(0.9736514906 -0.130471133144 0)
(0.963322792982 -0.145689576974 0)
(0.951098336494 -0.160628755275 0)
(0.936995447227 -0.175060074898 0)
(0.921448635231 -0.188705497398 0)
(0.905378917306 -0.201440593016 0)
(0.88984547855 -0.21316954621 0)
(0.978841789694 0.128966765022 0)
(1.01178911436 0.00124888642994 0)
(0.984678109012 -0.00686920120318 0)
(1.00166733641 -0.019159185377 0)
(0.992636732692 -0.0298981777448 0)
(0.995738622058 -0.0412688407514 0)
(0.991035772749 -0.0526624734501 0)
(0.988241387623 -0.0641766185549 0)
(0.982690436897 -0.0758438233797 0)
(0.976517340767 -0.0875096509521 0)
(0.968779343173 -0.0992280715879 0)
(0.959638456123 -0.11090135845 0)
(0.948994669833 -0.122441210214 0)
(0.93694210342 -0.13355058697 0)
(0.92356916192 -0.144185670914 0)
(0.909263914419 -0.154163475515 0)
(0.894810753293 -0.163529308721 0)
(0.881127542321 -0.172234298767 0)
(0.992497742439 0.132450605448 0)
(1.00521004517 -0.00690200649585 0)
(0.987081861188 -0.007756340001 0)
(0.998735222736 -0.0196709901327 0)
(0.990586883032 -0.0274738711793 0)
(0.992001125744 -0.0368576850501 0)
(0.986465674354 -0.0458586000634 0)
(0.982520770332 -0.0551619443684 0)
(0.976031787113 -0.0643811162395 0)
(0.969003493172 -0.0736634866979 0)
(0.960624432862 -0.0827414659982 0)
(0.951109752559 -0.0917932094667 0)
(0.940391707268 -0.100503748065 0)
(0.928595219233 -0.108916718425 0)
(0.915819446687 -0.116787320133 0)
(0.902402771761 -0.124275342254 0)
(0.889049512573 -0.131186157358 0)
(0.876631194851 -0.137780417212 0)
(1.00440618221 0.12902648924 0)
(1.00301183036 -0.00976419350888 0)
(0.992655533304 -0.00904310281436 0)
(1.00045269749 -0.01908549862 0)
(0.992931112301 -0.0246099370721 0)
(0.993128057177 -0.0318380265716 0)
(0.987015089356 -0.0385885047304 0)
(0.982387894838 -0.0457744960511 0)
(0.975302436038 -0.052891439655 0)
(0.967820799574 -0.0600896911536 0)
(0.959124236728 -0.0671360962673 0)
(0.949476575973 -0.0741687892741 0)
(0.938787230945 -0.0809083754028 0)
(0.927244262242 -0.0874301004051 0)
(0.914851261588 -0.0935327226205 0)
(0.902011385122 -0.0993548053459 0)
(0.88927147971 -0.104752980575 0)
(0.877552912215 -0.10992608672 0)
(1.01468838234 0.119656815205 0)
(1.00356640021 -0.0177094063423 0)
(0.998969138482 -0.014134827854 0)
(1.00383916025 -0.0224800267792 0)
(0.99731135102 -0.0260110806936 0)
(0.996511238831 -0.0312528154232 0)
(0.990001363772 -0.0362301146458 0)
(0.984689791197 -0.0415109869253 0)
(0.977220610049 -0.0469592226912 0)
(0.969391942645 -0.052443337148 0)
(0.960488490765 -0.0579796037635 0)
(0.950808066684 -0.0634203062581 0)
(0.940217254074 -0.0688020949986 0)
(0.928875012117 -0.0738812383722 0)
(0.916836739313 -0.0787810486768 0)
(0.904425868343 -0.0832533944217 0)
(0.89219075165 -0.0875461790329 0)
(0.880939020399 -0.0914552486953 0)
(1.03443322752 0.1488237065 0)
(1.0042565007 0.00170919252169 0)
(1.00752931217 0.010231756504 0)
(1.00896788178 0.00172559373289 0)
(1.00330096594 0.000127981345873 0)
(1.00155415736 -0.00397437460328 0)
(0.99474026434 -0.00759772195325 0)
(0.989007007099 -0.0118299483902 0)
(0.981125257082 -0.0162173294383 0)
(0.972992491677 -0.0207951004639 0)
(0.963899452317 -0.0254861849461 0)
(0.954067208898 -0.0302167327906 0)
(0.943475400652 -0.0349718172977 0)
(0.932235535678 -0.0395866462352 0)
(0.920459221983 -0.0440117754002 0)
(0.908348533253 -0.0481704659652 0)
(0.896428679164 -0.0520526883387 0)
(0.885261683855 -0.0556625203749 0)
(1.0406774603 -0.187813612877 0)
(1.000343936 -0.155500301321 0)
(1.01825023725 -0.147402711518 0)
(1.01571720249 -0.150916558871 0)
(1.01185547238 -0.147852653423 0)
(1.0091479465 -0.148052485057 0)
(1.0021595142 -0.147778199778 0)
(0.995902112628 -0.148160254448 0)
(0.987836226857 -0.148632727041 0)
(0.979495115901 -0.149258550751 0)
(0.970375924055 -0.149890758756 0)
(0.960657134838 -0.150436507251 0)
(0.950199407793 -0.150690936567 0)
(0.939266995923 -0.150836526934 0)
(0.927934255621 -0.15057146413 0)
(0.916484501646 -0.149949301729 0)
(0.9053957454 -0.148774079515 0)
(0.896072477141 -0.147456676505 0)
(1.10567579747 1.54576159537 0)
(1.02054712305 0.549226735253 0)
(1.02060951832 0.583681695039 0)
(1.01851023196 0.5533415951 0)
(1.01460635469 0.545152098287 0)
(1.01068772788 0.530167392297 0)
(1.00339817553 0.517132419278 0)
(0.996765668883 0.503550717115 0)
(0.98833317838 0.489971084877 0)
(0.979654902018 0.475927729289 0)
(0.96987957306 0.461289662333 0)
(0.959545769698 0.445417849271 0)
(0.948592730568 0.428413717887 0)
(0.937140495745 0.410870157323 0)
(0.925233596327 0.392971901446 0)
(0.912995158008 0.374901750339 0)
(0.900459501496 0.35675956153 0)
(0.886563491469 0.339087597513 0)
(0.81465362191 -5.66253758773 0)
(0.942038484742 -1.90145162451 0)
(1.06192395711 -1.92094680879 0)
(1.03848911422 -1.83916299156 0)
(1.04279497211 -1.78273030591 0)
(1.03782864987 -1.72950493065 0)
(1.03226951188 -1.67946345513 0)
(1.02654375667 -1.63230596407 0)
(1.0192492381 -1.58670124607 0)
(1.01153477084 -1.54251403543 0)
(1.00336650861 -1.49933112915 0)
(0.994332302797 -1.45578832605 0)
(0.984517118305 -1.41171128456 0)
(0.974664943561 -1.3674278313 0)
(0.965029023233 -1.32258316907 0)
(0.955782311037 -1.27648847629 0)
(0.947772951119 -1.22890941525 0)
(0.943703026594 -1.18062243656 0)
(1.92475970616 17.1570294923 0)
(1.18531151466 4.2073449978 0)
(0.999766002083 4.22192756786 0)
(1.02859023534 4.0088977109 0)
(1.01226964952 3.88606660377 0)
(1.00452681941 3.73602168853 0)
(0.99345280454 3.59862996448 0)
(0.983327836336 3.46234312377 0)
(0.971753899034 3.33025590895 0)
(0.959731336004 3.20195436249 0)
(0.946449599259 3.07787047264 0)
(0.933746376922 2.95827728986 0)
(0.921362354071 2.84511297155 0)
(0.909053877688 2.73837630463 0)
(0.897165722456 2.63832114391 0)
(0.886054281145 2.54460981158 0)
(0.874957089394 2.45603625445 0)
(0.867024641387 2.37034380633 0)
(-1.37526212652 -35.0900520368 0)
(0.819521520456 -7.10882096588 0)
(1.1307982694 -6.40474464326 0)
(1.0599602359 -6.18876014544 0)
(1.08513683361 -5.92874367818 0)
(1.0739095391 -5.67236712819 0)
(1.07395882779 -5.42286243031 0)
(1.07080868348 -5.17458638004 0)
(1.06751163461 -4.93060084321 0)
(1.06375538081 -4.69388699187 0)
(1.05880236369 -4.46717523465 0)
(1.0526912894 -4.25524073043 0)
(1.04596483538 -4.06085143236 0)
(1.03820554631 -3.88531092302 0)
(1.02876228092 -3.73280840671 0)
(1.01615607877 -3.60589504139 0)
(0.998689403153 -3.50534099891 0)
(0.966943738293 -3.43199033674 0)
(4.20955245148 48.9183130458 0)
(0.800740870934 9.43173199546 0)
(1.1991612395 8.49212982479 0)
(1.0769887115 8.23064692872 0)
(1.08580293628 7.82734306094 0)
(1.07937693394 7.45922228756 0)
(1.07332488185 7.09713017905 0)
(1.07012380377 6.74275287005 0)
(1.06516230061 6.40021034872 0)
(1.05975374651 6.07364797612 0)
(1.05418081851 5.76674222036 0)
(1.04792834864 5.48265031769 0)
(1.04019295697 5.22104392926 0)
(1.03046461223 4.98309517329 0)
(1.01939355845 4.77123509254 0)
(1.00848993741 4.58658518317 0)
(0.997324505651 4.43089868268 0)
(0.993262536626 4.3093959778 0)
(0.302613326554 -50.1983383272 0)
(1.20676546303 -11.7479044194 0)
(0.835836241304 -10.9971515278 0)
(0.894945101714 -10.4508204622 0)
(0.874490280002 -9.97935087344 0)
(0.864851264795 -9.52269649089 0)
(0.855168653633 -9.07987204133 0)
(0.84332394492 -8.64882996458 0)
(0.831962730387 -8.22826369068 0)
(0.82098735092 -7.82257623024 0)
(0.809974254483 -7.43533014185 0)
(0.799196770267 -7.0714683482 0)
(0.788727805367 -6.7336255146 0)
(0.779709455137 -6.4235873329 0)
(0.772289683278 -6.14246825944 0)
(0.767633855979 -5.88725855436 0)
(0.770256597949 -5.64433254345 0)
(0.780970165752 -5.38149359961 0)
(-0.0860551150577 0.110690296052 -1.53746081186e-19)
(-0.141371374526 0.105701988986 0)
(-0.0188594458438 0.0703543759259 0)
(-0.028562691731 0.0275981531582 0)
(-0.0268366034046 0.0218921835917 0)
(-0.0225697563535 0.0353907825107 4.99666597821e-20)
(-0.0154493612631 0.0562340257013 0)
(-0.00964111683135 0.0769698867946 0)
(-0.00708508443796 0.0935097690527 -2.50588791138e-20)
(-0.00795409793411 0.104298231481 0)
(-0.0116021555388 0.108996309628 1.82265302181e-20)
(-0.0170217605559 0.108051245369 0)
(-0.0232495010712 0.102080705167 1.42146651558e-20)
(-0.0294629277844 0.0918607894723 1.28186992072e-20)
(-0.0350425669991 0.0780268638549 0)
(-0.039572283773 0.0612124963832 -1.07834355242e-20)
(-0.042785111734 0.0418763496153 -1.00333090315e-20)
(-0.0445611498925 0.0204633281206 -9.41273886602e-21)
(-0.044844094342 -0.00272983342558 0)
(-0.0436632256246 -0.0274068080958 0)
(-0.0410600676493 -0.0533796437557 0)
(-0.0371272001756 -0.0804444913807 0)
(-0.0319313721874 -0.108486116456 0)
(-0.0255729610391 -0.137365555134 0)
(-0.0181365824033 -0.16700668093 6.9622198664e-21)
(-0.0097324824932 -0.197305897022 6.74697926252e-21)
(-0.00046500624661 -0.228206959839 0)
(0.0095449716011 -0.259616051076 -6.35681354077e-21)
(0.0201874836145 -0.291482047734 -6.17700448453e-21)
(0.031341481501 -0.323720232138 -6.00641456153e-21)
(0.0428872744499 -0.356278656424 0)
(0.0547077178635 -0.389072419616 0)
(0.0667014989437 -0.422058954678 5.53799248212e-21)
(0.0787682842817 -0.455164788086 0)
(0.0908232784111 -0.488353345779 0)
(0.102786220769 -0.52156558916 5.13467129382e-21)
(0.114600413563 -0.554780632595 0)
(0.126216766666 -0.587956685571 0)
(0.137609556709 -0.621095285421 0)
(0.14875045238 -0.654180682187 0)
(0.159631445722 -0.687234472779 0)
(0.170237881712 -0.720261310459 -9.02380966582e-21)
(0.180574705957 -0.753297959261 0)
(0.190637824696 -0.786366368604 0)
(0.200442012332 -0.819514897921 -8.54915725117e-21)
(0.20999332202 -0.85278245742 -8.4071340429e-21)
(0.219314905067 -0.886230152325 0)
(0.228420605312 -0.919916371803 0)
(0.237338998964 -0.953918305618 -8.01432617618e-21)
(0.246093964124 -0.988323830927 0)
(0.254718884044 -1.02324808824 7.77053657807e-21)
(0.263245063119 -1.05883708034 0)
(0.271694553051 -1.09525521277 -7.5325095728e-21)
(0.280075682693 -1.13265798598 0)
(0.288390727368 -1.17119220877 -7.29489131633e-21)
(0.296650041149 -1.21099646147 -7.17610510248e-21)
(0.304863225269 -1.25219924689 0)
(0.313029602957 -1.29490341396 0)
(0.321133213073 -1.33919740238 0)
(0.329178595409 -1.38511400292 -6.71264723999e-21)
(0.337111670421 -1.43252230602 0)
(0.344694295217 -1.48086044687 0)
(0.351726942967 -1.52852385565 0)
(0.358373386902 -1.57319846265 0)
(0.365057856423 -1.6119430344 0)
(0.372005764859 -1.64544419588 0)
(0.379367932678 -1.67439029479 0)
(0.387245789727 -1.69941791649 6.07413187158e-21)
(0.395713470328 -1.72108986922 0)
(0.404812296646 -1.73988599188 5.99680545396e-21)
(0.4145729762 -1.75620508367 5.96841575156e-21)
(0.425005122903 -1.77038380635 0)
(0.436110597854 -1.78270360679 -5.93034302957e-21)
(0.447885344702 -1.79342028349 0)
(0.460324756695 -1.80275874653 5.91845620616e-21)
(0.473402692822 -1.8109331573 0)
(0.487097896292 -1.81812397402 -5.93695167313e-21)
(0.501377994298 -1.824516541 5.95879375898e-21)
(0.516219720124 -1.83025681749 0)
(0.531576816185 -1.83548031187 0)
(0.547394994969 -1.84022349306 0)
(0.563600878272 -1.84449732391 0)
(0.580127885902 -1.84820030942 6.21445997497e-21)
(0.596877590761 -1.85117390681 -6.29730966784e-21)
(0.613719469153 -1.85305286919 1.27892941008e-20)
(0.630521722695 -1.85344539033 1.30114422321e-20)
(0.647004360244 -1.85180228721 1.32691092239e-20)
(0.66302164192 -1.84742929562 0)
(0.678248120181 -1.83955447075 0)
(0.692428131777 -1.82765314615 0)
(0.705334109763 -1.81164669799 1.4809068563e-20)
(0.716539842741 -1.79071321614 0)
(0.725629407213 -1.76301222051 0)
(0.731599670094 -1.72677598763 1.73890061688e-20)
(0.732230282233 -1.68125230712 0)
(0.725554111961 -1.6233115164 -2.13257063771e-20)
(0.710674132766 -1.54640082086 0)
(0.689318679707 -1.44877857228 2.88796332277e-20)
(0.667981771719 -1.33584575162 0)
(0.654774814237 -1.19833330247 0)
(0.647665336174 -1.02660557605 0)
(0.635103182298 -0.902579981796 6.34666164312e-20)
(0.619808128638 -0.767697829262 0)
(0.611935742888 -0.495895274021 1.0518693731e-19)
(0.501113279974 -0.166704444845 1.60479798432e-19)
(0.6325664081 0.770529387789 0)
(0.604889104694 1.27327915721 0)
(0.587454341079 1.5060944866 0)
(0.548460945384 1.60887193693 8.68725626623e-20)
(0.51516648945 1.64750104952 0)
(0.495145722107 1.66472565758 0)
(0.478734759288 1.67248721781 6.49847126886e-20)
(0.467436630667 1.6769682464 6.17069121611e-20)
(0.458878862856 1.6798055946 0)
(0.452004271473 1.68130750135 -5.75753683254e-20)
(0.446236445136 1.6814987409 -5.62995857967e-20)
(0.441231551218 1.68024245325 5.53937932877e-20)
(0.436798193549 1.67747579791 0)
(0.432798745229 1.67304337812 0)
(0.429106544119 1.6667012377 0)
(0.425602077709 1.65822096552 -5.4342546685e-20)
(0.422185985893 1.64752508371 0)
(0.418805878649 1.63450339893 -5.48545950444e-20)
(0.415432197972 1.61902524616 0)
(0.412106491006 1.6008727073 0)
(0.408827382092 1.57968987703 0)
(0.405556589364 1.55776226765 5.70363811801e-20)
(0.402292988844 1.53600327921 5.77519741263e-20)
(0.399041976198 1.51443240263 0)
(0.395782727862 1.49322685338 0)
(0.392480306651 1.4726720873 0)
(0.389084094387 1.45304845001 0)
(0.385534577982 1.43453381743 0)
(0.381761224296 1.41733368987 0)
(0.377690305585 1.40139606525 1.27692202251e-19)
(0.373256433358 1.38644402475 0)
(0.368407308286 1.3722238012 0)
(0.363118127284 1.35823215416 0)
(0.357338974329 1.34400787196 -1.3220804192e-19)
(0.350865420479 1.33158799162 -1.32525728751e-19)
(0.343525920877 1.32078833555 1.32543003901e-19)
(0.335194329653 1.31127231613 1.32267504407e-19)
(0.325778835987 1.30244375247 0)
(0.315244004166 1.29354848513 0)
(0.303592020744 1.28359538215 0)
(0.290849522263 1.27143927524 1.28655017348e-19)
(0.277087951644 1.25574834873 0)
(0.262425602488 1.23510483616 0)
(0.247036990672 1.20800462702 -1.23954315651e-19)
(0.231142414568 1.17297448336 0)
(0.215003786117 1.1286006464 -1.2013576407e-19)
(0.198898113882 1.07367360403 0)
(0.183121765287 1.00728722867 -1.15853036424e-19)
(0.167963262549 0.928959061094 0)
(0.153679266947 0.838717582883 0)
(0.14045636644 0.737231045247 0)
(0.128413331803 0.625883991013 0)
(0.117586531739 0.506830617852 0)
(0.107945615579 0.38301818396 0)
(0.0993947410574 0.258151945399 0)
(0.0918002687 0.136678490729 0)
(0.0849670190826 0.0235372114603 -9.17158747763e-20)
(0.0787455681113 -0.0761843606209 0)
(0.0731295061762 -0.157594085266 0)
(0.0682505745962 -0.216225567653 -8.28238770195e-20)
(0.0643379727284 -0.248446550197 0)
(0.0616538983486 -0.251794007748 0)
(0.060609160633 -0.225200270009 -7.4925521054e-20)
(0.0618215792304 -0.169552520775 0)
(0.0664150771111 -0.088607585819 0)
(0.0754461826412 0.0117138925701 -6.979915253e-20)
(0.0893789661741 0.122652897567 6.90016455569e-20)
(0.108102382637 0.232636720415 -6.85981659131e-20)
(0.130357188347 0.325609166421 0)
(0.154443723246 0.388040256801 0)
(0.175886608478 0.411080320292 -1.3200653624e-19)
(0.190075510439 0.390133638105 0)
(0.190585927359 0.332644597786 1.15992639238e-19)
(0.171505545826 0.262739627757 1.02835514539e-19)
(0.133186530037 0.232095413386 0)
(0.203310605724 0.133484991868 3.50626541792e-19)
(0.373791164764 0.0640819809239 0)
(0.330449910608 0.0534026786262 -9.64924832034e-20)
(0.233786178002 0.0448758402711 7.42122824439e-20)
(0.15667339471 0.0354587747039 6.14481973822e-20)
(0.110283656167 0.0300231025916 -2.41497790108e-20)
(0.0856416302399 0.0264622101185 -4.39431618436e-20)
(0.0743980809478 0.0223644840227 0)
(0.0711194402275 0.0166242589607 1.60177587657e-20)
(0.0726868235576 0.0094614935633 -2.87614446009e-20)
(0.0773078641821 0.0016149906203 -3.8377660392e-20)
(0.0839303546054 -0.00589014302788 2.2945012738e-20)
(0.091887610643 -0.0122183168979 -3.14940216098e-20)
(0.100725977629 -0.0166265730946 -9.87758025408e-21)
(0.110127311278 -0.0186875082324 0)
(0.119854539717 -0.018080386211 8.65517625399e-21)
(0.129745832528 -0.0147369304131 8.18860988825e-21)
(0.139676670472 -0.00862806477561 7.79656412474e-21)
(0.149579624388 0.000105097364761 -1.3778847393e-20)
(0.159397352558 0.0113353336004 0)
(0.169112361854 0.0248275082132 -1.26025891873e-20)
(0.178706102952 0.0403899452188 0)
(0.188184697371 0.0577594896462 1.17009534355e-20)
(0.197548308907 0.076727858966 0)
(0.206811915838 0.0970376408983 -1.71580743829e-20)
(0.215968933823 0.118489209723 4.61756192919e-21)
(0.225017377981 0.140849857903 1.03513057723e-20)
(0.233949029524 0.163946866574 1.58235535565e-20)
(0.242757166701 0.187582779293 5.62537955582e-21)
(0.251427266631 0.211618202096 5.4987192916e-21)
(0.259948470867 0.235893843224 0)
(0.268309970252 0.260311092578 9.03299245827e-21)
(0.276510673925 0.284753360499 -5.14165333794e-21)
(0.284547329427 0.309159633567 0)
(0.292423574904 0.33345310439 0)
(0.300143097425 0.357610550715 -4.82604829678e-21)
(0.307721197739 0.38159312233 0)
(0.315169795637 0.405409015432 0)
(0.322509793559 0.429048337703 0)
(0.329753624294 0.452541308939 0)
(0.336918222923 0.475900140575 0)
(0.344008271994 0.499169752642 -5.43423425218e-21)
(0.351032112421 0.522378063809 -1.37893426442e-20)
(0.357986445021 0.545578213249 0)
(0.36487217208 0.568809337194 -4.92968351262e-21)
(0.371680678939 0.592129073148 8.16865217978e-21)
(0.378408048496 0.615585970232 0)
(0.385043250958 0.639241510505 0)
(0.391575350558 0.663153656522 2.0039034019e-20)
(0.397990190709 0.687388721446 1.19579073741e-20)
(0.404272630866 0.712012585664 -7.64494196559e-21)
(0.410411717287 0.737094252269 -1.15141224614e-20)
(0.416408596733 0.762705324081 -3.85836102881e-21)
(0.422260579477 0.788934784595 0)
(0.427954767504 0.815897417304 1.81391881834e-20)
(0.433478523679 0.843730376266 7.14219460423e-21)
(0.438810857654 0.872582518178 0)
(0.443907636367 0.902620159136 -1.03236349261e-20)
(0.448690552767 0.93405752278 1.01444934792e-20)
(0.453075174978 0.967163471395 6.75513397855e-21)
(0.457041640547 1.00212188508 0)
(0.460700297236 1.03851348528 0)
(0.464110856735 1.07446227636 0)
(0.466873311081 1.10424923764 -9.26067746824e-21)
(0.468539414222 1.12499829776 0)
(0.469141321995 1.13837260097 8.78681743847e-21)
(0.46879997028 1.14574802156 0)
(0.467658495085 1.14821087993 2.14092634525e-21)
(0.4658798674 1.14659261528 0)
(0.463630770552 1.14150495865 1.77748161143e-21)
(0.461071057404 1.13340203836 1.59688127779e-21)
(0.458346266062 1.12261551718 0)
(0.455587391474 1.10942444088 6.00794053118e-21)
(0.452901080861 1.09407164258 0)