/*--------------------------------*- C++ -*----------------------------------*\
| =========                 |                                                 |
| \\      /  F ield         | OpenFOAM: The Open Source CFD Toolbox           |
|  \\    /   O peration     | Version:  v1806                                 |
|   \\  /    A nd           | Web:      www.OpenFOAM.com                      |
|    \\/     M anipulation  |                                                 |
\*---------------------------------------------------------------------------*/
FoamFile
{
    version     2.0;
    format      ascii;
    class       volScalarField;
    location    "11";
    object      p;
}
// * * * * * * * * * * * * * * * * * * * * * * * * * * * * * * * * * * * * * //

dimensions      [0 2 -2 0 0 0 0];


internalField   nonuniform List<scalar> 
12225
(
-3.11239535484
-3.85855584229
-4.12046833866
-4.19332970002
-4.25026810658
-4.31306216367
-4.36706814531
-4.40353643427
-4.42206022685
-4.4250168778
-4.41403123192
-4.38900436099
-4.34834847921
-4.289346376
-4.20816399
-4.09937098347
-3.95349427785
-3.75751356024
-3.28491255293
-3.87155989343
-4.12402862505
-4.20132773612
-4.25805746207
-4.31913870277
-4.3718364599
-4.40765848965
-4.42598167723
-4.4289777846
-4.41817284883
-4.39345652095
-4.35328519679
-4.29503805178
-4.21507864741
-4.10850781299
-3.96842378387
-3.80628878833
-3.42719405745
-3.86020363555
-4.10792328285
-4.19948383463
-4.26035476703
-4.32111241403
-4.37334158773
-4.40947606562
-4.42866350821
-4.43277914989
-4.42324478784
-4.40002373957
-4.36177375079
-4.30621705831
-4.23034694261
-4.13062374249
-4.00339436162
-3.85874582294
-3.55105737391
-3.87253563798
-4.10914647127
-4.21172159818
-4.27444269651
-4.33251067335
-4.38254808559
-4.41803532644
-4.43764982066
-4.44274861195
-4.43454994326
-4.41309274806
-4.37730397278
-4.32536609616
-4.25505496239
-4.16421334623
-4.05160821369
-3.92487148409
-3.66100995096
-3.89932217313
-4.11369454646
-4.22062891762
-4.28403145789
-4.33954902556
-4.38788517995
-4.42342443135
-4.44425467815
-4.45113680193
-4.44508257802
-4.42625815813
-4.39393885332
-4.34685065871
-4.28359190357
-4.20323320691
-4.10623864922
-3.99878284485
-3.75915774302
-3.93585307951
-4.12382101993
-4.23170954357
-4.29679218414
-4.35120829324
-4.39860595388
-4.43449894865
-4.45667850176
-4.46547573145
-4.46179019536
-4.44597900218
-4.41771206429
-4.37627960255
-4.32105221892
-4.25210685344
-4.17105461255
-4.0835432788
-3.84748359812
-3.97904649689
-4.14007183753
-4.24535648568
-4.31146854937
-4.36480437328
-4.41091469274
-4.44667495463
-4.46990010811
-4.48061532928
-4.47961013291
-4.46739470681
-4.44399023689
-4.40919346552
-4.36302978333
-4.30633116737
-4.24138802504
-4.17341515747
-3.92771474066
-4.02648427364
-4.16217215724
-4.26199785793
-4.32825139522
-4.38077111156
-4.42588925839
-4.46177336109
-4.48643689341
-4.49966177955
-4.50209803173
-4.49435600346
-4.47675819802
-4.44954505108
-4.41327725278
-4.36931815989
-4.32029983054
-4.27095396453
-4.00130684132
-4.07638411071
-4.1895396901
-4.28201374214
-4.34742812181
-4.39928463839
-4.44369932363
-4.47987962083
-4.50615369532
-4.5221580416
-4.52842235887
-4.52563743255
-4.51438904671
-4.49529444986
-4.46932453117
-4.4381707672
-4.40454064813
-4.37253177368
-4.06946753368
-4.12748946785
-4.22142288815
-4.30559512066
-4.36925752557
-4.42049072869
-4.46450490009
-4.50122580613
-4.52935572247
-4.54848774295
-4.55906334132
-4.56182867914
-4.55757256392
-4.54719411263
-4.53193469403
-4.51363127484
-4.49488298845
-4.47912083853
-4.13316602166
-4.17892244611
-4.25697487133
-4.33270483594
-4.39392988766
-4.44453583292
-4.48846727878
-4.52603804563
-4.5563145292
-4.57892243062
-4.59424441955
-4.60305208722
-4.60626781288
-4.60497197764
-4.6005485522
-4.59483922189
-4.59021912896
-4.58943869442
-4.1882322872
-4.22594850621
-4.29225463667
-4.36062118998
-4.41922582949
-4.46924854202
-4.51339000245
-4.55205643443
-4.58459184353
-4.61069546105
-4.63071882327
-4.64543237146
-4.65581834622
-4.66303837651
-4.66850855519
-4.67398477922
-4.68158876114
-4.69352382077
-4.24037424966
-4.2721213139
-4.32894008683
-4.39065479752
-4.44656615064
-4.49603473844
-4.54061688635
-4.58064841572
-4.6156804337
-4.64549730475
-4.6704333962
-4.69123920746
-4.70890984352
-4.72462114602
-4.73975564133
-4.75592655488
-4.77498114318
-4.7985909752
-4.2969743567
-4.32382303007
-4.37231762947
-4.42760567468
-4.48063253987
-4.52958950167
-4.57498024587
-4.61694094133
-4.65516270559
-4.68951586574
-4.72032079316
-4.74828238143
-4.77435567871
-4.79966350129
-4.82547704684
-4.85320092744
-4.88436035012
-4.92009942914
-4.35762184172
-4.38072297017
-4.42245844078
-4.47209948363
-4.52242906039
-4.5711143301
-4.61783007761
-4.66243976157
-4.70468604674
-4.74450012617
-4.78217352569
-4.81833652181
-4.85384021704
-4.88968172822
-4.92694462889
-4.96677022705
-5.01033692766
-5.05828188394
-4.42145417487
-4.44195990968
-4.47879241055
-4.52415801876
-4.57253775838
-4.62155517498
-4.67034955864
-4.71850627479
-4.76574277903
-4.81199510434
-4.8575043759
-4.90277689447
-4.94851137272
-4.99550342948
-5.04459956307
-5.09663728494
-5.15245633873
-5.21222567784
-4.48668159924
-4.50571607963
-4.53971346444
-4.582738809
-4.63055879598
-4.68099442016
-4.73291385218
-4.78568741001
-4.83895126209
-4.89259259158
-4.94675116947
-5.00177823167
-5.05816444153
-5.11646817145
-5.17725888531
-5.24107324587
-5.30843035916
-5.37910144212
-4.54959392838
-4.56827624307
-4.60170778066
-4.64485706577
-4.69417318228
-4.74765820847
-4.80408149126
-4.86268200511
-4.92299783869
-4.98481900656
-5.04814854172
-5.11315631337
-5.18011126369
-5.24932675087
-5.32110698858
-5.39572007901
-5.47342192425
-5.55367733184
-4.60255859029
-4.62224189493
-4.65791409995
-4.70441533322
-4.75808508125
-4.81690497354
-4.87963730943
-4.94547819647
-5.01387400974
-5.08448987963
-5.15717359747
-5.23191816304
-5.30879003065
-5.38788723919
-5.46928552152
-5.55303079847
-5.63916634805
-5.72692031365
-4.62324597912
-4.64543809445
-4.68640795404
-4.73940276704
-4.79964303842
-4.86493776239
-4.93425134726
-5.00691345455
-5.08233375984
-5.16009172477
-5.23993115187
-5.32176693694
-5.40555890917
-5.49130510242
-5.57894818956
-5.66842508814
-5.75965881051
-5.85177646998
-4.61885296389
-4.64452317181
-4.69263471274
-4.75351517615
-4.82065610939
-4.89190982018
-4.96679116312
-5.04487919953
-5.12560062256
-5.20846299955
-5.29321255429
-5.37974486985
-5.46803465734
-5.55801946127
-5.64962016893
-5.74269264495
-5.83715323925
-5.93206892178
-4.59582782821
-4.62702826326
-4.68545620425
-4.75618717351
-4.83062856625
-4.90751728663
-4.98743095464
-5.0702607413
-5.1553563126
-5.24218383426
-5.33051913821
-5.42032995117
-5.51161410883
-5.60430853354
-5.69828561049
-5.79336184199
-5.88939185675
-5.98540082391
-4.55704324623
-4.59706796912
-4.66997635947
-4.75215466181
-4.8335418083
-4.915365105
-4.99975536712
-5.08676271803
-5.17556500307
-5.26562930407
-5.35686719272
-5.44937638302
-5.54319984907
-5.63827309209
-5.73441010143
-5.83140070054
-5.92907277859
-6.02651371798
-4.50410663562
-4.55844827475
-4.65103455621
-4.74532934362
-4.83243555143
-4.91826213457
-5.00651743502
-5.09694588978
-5.18841619539
-5.28048458159
-5.37331281383
-5.46719472617
-5.56227163808
-5.65847689522
-5.75559921978
-5.85334318865
-5.951456464
-6.04888116889
-4.43749941578
-4.51514825114
-4.63299250808
-4.73835211612
-4.82926695673
-4.91848908809
-5.01064938207
-5.10461876818
-5.19889324829
-5.29317640785
-5.38787494484
-5.48342624489
-5.58001274864
-5.67755374985
-5.77580418945
-5.87443537963
-5.97317045122
-6.07096905447
-4.35670987422
-4.47187298448
-4.61940199631
-4.73232538498
-4.82422139082
-4.91529074225
-5.00976355395
-5.10542147599
-5.20073134176
-5.29579975609
-5.39132961283
-5.48784529098
-5.58548186039
-5.68406971086
-5.78327721496
-5.88268251887
-5.98183242953
-6.07935324658
-4.2604671475
-4.43446999296
-4.61278667248
-4.72937729978
-4.82263857631
-4.91745942965
-5.01538632166
-5.11293217942
-5.20894160677
-5.30424245957
-5.40000345207
-5.4969079289
-5.59508771462
-5.69430332141
-5.79417065659
-5.89422552952
-5.99390110852
-6.09149576824
-4.14695838902
-4.40954605641
-4.60873092853
-4.71836481604
-4.80977267859
-4.90788244946
-5.00940502861
-5.10917543504
-5.20629952973
-5.30223041329
-5.39854419015
-5.49608930119
-5.5950060255
-5.69503030963
-5.79577518396
-5.8968192491
-5.99755823494
-6.09573424537
-4.01431030703
-4.41477386736
-4.62933164644
-4.72654274749
-4.81298674876
-4.9113389785
-5.01385234457
-5.11398121205
-5.21093167841
-5.306522935
-5.40257298809
-5.50001547183
-5.59898885287
-5.69921538954
-5.80034407653
-5.90213815726
-6.00446579948
-6.10616107384
-3.84428925126
-4.39414335253
-4.62509543249
-4.71903483413
-4.80558347348
-4.9058465042
-5.01008574351
-5.11130539861
-5.20886993397
-5.30482829555
-5.40114976239
-5.49883577018
-5.59804707384
-5.69851844893
-5.79992884842
-5.90217642024
-6.00555862882
-6.11456266755
-2.9150216602
-2.91894006101
-2.92383384986
-2.92718028567
-2.93233674257
-2.94445768902
-2.96836835707
-3.00680305941
-3.06198123258
-3.13566433151
-3.22921404698
-3.34363676444
-3.47961061296
-3.63753859176
-3.81757606703
-4.01968388393
-4.24365344764
-4.489156496
-4.75576593604
-5.04299924285
-5.35033427903
-5.67724634561
-6.02321678212
-6.38776236821
-6.77043648416
-7.17085084461
-7.58866742218
-8.02361371574
-8.47546341423
-8.94404391112
-9.42920648962
-9.93082732005
-10.4487648658
-10.9828531167
-11.5328495446
-12.0984223056
-12.6790877779
-13.2741944502
-13.8828542183
-14.5039245474
-15.1359389215
-15.7770971493
-16.4252091157
-17.0776988648
-17.7315602302
-18.3833677227
-19.0292601772
-19.6650021342
-20.2860334763
-20.8875619071
-21.4646250777
-22.0121744319
-22.5251379283
-22.9984743274
-23.4272575601
-23.8067952478
-24.1328118128
-24.4016166685
-24.6102823557
-24.7566543408
-24.8392587679
-24.8570232048
-24.8089756546
-24.6939142468
-24.5107791458
-24.2596185098
-23.9417215831
-23.5586528166
-23.1117738059
-22.6017712147
-22.0283397338
-21.3897150091
-20.6824412308
-19.9010948327
-19.0384301838
-18.0856022369
-17.0329776144
-15.8710791877
-14.5920433726
-13.1909620852
-11.6674830881
-10.0268351161
-8.28052759233
-6.4461228136
-4.54689584809
-2.61052510494
-0.667213328352
1.25269189026
3.12011993302
4.90861944492
6.59590118912
8.16495771377
9.60418304326
10.9068077522
12.070577707
13.0972503286
13.9918322952
14.7620518195
15.4171394
15.9671265223
16.4223950856
16.7936704756
17.0916545972
17.3264307217
17.5073076649
17.6430641077
17.742169733
17.8153647265
17.8616450771
17.8770363678
17.8645265238
17.8301480194
17.779399708
17.7167259496
17.6455317638
17.5684324099
17.4874019339
17.4040091736
17.3194785655
17.2348160992
17.1507922349
17.0680305401
16.9869971827
16.9080833331
16.8315522932
16.757617988
16.6863880104
16.6179535598
16.552359104
16.4896637506
16.4298560505
16.3729165942
16.318753161
16.2672674808
16.2183121346
16.1717618649
16.1274682342
16.0853143166
16.0451717846
16.0069362652
15.9704871929
15.9357180133
15.9025323586
15.8708530358
15.8406143428
15.8117614213
15.7842398698
15.7580337234
15.7331272405
15.709484272
15.6870814773
15.6659189453
15.6460088373
15.6273810092
15.6100511299
15.5940221836
15.5793466677
15.5660989817
15.5542798733
15.5438555729
15.5348970548
15.5275228091
15.5217425064
15.517587518
15.5151169074
15.5144227487
15.5155204742
15.5183242665
15.522747407
15.5285812004
15.5354114032
15.5427978689
15.5503306309
15.5577301357
15.5649330462
15.5721720396
15.5799209795
15.5886977907
15.6003152377
15.598717489
-2.89206853776
-2.9001467423
-2.91349040865
-2.92550021779
-2.93176924484
-2.9416803936
-2.96432827847
-3.00278822628
-3.05891207248
-3.13420480081
-3.22984121311
-3.34667890465
-3.48527476862
-3.645927492
-3.82870599832
-4.03349653985
-4.26003127464
-4.50793264066
-4.77673813025
-5.06593868376
-5.37499805785
-5.70338430576
-6.05058295858
-6.4161207359
-6.79957040876
-7.2005676838
-7.61880779136
-8.05405385036
-8.50612333173
-8.97488888374
-9.46025448745
-9.96214749543
-10.4804840517
-11.0151528682
-11.5659706448
-12.1326576858
-12.7147854628
-13.3117471845
-13.9226991008
-14.5465260087
-15.1817822814
-15.8266663512
-16.4789802768
-17.1361210296
-17.7950447182
-18.4522498422
-19.1037771649
-19.7452753476
-20.3720767214
-20.9792708322
-21.5617802213
-22.1144340302
-22.6320127577
-23.1092916059
-23.5411687409
-23.9228481132
-24.2500588286
-24.5192407959
-24.7276766801
-24.8734652437
-24.9553792187
-24.9726252994
-24.9241694042
-24.8078780363
-24.6218673349
-24.3670545968
-24.0459861248
-23.6608188247
-23.2133497997
-22.7046686286
-22.1348042959
-21.5022950782
-20.8038447626
-20.0340470083
-19.1854062442
-18.2485992421
-17.2131871606
-16.0686952051
-14.8061138556
-13.4194309137
-11.9072223823
-10.2739661026
-8.53079471198
-6.69529998261
-4.79092111151
-2.84579904268
-0.890848513648
1.0427695627
2.92543145258
4.73019770928
6.43411694653
8.0196298091
9.47464169898
10.7918906464
11.9686265445
13.0062794842
13.9095924243
14.6860381876
15.3449178884
15.8967424367
16.3526589596
16.7248118163
17.0249796277
17.2634466349
17.451813759
17.6001159943
17.7106226817
17.7859879506
17.830634305
17.8464676889
17.8364820493
17.8053905453
17.7579345236
17.6982125995
17.629558207
17.5545887738
17.4753553066
17.3934717218
17.3102321624
17.226668136
17.1435939423
17.0616455482
16.9813257953
16.9030357584
16.8270919753
16.7537176574
16.6830468568
16.6151320832
16.5499843674
16.4876094488
16.428028603
16.3712686573
16.317277403
16.2659477584
16.2171414102
16.1707197367
16.1265441359
16.0844894903
16.0444361555
16.0062743421
15.9698884775
15.9351665068
15.9020162856
15.8703710165
15.8401690201
15.8113548682
15.7838787372
15.7576986029
15.7327856583
15.7091152275
15.6866789681
15.6654786261
15.6455269437
15.6268707161
15.6095373146
15.5935401806
15.5788824329
15.5656186877
15.5538019534
15.5434312538
15.5345113049
15.5270873394
15.5212005964
15.5169225817
15.5143488778
15.5136211038
15.5148126491
15.5178108848
15.5224016338
15.5282967347
15.5351120329
15.5424348908
15.5498975634
15.5572628054
15.5644965968
15.5718346624
15.5797041539
15.5885592361
15.5997175798
15.6023645787
-2.84964076989
-2.86286336606
-2.88169196723
-2.90477233468
-2.93084090863
-2.96253710979
-3.00441923625
-3.05977930895
-3.13105802294
-3.22007057863
-3.32813681358
-3.45618227995
-3.60479906676
-3.77430982048
-3.96480753055
-4.17620758114
-4.40827897814
-4.66068895012
-4.9330282932
-5.22484863785
-5.5356817501
-5.86507010271
-6.21257964781
-6.57782240684
-6.96046225039
-7.36022962075
-7.77691862384
-8.21039387446
-8.66057743979
-9.1274470565
-9.61101268293
-10.1113057057
-10.6283448583
-11.1621163487
-11.7125295301
-12.2793884298
-12.862339651
-13.4608387343
-14.0740909571
-14.7010095235
-15.3401551507
-15.9897052901
-16.647418967
-17.3106284373
-17.9761988973
-18.6404923846
-19.2993714231
-19.9482835642
-20.5823668508
-21.1965076949
-21.7854320912
-22.3437624532
-22.8660286677
-23.3467347173
-23.7805527299
-24.1625644589
-24.488483844
-24.7548412175
-24.9590659969
-25.0995195493
-25.1754153704
-25.1862172371
-25.1304331397
-25.0050929399
-24.8095787235
-24.5464202283
-24.2183283897
-23.8280151117
-23.377876948
-22.8696138415
-22.3038207523
-21.6795313292
-20.9937704945
-20.2411844895
-19.4139453001
-18.5019672165
-17.4935310297
-16.3764282281
-15.1396523578
-13.775183747
-12.279700062
-10.6561866956
-8.91500962013
-7.07380140586
-5.1564995235
-3.19221608299
-1.21343077831
0.74682615406
2.65735790001
4.48981481414
6.22004106749
7.82947971011
9.30531146347
10.6398310788
11.8299941722
12.8773043137
13.7868127072
14.566942995
15.2279358832
15.7818644022
16.2410368943
16.619687417
16.9309121216
17.1843025523
17.3857451608
17.5402433018
17.6540843537
17.7329017295
17.7807186706
17.8001882468
17.7945525038
17.7679716223
17.7247556725
17.6687949406
17.6033964306
17.5312213599
17.4544078067
17.3746377799
17.2932709829
17.2113721891
17.1297935905
17.049186401
16.9700833248
16.8928930326
16.8179487247
16.7454678668
16.6756125225
16.6084704987
16.5440302948
16.4822475281
16.4231623955
16.3668110783
16.3132002531
16.2622247515
16.2137537791
16.1676348267
16.1237345648
16.0819262206
16.0420986438
16.004137299
15.9679334133
15.933381612
15.9003800738
15.8688477674
15.8387294115
15.8099782037
15.7825502796
15.7564076152
15.7315321921
15.7079072375
15.6855346771
15.6644413827
15.6446252462
15.626087079
15.6088457297
15.592946097
15.5784268685
15.565272958
15.5534714119
15.5430494956
15.5340503608
15.5265616048
15.5206729726
15.5165243528
15.5142661486
15.5138837389
15.5152880692
15.5183572838
15.5228853657
15.5285914447
15.5351191588
15.542092621
15.5491775363
15.5561511573
15.5629613124
15.5697678105
15.576934937
15.584967587
15.595154391
15.600697439
-2.83406195228
-2.85250403985
-2.88020296201
-2.91584786716
-2.95930299447
-3.01148339099
-3.07427378838
-3.14968478178
-3.23960418588
-3.34562453299
-3.46899448533
-3.61063772704
-3.77117737724
-3.95098517732
-4.15021491886
-4.36885223242
-4.60674441307
-4.86364466893
-5.13923623354
-5.43316993872
-5.7450827776
-6.07462763422
-6.42148616252
-6.78539109279
-7.16613124167
-7.56356591793
-7.97762181331
-8.40829832832
-8.85565453136
-9.31980547612
-9.80089813338
-10.2990984277
-10.8145561898
-11.3473831243
-11.8976065332
-12.465138049
-13.0497200058
-13.6508888687
-14.2679126685
-14.8997434345
-15.5449505504
-16.2016851775
-16.8676460243
-17.5400737173
-18.2157031897
-18.8907089285
-19.560705127
-20.2208561897
-20.8660217958
-21.490803321
-22.0896337021
-22.6568229891
-23.1865452738
-23.6729601172
-24.110507233
-24.4941874842
-24.8197024924
-25.0836297191
-25.2836247532
-25.4184855328
-25.4878557308
-25.4911379687
-25.4260695646
-25.2892648643
-25.0816527854
-24.807733181
-24.4709444163
-24.0747345902
-23.6222329591
-23.1158675857
-22.5569339712
-21.9451243267
-21.2780077593
-20.5504850988
-19.7544934441
-18.8790975908
-17.9109385169
-16.8352868418
-15.6379673782
-14.3076256586
-12.8377760281
-11.2287777592
-9.48951047065
-7.63748449973
-5.69770698239
-3.7013512583
-1.6837818147
0.318803089313
2.27230638565
4.14615245923
5.91391886767
7.55557221456
9.05752428639
10.4119185458
11.6164349863
12.6738517789
13.5908406861
14.3778973532
15.0468821218
15.6124706594
16.0885036639
16.4867989422
16.8156046623
17.0806133241
17.2901193582
17.4520017701
17.5725627891
17.6570668433
17.7097068874
17.7339442624
17.7334009592
17.7120817311
17.6740047963
17.6228689479
17.5618778952
17.4936923575
17.4204727837
17.3439537016
17.2655265961
17.186294294
17.107129555
17.0287139464
16.951597228
16.8762160993
16.8029122735
16.731926429
16.6634260182
16.5975091257
16.5342194675
16.4734845159
16.4152895012
16.3597218703
16.3068001803
16.2564393349
16.2085177805
16.1628963973
16.1194437419
16.0780304279
16.0385440982
16.0008761509
15.9649219905
15.9305770754
15.8977498969
15.8663712427
15.8363918203
15.8077673167
15.7804676948
15.7544537181
15.7297071623
15.706238377
15.6840226493
15.6630510217
15.6433314676
15.6249008261
15.6078126953
15.5920509783
15.5776054929
15.5644838199
15.5527053772
15.5423151148
15.5333946487
15.5260522649
15.5204576288
15.516681276
15.5147003116
15.5144918587
15.5159701779
15.5189985103
15.5233688641
15.5288044593
15.5349715215
15.5415201009
15.5481364763
15.5545977224
15.5608218785
15.5668946199
15.5730572714
15.5796750988
15.5877822253
15.5919239687
-2.89098302155
-2.91230229592
-2.94547324307
-2.99000738473
-3.04563394892
-3.1126859551
-3.19198184474
-3.28455276343
-3.39149060982
-3.51381092332
-3.65237261003
-3.80785163837
-3.980726841
-4.17130005849
-4.37970869301
-4.60596129636
-4.84995694936
-5.1115226643
-5.39043245078
-5.68644104489
-5.99929963959
-6.32878451261
-6.67470762648
-7.03693783804
-7.41540579739
-7.81011667463
-8.22114653437
-8.64864662529
-9.09282981247
-9.55396513866
-10.0323531766
-10.528311022
-11.0421364958
-11.5740834259
-12.1243140893
-12.6928649007
-13.2795903888
-13.8841237787
-14.5058109956
-15.1436562767
-15.7962470603
-16.4617098423
-17.1376734805
-17.8212662022
-18.5090634315
-19.1970155429
-19.8804385732
-20.5541529632
-21.2126775942
-21.850268975
-22.4609874
-23.0387127246
-23.5771279887
-24.069951964
-24.5113249319
-24.8960680101
-25.2197603876
-25.4790620532
-25.6720523092
-25.798165403
-25.8574825807
-25.8489225321
-25.768625526
-25.6146554285
-25.3908412222
-25.10255689
-24.7539924719
-24.3492790914
-23.8922952202
-23.3863382752
-22.8336745745
-22.2350694887
-21.5892054299
-20.8918588778
-20.1351922961
-19.3075308015
-18.3935616413
-17.3751120824
-16.233277919
-14.9516272946
-13.5188731362
-11.9315880818
-10.1967103845
-8.33166152523
-6.36331997841
-4.32625418584
-2.25991693793
-0.205381673974
1.7988806083
3.71924244494
5.52714646374
7.20204970713
8.73001077217
10.1040346948
11.3233992162
12.3939380772
13.3245380276
14.1287969812
14.8198374955
15.4102380711
15.9099615146
16.3259398183
16.6677174704
16.9446204283
17.1649495258
17.3362439417
17.4649490856
17.5565522434
17.6156327315
17.6462027592
17.6521346796
17.6373694994
17.6057102408
17.5606862893
17.5053765195
17.4424151055
17.3739575683
17.301780583
17.2272969009
17.1516556322
17.0757471235
17.0002991585
16.9258764586
16.8529550105
16.7818807794
16.7129273507
16.646263668
16.5820175906
16.520249462
16.4609279553
16.4039979402
16.3495385698
16.2975804817
16.2480817443
16.2009264859
16.1559949301
16.1131537374
16.0722885316
16.0332870132
15.996050277
15.9604762802
15.9264708016
15.8939487046
15.8628491633
15.8331318914
15.8047525456
15.777679423
15.7519056704
15.7273883527
15.704100485
15.6820423417
15.6612267744
15.6417135553
15.623515731
15.6066083806
15.5909939414
15.5766811837
15.5636910239
15.5520558602
15.541836468
15.53314718
15.5261402041
15.5208885685
15.5173789428
15.5155886059
15.5154761137
15.5169452013
15.5198482045
15.5239721729
15.5290460151
15.5347498654
15.5407517211
15.5467456821
15.5524988997
15.5578839871
15.5628961212
15.5676247475
15.5722068237
15.5771442455
15.5770580012
-3.02158149186
-3.04298068842
-3.07816003553
-3.12737692135
-3.19019218943
-3.26663255349
-3.3569659507
-3.46161527188
-3.58107468574
-3.71583710439
-3.86633832851
-4.03293325101
-4.21587232308
-4.41530821047
-4.63129397653
-4.86380588064
-5.11275167932
-5.37799942102
-5.65938886848
-5.95676058443
-6.26996717474
-6.59889828052
-6.94348940874
-7.30374125121
-7.67972260312
-8.07158219108
-8.47954445321
-8.90391202966
-9.34505215356
-9.80338950056
-10.2793813944
-10.773500728
-11.2861996343
-11.8178827018
-12.3688578717
-12.9392986989
-13.5291860375
-14.138264703
-14.7659742268
-15.4113878951
-16.073127266
-16.7493047224
-17.4374791781
-18.134655065
-18.8372343962
-19.5409343692
-20.2407598427
-20.9311516579
-21.6062258789
-22.2598115317
-22.8854547046
-23.4764205986
-24.025725957
-24.526512351
-24.9725125903
-25.3582361076
-25.6790737909
-25.9319670091
-26.1157373709
-26.2306853095
-26.2772075986
-26.2531740946
-26.1526465563
-25.9770942683
-25.7343149138
-25.4290089138
-25.0658110397
-24.64932882
-24.1842298337
-23.6750217916
-23.1255274309
-22.5382785379
-21.9138193423
-21.2495513907
-20.5383570846
-19.7678676453
-18.9204264092
-17.9734289831
-16.9017197529
-15.6821759161
-14.2970652769
-12.7380991588
-11.0097769259
-9.13013909023
-7.12912730998
-5.04627790584
-2.92646011591
-0.816444770266
1.24062832303
3.20859309892
5.05630551614
6.762877808
8.31594776105
9.71185663989
10.9529477675
12.0482722383
13.0074201257
13.8426597553
14.5639782987
15.1786056428
15.6968133579
16.1293917458
16.4862657272
16.776689743
17.0091117971
17.1911508992
17.3294748928
17.4298121243
17.4970806485
17.5356206977
17.5494914946
17.5425896648
17.5186024233
17.4809062873
17.4324931135
17.3759353101
17.3133922423
17.2466456598
17.1771444222
17.1060584375
17.0343200489
16.9626806464
16.891746711
16.8220090035
16.7538445317
16.6875379186
16.6232867127
16.5612281827
16.5014408769
16.4439568625
16.388743146
16.3358025388
16.2851747685
16.2368472456
16.1907371284
16.1467391179
16.104737948
16.0646271579
16.0263045983
15.9896751814
15.9546413401
15.9211170461
15.8890326307
15.8583345906
15.8289800219
15.8009543249
15.7742247019
15.7487429067
15.7244838686
15.7014363479
15.6796235515
15.6590969376
15.6398665656
15.6219110474
15.6052256462
15.5898267538
15.5757305422
15.5629665238
15.551570431
15.541627818
15.5332862565
15.5266303189
15.5216585799
15.5183608373
15.5167054775
15.5166346168
15.5180404986
15.5207653871
15.5245921056
15.5292526194
15.53443625
15.5398202837
15.5450982786
15.5500167791
15.5543931122
15.55811938
15.5611181854
15.5632491134
15.5644345305
15.5590436119
-3.20348003564
-3.22360408656
-3.25879774501
-3.30969161641
-3.375893937
-3.4573565637
-3.55406349703
-3.66608204666
-3.79351844583
-3.9364910345
-4.09510045534
-4.26941975313
-4.45947632042
-4.6652574218
-4.88670369286
-5.12372560196
-5.37620469417
-5.64401589578
-5.92703325892
-6.22515363449
-6.53830370412
-6.86646227628
-7.20966569204
-7.56802500309
-7.941728004
-8.3310489735
-8.73634373176
-9.15805111678
-9.59667901842
-10.0527959686
-10.5270062514
-11.0199312518
-11.5321728494
-12.064284196
-12.6167198502
-13.1897945299
-13.7836212886
-14.3980637607
-15.0326640885
-15.6865763807
-16.3584714813
-17.046462108
-17.7480422259
-18.4600825181
-19.1787987543
-19.8996743524
-20.6173909461
-21.3259407793
-22.018894409
-22.6894945592
-23.330587413
-23.9346961898
-24.4941423747
-25.0015190202
-25.4501411107
-25.8341421757
-26.1489323738
-26.3922445918
-26.5643345479
-26.6664668692
-26.6981663051
-26.6547239264
-26.5305796457
-26.3315756177
-26.0678136648
-25.7428229508
-25.361301118
-24.9285491201
-24.4505413413
-23.9337347165
-23.384297927
-22.8071096279
-22.2049178337
-21.5769030896
-20.9167393848
-20.2113389448
-19.440574985
-18.5768719234
-17.5878708808
-16.4419345415
-15.1139344148
-13.5906513643
-11.8744853123
-9.98435728259
-7.95327921813
-5.82654622014
-3.65466481844
-1.49199597334
0.612973248891
2.62242399337
4.5064827063
6.24428311505
7.82753151523
9.25662754297
10.5334903848
11.6665689329
12.6627287383
13.5285703333
14.2739922956
14.9101540745
15.4479705844
15.8982166636
16.2710886678
16.5760411321
16.8217192542
17.015868783
17.1653372301
17.276052696
17.353190508
17.4013062479
17.4245894019
17.4269131638
17.4118915836
17.3827826777
17.342504216
17.293563492
17.2381120398
17.1779227178
17.1144749777
17.0489511136
16.9823296901
16.9153821915
16.8487607259
16.7829672688
16.7184171888
16.6554039964
16.594162691
16.5348386663
16.4775456764
16.4223331314
16.3692436752
16.3182417777
16.2693282272
16.2225085487
16.1777425165
16.1349431378
16.0940230745
16.0548833877
16.0174352218
15.9815894501
15.9472648661
15.9143821966
15.8828772289
15.8527118168
15.8238711113
15.7963188447
15.7700062916
15.7449099011
15.7210126514
15.698319151
15.6768832197
15.6567229325
15.6378206472
15.6201724838
15.6037900407
15.5886943544
15.5749052806
15.5624570483
15.5513839559
15.5418085887
15.533844181
15.5274973451
15.5227703176
15.5196456665
15.5180828035
15.5180079167
15.5193033403
15.5218009692
15.5252807059
15.5294738192
15.5340753788
15.538763536
15.5432247048
15.5471749998
15.5503706846
15.5525935958
15.5535941914
15.5529555165
15.5500803476
15.5391504877
-3.40817115345
-3.42663791804
-3.46101006182
-3.51194855162
-3.57923525524
-3.66285928584
-3.76268672135
-3.87860373429
-4.01049032731
-4.15822628047
-4.32168212413
-4.50072376869
-4.69520298224
-4.90496683448
-5.12985172764
-5.36969805928
-5.62434841328
-5.8936662643
-6.17753755543
-6.47589135925
-6.78870350164
-7.1160155181
-7.45793845238
-7.81466809034
-8.18648518671
-8.57376435191
-8.97696868245
-9.39664988461
-9.83343458364
-10.2880148565
-10.7611237276
-11.2535150253
-11.7659266196
-12.2990494638
-12.8534768138
-13.4296596943
-14.0278417342
-14.6480051911
-15.289795474
-15.9524511819
-16.6347023795
-17.3346777577
-18.0498164911
-18.7768431671
-19.5117550831
-20.249771254
-20.9852161857
-21.7115600593
-22.4217248209
-23.1083608272
-23.7636993799
-24.3797018737
-24.9481314503
-25.4609384466
-25.9106383779
-26.2906825137
-26.5970253679
-26.8292706605
-26.9895204652
-27.0788612484
-27.0933182521
-27.0231812572
-26.8724952775
-26.6522974594
-26.3660564828
-26.0181905885
-25.6146284696
-25.1624060163
-24.6694949849
-24.1446327872
-23.596203289
-23.0308537903
-22.4528483281
-21.8623469101
-21.2534091182
-20.6123896123
-19.9170817879
-19.1364507546
-18.232027838
-17.1640081359
-15.8988423872
-14.4170697799
-12.7192019893
-10.8255090318
-8.77327360468
-6.61482501246
-4.4053869865
-2.20385531547
-0.0613378188929
1.98273119779
3.902193544
5.67798522493
7.30239921733
8.77528845783
10.094578849
11.2632661701
12.2887441683
13.1807458076
13.9498953332
14.6074931461
15.1648516903
15.6330097966
16.0224023782
16.3426910834
16.602658246
16.8101820259
16.97222314
17.0948779761
17.1834749451
17.2427294349
17.2768882853
17.2898288125
17.2850854503
17.2658459749
17.2349399621
17.1948343613
17.1476425944
17.0951428383
17.0388155962
16.9798762937
16.9193234748
16.857973212
16.7964976029
16.7354357349
16.6752195073
16.6161775087
16.5585622175
16.5025525693
16.4482806359
16.3958341559
16.3452944096
16.296646157
16.2498455353
16.2048990105
16.1618015601
16.1204993071
16.0809240205
16.0429988487
16.0066494294
15.971797382
15.9383697818
15.9062953599
15.875534555
15.8460705945
15.8178725598
15.7908954377
15.7651183966
15.7405310773
15.7171109861
15.6948950333
15.6739253617
15.65418834
15.6356836791
15.6184194635
15.6024163777
15.5876945513
15.5742861706
15.5622179022
15.5515500503
15.5423800801
15.5347607906
15.5286972441
15.524187037
15.5212046867
15.5196995501
15.5195848838
15.5207329131
15.5229668401
15.5260624929
15.5297490487
15.5337221282
15.5376556809
15.5412219156
15.5441013691
15.545984962
15.5465449633
15.5453660862
15.541781151
15.5347845939
15.5185063365
-3.60769907359
-3.62480997679
-3.65837356519
-3.7088233135
-3.77615919352
-3.86042927193
-3.96147435888
-4.07911125607
-4.21310671349
-4.3632083849
-4.52914982041
-4.71066600562
-4.9074920979
-5.11937733996
-5.34608150713
-5.5873899036
-5.8431106916
-6.11309193975
-6.39722160049
-6.69544563266
-7.00776944626
-7.33427528604
-7.6751240658
-8.03056937982
-8.4009574753