/*--------------------------------*- C++ -*----------------------------------*\
| =========                 |                                                 |
| \\      /  F ield         | OpenFOAM: The Open Source CFD Toolbox           |
|  \\    /   O peration     | Version:  v1806                                 |
|   \\  /    A nd           | Web:      www.OpenFOAM.com                      |
|    \\/     M anipulation  |                                                 |
\*---------------------------------------------------------------------------*/
FoamFile
{
    version     2.0;
    format      ascii;
    class       volScalarField;
    location    "11";
    object      pa;
}
// * * * * * * * * * * * * * * * * * * * * * * * * * * * * * * * * * * * * * //

dimensions      [0 2 -2 0 0 0 0];


internalField   nonuniform List<scalar> 
12225
(
9.03209595567
5.49291881961
5.15563574721
4.94389055163
5.12211053763
5.42820980152
5.91637188314
6.46192848364
6.90486330342
7.02563866808
6.69965276223
5.99009619145
5.19768827431
5.24265947593
8.00393863785
15.8794162928
28.0980365587
31.1391030378
21.3144184432
13.9157572765
13.3707004783
13.3356142013
13.695152133
14.2680860816
14.9914664765
15.7544070707
16.4128502223
16.8484977454
17.067603463
17.2227502824
17.6764791165
19.3332954805
23.6652641558
31.7559653457
40.4597445971
36.6338956701
-0.325241201513
8.6351223104
9.23998879099
8.70689123778
8.75365929999
8.85207014868
9.03798927319
9.1692653453
9.12910586765
8.83781596644
8.34954467494
7.88249235217
7.90610592331
9.34027233399
13.4576262066
20.7094612672
27.6705732819
25.5286357601
22.6908744213
13.0529521474
12.4959552321
12.4427273998
12.5999412506
12.8599877569
13.1713521993
13.3996812003
13.4204214664
13.1466840408
12.6001453686
11.9565595466
11.6446093914
12.4157085673
15.1142827471
19.5752025239
22.8250496964
20.1815716566
7.89682000485
10.7453552182
10.7611133669
10.700893135
10.8572725283
11.1314126982
11.4750208516
11.7879570623
11.9764689795
11.9859706018
11.8436499099
11.7030730739
11.918442598
13.0219711962
15.3971776252
18.4242295134
19.7963846097
17.3576516764
13.2436884484
11.7606134072
11.8653161256
11.7310522762
11.7794278457
11.8900316835
12.044061169
12.1626441003
12.1883258101
12.10085772
11.9515319072
11.8955140608
12.2271694312
13.2944607769
15.1657615739
17.0885905591
17.4904403522
15.5161596615
11.8156003544
11.7921132014
11.9397296133
11.9114680959
11.9746403591
12.0800846484
12.202115084
12.2833791275
12.2862661122
12.2090444363
12.1126126461
12.1401387569
12.5159561948
13.4311037203
14.773408871
15.8682690708
15.7628719275
14.1960764468
12.0246973362
11.9887594632
12.1522184319
12.1520655128
12.1975618834
12.2674418546
12.3420341335
12.3813768492
12.3638113088
12.2990113908
12.2481192344
12.3302707523
12.6963714633
13.4161141647
14.2986274584
14.8257930881
14.471791485
13.2111883094
12.1143550573
12.1910906816
12.3303628524
12.3560461417
12.3868517507
12.4270653495
12.4622196698
12.4672018601
12.4332555029
12.3766127602
12.3535004865
12.4539641347
12.7651379322
13.2783387299
13.7939469997
13.953123695
13.4894947822
12.449648693
12.2334925595
12.3827185778
12.4935329094
12.5294020396
12.5460394942
12.5603225353
12.5631879776
12.5404895044
12.4927386854
12.4386520679
12.4249757617
12.5130246174
12.7414706268
13.0610900597
13.3004537955
13.2295558405
12.7251830541
11.8493070955
12.3644177777
12.5535668542
12.6255943596
12.6602224172
12.6632010113
12.6561567947
12.6335506772
12.5892841577
12.529432362
12.4721259046
12.4523540081
12.506701779
12.6415523079
12.7948440641
12.8352129788
12.6246524108
12.1149909621
11.3611588334
12.4816605769
12.6691961066
12.6923856575
12.7181286176
12.7093823562
12.6867336546
12.6468064184
12.5876161477
12.5180947229
12.4534177546
12.4178603744
12.4300688559
12.4820166485
12.5124527374
12.4275750034
12.1429161481
11.6448495857
10.9810671514
12.568343315
12.7333693274
12.7119160869
12.7231619395
12.7041665775
12.6688536219
12.6166394309
12.5464933461
12.4689100217
12.394630742
12.3384670022
12.30960329
12.2874228836
12.2244062751
12.0514691243
11.7241434876
11.2446807912
10.6543361081
12.6419307717
12.7579433508
12.7029415351
12.6917632247
12.6592754957
12.6094564768
12.5439976542
12.4627709656
12.3745403302
12.2857944269
12.2059560319
12.1320313016
12.0448416034
11.9044359756
11.6692562691
11.3163017652
10.8617423528
10.3379030484
12.6943453239
12.7534935711
12.6821343582
12.6431254092
12.5956928005
12.5256685877
12.4449685348
12.3471755348
12.2440225243
12.1351825996
12.0269708482
11.909975684
11.7689459968
11.5720301412
11.2979763575
10.9366169408
10.5112274982
10.0478990254
12.7061747337
12.7137357654
12.6403454901
12.5790900454
12.5160689485
12.4280760134
12.3285139478
12.2138109483
12.0898194631
11.959382167
11.8197201402
11.6676862218
11.483014381
11.252802107
10.9581036344
10.6056961867
10.211101215
9.80357016452
12.6629170113
12.6175780501
12.5553761239
12.4757777159
12.4027561916
12.2983357424
12.1835955983
12.050528573
11.9075211683
11.7531446497
11.5877150565
11.404192941
11.1930485484
10.9422935392
10.6464059772
10.3093031677
9.9514642861
9.59030774421
12.5980307318
12.4907978723
12.4389702631
12.3451452561
12.2654573027
12.1485850394
12.0218383963
11.8738380625
11.714650235
11.5409339824
11.3551203263
11.1508156985
10.9242631619
10.6666580643
10.3778975612
10.0615748737
9.7375616442
9.41762522836
12.5201890829
12.3641308231
12.3217808755
12.2172716222
12.1312870473
12.0045396508
11.8678751686
11.7081389554
11.536552931
11.349349347
11.1505758911
10.9351278726
10.7029198064
10.4470425967
10.1701339621
9.87500624073
9.58032187359
9.29458221277
12.454165917
12.3200217618
12.2663584306
12.1571411473
12.0642097214
11.9261367468
11.7815036642
11.6084154178
11.4298866987
11.2306420049
11.0266386517
10.8041564657
10.5728972927
10.3190932251
10.0533844884
9.77081675796
9.49597382109
9.2289952817
12.4611553478
12.3581276244
12.2966911559
12.1875776083
12.0825863429
11.9408632889
11.7830671713
11.6080915456
11.4169439765
11.216924431
11.0033678132
10.782759698
10.5472730317
10.3014673975
10.0380685232
9.77008723671
9.50195681056
9.25331689327
12.3078318575
12.322821857
12.2479425485
12.1484257075
12.0333710084
11.8822013727
11.7146082994
11.5278476933
11.3304685333
11.1207186698
10.9020560609
10.6753133661
10.4392148491
10.192903049
9.93487601597
9.67018884901
9.40992257416
9.15936962386
13.1183755025
12.8348366973
12.7599920105
12.6581801208
12.5414699986
12.3892695947
12.2229316498
12.0374944583
11.8406819413
11.6313465514
11.4143516604
11.1877782553
10.9549720499
10.7107547751
10.4592627086
10.1984275846
9.94456662667
9.71364340421
10.0537895612
11.5368905956
11.4910321105
11.3910166614
11.2290887719
11.0438485997
10.841090614
10.6256681411
10.4012400385
10.1673837727
9.92761273253
9.68450217384
9.43725636992
9.18625688348
8.92975216587
8.67112341411
8.41575469037
8.12897297501
19.2886417413
15.1359276873
14.9000793291
14.7862398097
14.658824048
14.5029509053
14.3372138725
14.1596402152
13.9725016761
13.7731401595
13.562138623
13.3387047403
13.1048593883
12.8613694732
12.6098595748
12.352360194
12.0980975037
11.9499036376
-2.52217240411
9.12003704787
9.60675438733
9.53216672913
9.33003442084
9.14383140659
8.94014433337
8.72959776938
8.50641540949
8.2668359007
8.01110719979
7.74147506685
7.45822999812
7.16954677809
6.88287385895
6.60641906194
6.34849671332
5.95419594917
37.7926795927
17.987053881
15.9641179858
15.9410857276
15.6653432353
15.40262599
15.1345431624
14.8612103692
14.5849736934
14.3039268219
14.0238849488
13.7590847948
13.5149934577
13.3012369721
13.1302026209
12.9978522238
12.8726188654
12.8801172305
-15.0329772077
7.89248118535
10.1858527452
9.84238286696
9.66135039426
9.47503324565
9.30419944062
9.13022847245
8.94987103116
8.75690356499
8.55178120061
8.34107265914
8.12151025086
7.88971527565
7.64487251532
7.37836078325
7.0814700553
6.58810021803
29.6604573255
19.0427315664
18.4026620593
18.2092668138
17.9146227
17.6639063577
17.4125578638
17.1736992353
16.9393044445
16.705165834
16.4683621089
16.2243333423
15.9589398314
15.6584771996
15.315249503
14.9230542004
14.4514054067
14.0965702072
5.57386313222
5.49503540328
4.45588006371
4.51565657455
4.37410744319
4.28475333216
4.19338950713
4.11439306208
4.04913899193
3.99277862366
3.94219562663
3.88639174084
3.80889578052
3.69395881396
3.5384589793
3.38388136479
3.34576339483
3.40436692981
1.20545745212
1.18434650014
1.1603196173
1.13784037415
1.12333942336
1.11365124558
1.10602994073
1.10838749559
1.12767300141
1.16671185958
1.22349156124
1.29545730261
1.37729705829
1.46585326953
1.55637646237
1.64698424013
1.73451952521
1.8184050624
1.89684395086
1.97009040495
2.0374288894
2.09953932039
2.15643597608
2.20908148662
2.25795319591
2.3040025082
2.34809270661
2.39103588052
2.43369718735
2.47654333282
2.52034945781
2.56516037597
2.61152277949
2.659138437
2.70840842041
2.75860726711
2.81014863806
2.86218124878
2.91495474646
2.96752434027
3.02023930479
3.07209202191
3.12350540021
3.17339612456
3.22228081521
3.26895349754
3.31410033944
3.35643878249
3.39688738415
3.43404967663
3.46900594241
3.5004271692
3.52951084321
3.55521265265
3.57852456786
3.59840746391
3.61544949271
3.6290431067
3.63942006357
3.64660801821
3.65084184353
3.65326597602
3.65509392523
3.66030179122
3.67281834884
3.69260162348
3.71763096347
3.74646598526
3.77774412165
3.81011214452
3.8430366326
3.8751861607
3.9064620208
3.93566995867
3.96271360293
3.98659379138
4.00700384629
4.02325003186
4.0345546665
4.04045809455
4.03948002351
4.03110134261
4.01328537417
3.98590698296
3.94609893627
3.89409508117
3.82748522969
3.7469541294
3.65362423158
3.54768393246
3.43797322486
3.32302422871
3.202387918
3.07182797917
2.93223945046
2.78289340215
2.62419456759
2.45311394718
2.27743519186
2.10581615908
1.93835075382
1.76592460182
1.58811544317
1.42136532216
1.28297458595
1.15083945269
1.00348430496
0.85499120447
0.725102266742
0.614749908207
0.522025925267
0.443336654118
0.375805807807
0.317061131503
0.265582577938
0.220027856581
0.179638712397
0.143545545644
0.111280141133
0.0820640890323
0.0554701844287
0.0309327344829
0.00833250100032
-0.01274150967
-0.0324658193687
-0.0513648631884
-0.0694828847558
-0.0869940096293
-0.103459087568
-0.118641938601
-0.13213495922
-0.144165879842
-0.154706219305
-0.164023776791
-0.172097214204
-0.179205830698
-0.185375173839
-0.19090886328
-0.195969745568
-0.201066344632
-0.206565754606
-0.213037711788
-0.220481250499
-0.229039907224
-0.238433743605
-0.248831285996
-0.260070121883
-0.272373379342
-0.285497765848
-0.299643075817
-0.314624766509
-0.330772450436
-0.34793994659
-0.366467322288
-0.386128770283
-0.407224077625
-0.42948825017
-0.453143207211
-0.477821518464
-0.503604588731
-0.530021334661
-0.557430494779
-0.5856422112
-0.614853709059
-0.644802963218
-0.676063085534
-0.708686765067
-0.743208858912
-0.779029657504
-0.815089892082
-0.848570840768
-0.875561237131
-0.890662244462
-0.889314624541
-0.871283984309
-0.840320250925
-0.806967697642
-0.788352325271
-0.799559686391
-0.842612200677
1.18105414175
1.16181664868
1.13274309656
1.07971584989
1.01428475202
0.952077779978
0.913206727523
0.905724727556
0.927950857133
0.974527847001
1.03802831614
1.11266862438
1.19244664969
1.2739913557
1.35354434972
1.42957888191
1.49987346924
1.56389522709
1.62038009487
1.66928941253
1.70995498242
1.74267333087
1.7672792801
1.78418431372
1.79362623336
1.79614589621
1.79220130606
1.78235856574
1.7672111458
1.7471785331
1.72281964235
1.69436655012
1.66235048017
1.62668088908
1.58775428901
1.54536972587
1.49980546459
1.45066185859
1.39820039339
1.3419117587
1.28202378176
1.21802829753
1.15019877312
1.07802706202
1.00187118217
0.92122612024
0.836602937094
0.747567785207
0.6548384792
0.5581110339
0.458290470954
0.355150323661
0.249507129049
0.141180191869
0.031026467245
-0.080747481896
-0.193172221583
-0.305628050512
-0.417046964679
-0.526610401296
-0.633666076797
-0.737634216302
-0.839371233985
-0.942868598663
-1.04950178237
-1.15434599209
-1.25374783845
-1.34498099931
-1.42597620374
-1.49541882527
-1.55230018655
-1.59643819782
-1.62774107726
-1.64676846478
-1.65399877229
-1.65016622769
-1.63601971122
-1.61201990394
-1.57877312806
-1.5364305938
-1.48557886866
-1.42616174247
-1.35884352611
-1.2835325364
-1.20134130043
-1.11248174494
-1.01816515954
-0.918015430294
-0.813425780121
-0.699546312398
-0.57709377549
-0.443122343234
-0.300701471986
-0.154321698082
-0.0089219554646
0.135597093837
0.277280955157
0.409070666313
0.52672641597
0.635983622877
0.735533802288
0.809452158253
0.867070763546
0.922252580254
0.960145697542
1.00304091055
1.05213485024
1.07412195457
1.08224902032
1.08352912065
1.08025633873
1.07339671313
1.06380440265
1.05185839493
1.03772406978
1.02162230601
1.00365145378
0.984017313698
0.962790373736
0.939966790683
0.915501891429
0.889498684562
0.862217754822
0.833984491809
0.805081956567
0.775791301076
0.746536969133
0.717833147651
0.690217394446
0.663900494769
0.638202070582
0.612660895983
0.587336569739
0.562237586638
0.537410786417
0.512813906466
0.488478540814
0.464356098706
0.440344769258
0.416219015454
0.391575108496
0.366080498273
0.339703454441
0.312572220791
0.284925356292
0.256841903925
0.228444854398
0.199785537961
0.170901437801
0.141670461826
0.112106517642
0.0821189939423
0.0518200909413
0.0211664473778
-0.00972064088996
-0.0409370719049
-0.0723272683053
-0.1038289137
-0.134988469205
-0.165703085614
-0.19579306145
-0.225344735777
-0.25410726696
-0.282278073326
-0.309764362204
-0.33677563934
-0.363297549695
-0.389329682246
-0.414028921567
-0.436138767344
-0.453315680378
-0.462870946441
-0.462361760515
-0.452850837021
-0.437592890032
-0.424616001743
-0.427162564086
-0.45892866415
-0.516692514666
-0.541360229031
1.13474296752
1.11295810585
1.04125499946
0.932610580174
0.819021388059
0.731155390371
0.686951050042
0.686583866
0.719434161814
0.773656023296
0.83843421287
0.907446535119
0.975759475205
1.04171206901
1.10350350897
1.16122898068
1.21421477131
1.26297230876
1.30720720673
1.34744449535
1.38366932635
1.41631320183
1.4455447032
1.47184146579
1.49549589478
1.51693931046
1.53661865553
1.55492372326
1.57229026526
1.58899073038
1.60540644255
1.62163549363
1.63788885564
1.65413210748
1.67048697257
1.68664954897
1.70272243206
1.71832113061
1.73341637712
1.74755738756
1.76075090498
1.77251800141
1.78291394472
1.79147350931
1.79832496337
1.80303258487
1.80583218901
1.80636739915
1.80505097818
1.80160865539
1.79655697557
1.78985569109
1.78202536623
1.77296546687
1.763094748
1.75254341334
1.74177212132
1.73105270767
1.72060240638
1.71070148878
1.70126983435
1.69222813396
1.68356669856
1.67740419421
1.66851686751
1.65329917843
1.63144668798
1.60360467158
1.57084492063
1.53422955887
1.49522251712
1.45500759866
1.41499674969
1.37620264322
1.33954844157
1.30553755141
1.27440289308
1.24603986949
1.21991321837
1.19532726199
1.17110329061
1.14624465363
1.119489402
1.08999620361
1.05683347439
1.01994348503
0.979506952173
0.935729619676
0.892122545438
0.849813467841
0.814261113968
0.787328659287
0.769317367238
0.760044201448
0.752416505936
0.746130108884
0.743666069837
0.743506224758
0.74843235529
0.765314705338
0.780769277393
0.771792436255
0.762924249925
0.776319139885
0.791828203724
0.836724581887
0.926133973393
0.992037999245
1.01102654485
0.998375267345
0.970061566046
0.935743104386
0.900429805042
0.866440691601
0.834604071897
0.805164838042
0.777911366316
0.752680902191
0.729048864839
0.706640227998
0.684955695665
0.663839807623
0.643191631172
0.623143910193
0.603603355475
0.584618483723
0.565853032003
0.546995411295
0.527263932855
0.506107384691
0.483545668058
0.460348167398
0.436608852199
0.412393681928
0.387594730722
0.36227775998
0.336434379396
0.310171230271
0.283401855345
0.255893317853
0.22724106846
0.19721834579
0.165807477276
0.133327635925
0.100150369432
0.0669771499354
0.0343640963582
0.00277786956346
-0.0276771748282
-0.0568733509119
-0.0846804733695
-0.110841604104
-0.135275478615
-0.157829824034
-0.178462644759
-0.197201718343
-0.214342542267
-0.230134948717
-0.244848455023
-0.258724004822
-0.272348148998
-0.286000477037
-0.300109614974
-0.315297884031
-0.332216402073
-0.3513954199
-0.373367471723
-0.398016110091
-0.424490952197
-0.450741054816
-0.473347114425
-0.487978231195
-0.491122567357
-0.482728828524
-0.465045062502
-0.447898043617
-0.448254267889
-0.485214422961
-0.556920035931
-0.605295967097
1.03282779415
0.957709842745
0.86067019035
0.765695705513
0.674496638723
0.609847620688
0.587466489206
0.60424529303
0.646598471188
0.702414045923
0.762084306896
0.821284030302
0.87682657353
0.928454302291
0.975297454737
1.01800019504
1.05620771542
1.09045903101
1.12053889715
1.14675503931
1.16895979036
1.18737877726
1.20205653798
1.21312427701
1.22083861272
1.22539766604
1.22712953076
1.22626476571
1.22318987935
1.21810505659
1.21131572025
1.20293644491
1.1932432593
1.18214534971
1.16979892434
1.15607298527
1.14100410219
1.12428561326
1.10599447667
1.08572368075
1.06352782692
1.03897040481
1.01214370015
0.982599740074
0.950493063946
0.915386466384
0.87753369686
0.836554625386
0.792791976802
0.745994493074
0.696586956316
0.644354272081
0.589819098605
0.532924611414
0.474004459892
0.413098296941
0.350537024756
0.286503489563
0.221241865144
0.155147908684
0.0888320719124
0.0235140493787
-0.0393189593785
-0.0976130878334
-0.145211845714
-0.180782925662
-0.205538467317
-0.221095518621
-0.229047951081
-0.230840777983
-0.227492540318
-0.219678496141
-0.207475791923
-0.190617866631
-0.168263383495
-0.139345811912
-0.102652016747
-0.0569261826448
-0.00126430131308
0.0648311682959
0.140985407193
0.226142029699
0.31814838153
0.414193574474
0.510847286584
0.604658201223
0.692206908873
0.771172239521
0.839468300765
0.900080075378
0.952567486587
0.997100873578
1.03260392719
1.05944902421
1.07733255921
1.08893591204
1.10201563959
1.11206964271
1.12651084817
1.13708628559
1.1177982413
1.06682943991
1.00218360526
0.941958553971
0.90885292106
0.927580348612
0.979209772155
1.01466365858
1.0225705298
1.01012386158
0.988221725445
0.963817627008
0.940438043481
0.919229607742
0.900259377937
0.883068178757
0.86711751216
0.851917819368
0.836958465107
0.821754233301
0.805889870586
0.789219210249
0.771794011894
0.753770831414
0.735302201925
0.716549446985
0.697467698487
0.677927833603
0.657740908011
0.637026069453
0.616487067945
0.59578263783
0.574501670779
0.552514284344
0.52968407669
0.506059689964
0.481709245917
0.456784416737
0.431296037981
0.405052814176
0.377690948821
0.348866906981
0.318264469981
0.285789626721
0.251612287633
0.216236460388
0.180150274541
0.143717155438
0.10722949152
0.0709755170779
0.0351656053049
1.32146451302e-05
-0.0343570162955
-0.0678895391186
-0.100643080343
-0.132488917853
-0.163319845739
-0.193250388921
-0.222417977551
-0.251033987368
-0.279194585291
-0.306972824225
-0.334417214194
-0.361674641665
-0.388918837391
-0.416304919632
-0.443894992385
-0.471277694551
-0.497254768277
-0.519484399249
-0.534273461416
-0.537272730793
-0.52504945536
-0.497117117577
-0.456349667739
-0.411473757837
-0.377787216164
-0.37082402912
-0.385745993748
-0.380649195062
0.895315960139
0.700215804451
0.620546542291
0.612226934586
0.58848002601
0.565526399232
0.565712244362
0.589635298372
0.627453250227
0.671669864198
0.716477395346
0.760205113359
0.801055167591
0.839417404057
0.874614451472
0.907274182558
0.936988863972
0.964208274099
0.988635489393
1.01051875058
1.02976813118
1.04646446753
1.06068431148
1.0725469071
1.08226296106
1.08995566404
1.09599650172
1.10054794893
1.10399141274
1.10648768755
1.10839063946
1.10979871387
1.11091074301
1.11178539359
1.11254716241
1.11304103
1.11337229049
1.11330999946
1.11286033288
1.11170242599
1.10986714665
1.10696241373
1.10304832763
1.09770502906
1.09103974595
1.08263985498
1.0726721336
1.06077767825
1.04724086802
1.03176638312
1.01470470039
0.99596024366
0.975879501006
0.954398990467
0.931834276389
0.90816131665
0.883666935433
0.858546365126
0.833221860699
0.808103190591
0.783474273887
0.75919286121
0.73433121996
0.70667718549
0.673667401383
0.635830999335
0.594419289775
0.550659539816
0.505472469072
0.459386838849
0.412625888702
0.365058970776
0.316535845988
0.266934908349
0.216429270309
0.165622245825
0.115764127594
0.0687785542911
0.0272486572087
-0.00562861109418
-0.0265096719303
-0.0320765521731
-0.0198476072564
0.0115990237125
0.0621777766427
0.130549986226
0.214091304799
0.308948411208
0.412831921549
0.520191733219
0.630147527843
0.739084170864
0.845033661257
0.946512650254
1.04516315171
1.14365597625
1.24333967485
1.31911498024
1.35480347168
1.32759200306
1.21922151742
1.07895289336
0.965696384174
0.896378412081
0.870734096203
0.876832027779
0.886992059748
0.880091528236
0.85788402791
0.82539386582
0.788031893167
0.749315121264
0.711388241735
0.675144207686
0.640884687364
0.608474890368
0.577863479513
0.548797971737
0.52113540231
0.494472384356
0.468659478975
0.443557177114
0.419393301468
0.396268747461
0.374486719107
0.354049746885
0.335047499065
0.317293054141
0.300765601918
0.285045935273
0.269223385819
0.252966036431
0.236236661557
0.218793749568
0.200694388771
0.181927926909
0.162717767124
0.143179579022
0.123470545587
0.103537960619
0.0832433098244
0.0622474728729
0.0403922375286
0.0175951170746
-0.0059520354623
-0.0302233581423
-0.0550057192069
-0.0801922824325
-0.10548449137
-0.130748809712
-0.155725702289
-0.180355036976
-0.204325090837
-0.227608134811
-0.250233703076
-0.272370793302
-0.293931638571
-0.314998557707
-0.335595854034
-0.356114680727
-0.376607578657
-0.397408479643
-0.418648804829
-0.440795680739
-0.464169824144
-0.489330969403
-0.516501237098
-0.545679387607
-0.575954206272
-0.605482412356
-0.631078453331
-0.649115492653
-0.656369899627
-0.651633028761
-0.636382859212
-0.616564707801
-0.601876759734
-0.599663662163
-0.600743944226
-0.580607796766
0.754397003241
0.354441866174
0.363219361266
0.50504769812
0.557573938249
0.567953776674
0.579635655498
0.601225324829
0.628649231785
0.659142585654
0.689871155856
0.7206072136
0.750025497446
0.778462751504
0.805040835562
0.830092753543
0.853001778719
0.873972680946
0.892634043666
0.909049145703
0.92301101651
0.934534011665
0.943623643935
0.950223778302
0.954547213373
0.956606871103
0.956701331489
0.954904297329
0.95158076406
0.946838405934
0.940999025691
0.934157653142
0.926619035473
0.918365605223
0.909611799783
0.900334523528
0.890657585042
0.88043624171
0.869825230877
0.858602660904
0.846910441917
0.834486360337
0.821493998317
0.807647278583
0.793139432479
0.777686369397
0.761531177536
0.744436094876
0.726676717727
0.708144962956
0.689187351995
0.669734674727
0.65016148083
0.630460861144
0.610858119615
0.591352840939
0.572187977048
0.553478040709
0.535384912846
0.517864763955
0.500790083239
0.483919822863
0.467366732038
0.451305898961
0.435522438813
0.419639200703
0.403461876229
0.386993352722
0.370350095017
0.353662253318
0.336945122406
0.319973469369
0.302233116647
0.282844160125
0.260803205357
0.234984390688
0.20444659718
0.168725123138
0.12813472009
0.0841065682107
0.0392549180265
-0.00254250917982
-0.0366353053581
-0.0580285925704
-0.0622605271894
-0.0460552908989
-0.00782917892926
0.0523417095534
0.133073129275
0.233510624315
0.345399674068
0.469986646887
0.604260145581
0.747575889188
0.891838124417
1.02036080474
1.11374347763
1.14701364971
1.10060867321
0.983226101176
0.841788258641
0.739305611581
0.697507564986
0.704637336807
0.739705614052
0.780157716891
0.807129546211
0.814680748466
0.809312149074
0.797257464274
0.782755924868
0.76818476566
0.754830270792
0.743282596909
0.733561664488
0.725500352966
0.718818059243
0.713146814074
0.708009108521
0.702854341535
0.697227315607
0.690882544528
0.683742268599
0.675779061249
0.666940867921
0.657127376662
0.646216464457
0.634020999036
0.620364789375
0.605057224471
0.588530767048
0.571089926013
0.552779298443
0.533455304526
0.513063201097
0.491558407561
0.469013437994
0.44548128486
0.420994925953
0.395416255309
0.368464690476
0.339842176256
0.309535056468
0.277734662086
0.244720162496
0.210705707747
0.17592529607
0.140595481897
0.104994081215
0.0693534793419
0.0339280161305
-0.00109988789995
-0.0354888188574
-0.0690344442907
-0.101498280726
-0.132875215434
-0.163163368355
-0.192397120283
-0.220546031795
-0.247744349144
-0.274038754356
-0.299590514819
-0.324501810307
-0.349045875976
-0.373472974055
-0.39814404506
-0.423205830208
-0.448565060066
-0.473445616378
-0.496331804782
-0.514858009727
-0.52646873772
-0.529125574171
-0.522545799312
-0.509185476254
-0.494727803412
-0.486939467025
-0.490069261931
-0.496408783367
-0.492452469112
0.609897857566
-0.0494338380396
0.149715072638
0.463417282411
0.55757273696
0.578622536224
0.591436245515
0.608759881695
0.629275367327
0.651869124453
0.674718142707
0.697924762109
0.720293835524
0.742088507022
0.762424083491
0.781552804548
0.798879665478
0.814595365086
0.828324219183
0.840145230572
0.849911374109
0.857577001735
0.86315611392
0.866606685581
0.868064889441
0.867478781757
0.865122269295
0.860977350164
0.855363251411
0.848287036622
0.84008458186
0.830755997144
0.820559793784
0.809505829689
0.797822437663
0.78541461284
0.772510708248
0.758994891677
0.745047431035
0.730513109559
0.715590696012
0.700086272763
0.684207344941
0.667737076501
0.650886283917
0.63344058226
0.615610243221
0.597222136137
0.578538454011
0.559445529523
0.540235691625
0.520962068961
0.501901446968
0.483066116049
0.464585360857
0.446338303099
0.428503500726
0.411154620287
0.394450438253
0.378352533995
0.362722202659
0.347165936815
0.331395693641
0.315903260364
0.30101533348
0.286710351861
0.272893510551
0.259575529454
0.246821421125
0.234812105747
0.223737207584
0.213727709644
0.204755687146
0.196514942066
0.188345846273
0.179211390224
0.167805271094
0.15256367941
0.13208431727
0.105489410129
0.0728596681186
0.0357280577767
-0.00282510235884
-0.038239056016
-0.0653435704808
-0.078885759025
-0.0742500219773
-0.0497817940569
-0.00284520136342
0.0652332694486
0.150407693016
0.252980054707
0.362715586876
0.473488811376
0.573532330613
0.640601822696
0.652488331685
0.609166571067
0.530518933198
0.448136063971
0.402247065197
0.420148574112
0.487573071193
0.577219591313
0.666609106892
0.739604581808
0.788409031059
0.813755767909
0.822575496316
0.821089230004
0.813802035816
0.803283420745
0.791072925434
0.777987262732
0.764373880309
0.750484262629
0.736302279238
0.721845025613
0.706803120808
0.691008375122
0.674233438243
0.656618337701
0.638269154454
0.619494383781
0.600415917039
0.58129584701
0.562175573567
0.543247331701
0.524481246696
0.506010182162
0.487601352912
0.468907002544
0.449646112318
0.42977322237
0.409102208824
0.387696732057
0.36557393416
0.342899742142
0.319683294271
0.295835117466
0.271055499042
0.245117921593
0.217913307975
0.189627643284
0.160445164461
0.130645965809
0.100410252226
0.0700103060352
0.039623454397
0.00950060161482
-0.020245603714
-0.0494392189018
-0.078089215961
-0.106131836096
-0.133535826632
-0.160273655136
-0.186435663657
-0.212054058602
-0.237235282514
-0.261971366312
-0.286350242793
-0.310359921361
-0.334108385545
-0.357641719975
-0.381132262888
-0.404630406185
-0.428121249633
-0.451184711011
-0.472936793098
-0.491784649854
-0.505650101481
-0.512324451692
-0.510211497612
-0.499274160412
-0.481860789488
-0.462915799952
-0.44818958346
-0.439736630487
-0.431622171277
-0.41563721118
0.450302816643
-0.45935238195
0.0173308027687
0.462226187544
0.546454066413
0.567826964039
0.582800764178
0.602593075148
0.624687185322
0.647156573333
0.668571614782
0.689192496433
0.708107506846
0.725703021774
0.74134777927
0.75540089641
0.767482103958
0.777862628396
0.786362706757
0.793131671371
0.798116474539
0.801380554807
0.802993635083
0.802907817894
0.801296177425
0.798085517068
0.793493768515
0.787445655374
0.780205900258
0.771707418711
0.762210323962
0.751648348487
0.740297645296
0.728051918147
0.715160587478
0.701543398477
0.68742192743
0.672684366333
0.657580182945
0.641983034108
0.626138168862
0.609906262942
0.593525669778
0.576841646172
0.5600746453
0.543066832184
0.526022927305
0.508811080809
0.491619999966
0.474424433421
0.457450701375
0.440771359776
0.424672566417
0.409188314722
0.394272192638
0.379850069526
0.366208525918
0.353490155691
0.34206650501
0.33220961512
0.323666454005
0.315796338783
0.307719818032
0.29857436532
0.28797844064
0.2758010922
0.262171708241
0.24745438229
0.232144217833
0.216808482484
0.201939280633
0.188010742205
0.175317004922
0.163976092978
0.153877905882
0.144634613222
0.135498826159
0.125322795876
0.112654592496
0.0960172812874
0.0742537765028
0.0470356941793
0.0152996137408
-0.0184123556731
-0.0505042004979
-0.0771294676609
-0.0929940068414
-0.0953213359511
-0.0831845818875
-0.0570773930124
-0.0216631493412
0.0243375554788
0.0713719042904
0.112138649976
0.140471880133
0.145443726739
0.123381617557
0.0889402856503
0.0660288132337
0.0805750571779
0.14838610896
0.263148594045
0.397172092772
0.525724694504
0.634192784148
0.715780217211
0.769826067565
0.800028963072
0.812534018913
0.813038784567
0.806084419009
0.794705847131
0.780931126943
0.765944530673
0.750510372133
0.735084404121
0.719877225993
0.704848873379
0.689773610077
0.674377193592
0.658520987085
0.642226093485
0.62559681322
0.608750158642
0.591767304571
0.574716404803
0.55761804551
0.540501486615
0.523339321612
0.506112034525
0.488642929557
0.470781787461
0.452340634141
0.43319652396
0.413206418927
0.392360144382
0.370680644507
0.348273606201
0.325159355199
0.301279440549
0.276423452661
0.250406855768
0.223149580021
0.194767807084
0.165431787243
0.135380731575
0.104817289129
0.0739897781721
0.0431012592746
0.0123741452432
-0.0180403623037
-0.0479575422426
-0.0772993752512
-0.105999181285
-0.134047007068
-0.161452161574
-0.188238173547
-0.214412161535
-0.240042796953
-0.26514232344
-0.289767447214
-0.313925044473
-0.337690370448
-0.361109305492
-0.384291101026
-0.407240000734
-0.429853084353
-0.451658790708
-0.471765777113
-0.488720861942
-0.500719936563
-0.505909515151
-0.502996633734
-0.492052258346
-0.475037148051
-0.455855383688
-0.438408134294
-0.423164162627
-0.40527350225
-0.378915397475
0.273797486726
-0.81897314629
-0.0454468199446