/*--------------------------------*- C++ -*----------------------------------*\
| =========                 |                                                 |
| \\      /  F ield         | OpenFOAM: The Open Source CFD Toolbox           |
|  \\    /   O peration     | Version:  v1806                                 |
|   \\  /    A nd           | Web:      www.OpenFOAM.com                      |
|    \\/     M anipulation  |                                                 |
\*---------------------------------------------------------------------------*/
FoamFile
{
    version     2.0;
    format      ascii;
    class       surfaceScalarField;
    location    "11";
    object      phi;
}
// * * * * * * * * * * * * * * * * * * * * * * * * * * * * * * * * * * * * * //

dimensions      [0 3 -1 0 0 0 0];
oriented        oriented;


internalField   nonuniform List<scalar> 
24170
(
3.07354673563e-06
1.14860283581e-07
2.98677086829e-06
8.67768617533e-08
2.90692637748e-06
7.98459937082e-08
2.83021463189e-06
7.67134557571e-08
2.75675008755e-06
7.34661152078e-08
2.6866371629e-06
7.01144997598e-08
2.61976395623e-06
6.68747250519e-08
2.55593899099e-06
6.38264424575e-08
2.494948343e-06
6.09920974349e-08
2.43656703331e-06
5.83826884121e-08
2.38055732338e-06
5.60110723495e-08
2.32666259546e-06
5.38960046882e-08
2.27459749396e-06
5.20663523421e-08
2.22402778933e-06
5.0570878218e-08
2.17452572897e-06
4.9503166378e-08
2.12544339217e-06
4.90832786816e-08
2.07535299089e-06
5.00911800915e-08
5.43695341565e-08
2.02098432111e-06
3.4316719681e-06
1.00438012528e-07
3.42677280969e-06
9.16768295922e-08
3.42006291519e-06
8.65571531147e-08
3.41049059132e-06
8.62872318288e-08
3.39847299474e-06
8.54850601537e-08
3.38464384886e-06
8.394498667e-08
3.36939544878e-06
8.21244073357e-08
3.35297211798e-06
8.02510103647e-08
3.33554288124e-06
7.84225255473e-08
3.31722410227e-06
7.67025926896e-08
3.29808284589e-06
7.51534080247e-08
3.27813349705e-06
7.38463578077e-08
3.25732938234e-06
7.28714152995e-08
3.23554404919e-06
7.23570892052e-08
3.21253018244e-06
7.25178243731e-08
3.18784531321e-06
7.37688095492e-08
3.16090855876e-06
7.70284332161e-08
8.30396913875e-08
3.13223910742e-06
3.68010315733e-06
8.28526068473e-08
3.6846619195e-06
8.71190888039e-08
3.68755644658e-06
8.36640017657e-08
3.68942793017e-06
8.44172363975e-08
3.69005811466e-06
8.48562449643e-08
3.68963946305e-06
8.43649749388e-08
3.68831427889e-06
8.34508633008e-08
3.68614055596e-06
8.24259544953e-08
3.68313806478e-06
8.14261920178e-08
3.67930710482e-06
8.05346679188e-08
3.67462985436e-06
7.98317357241e-08
3.66906574786e-06
7.9411480343e-08
3.66254400306e-06
7.93941358389e-08
3.65495322479e-06
7.99487910541e-08
3.6461322331e-06
8.13396828278e-08
3.63589605428e-06
8.40057666207e-08
3.62423233625e-06
8.86928767206e-08
9.55301747592e-08
3.61174277215e-06
3.93979603836e-06
6.84455139211e-08
3.94602660559e-06
8.08893461906e-08
3.94977588242e-06
7.99158941915e-08
3.95287744971e-06
8.13169767322e-08
3.95517163835e-06
8.25633026948e-08
3.95673776035e-06
8.28000809291e-08
3.95769443964e-06
8.24953633868e-08
3.95809104963e-06
8.20304828739e-08
3.95793163573e-06
8.15866977201e-08
3.95719774297e-06
8.12696002318e-08
3.95585561135e-06
8.11748579229e-08
3.95385643674e-06
8.14115890185e-08
3.95113480072e-06
8.21166554761e-08
3.94760908364e-06
8.34753428194e-08
3.94319374103e-06
8.57558035276e-08
3.93785055248e-06
8.9349670636e-08
3.93174093718e-06
9.4803146772e-08
1.02207041798e-07
3.92506483267e-06
4.21862512126e-06
5.69483858984e-08
4.22533426394e-06
7.41812800779e-08
4.22922178373e-06
7.60296998928e-08
4.23241382603e-06
7.81263261029e-08
4.23493891447e-06
8.00395180509e-08
4.23680013317e-06
8.09401249685e-08
4.23809039328e-06
8.12063080965e-08
4.23886466641e-06
8.12573691667e-08
4.23913464523e-06
8.13178325029e-08
4.23888822661e-06
8.15170859664e-08
4.23809950286e-06
8.19646074974e-08
4.23673216201e-06
8.27799120376e-08
4.2347420551e-06
8.41077062516e-08
4.23208429784e-06
8.61340083557e-08
4.22873427281e-06
8.91066972209e-08
4.22473687457e-06
9.33478793909e-08
4.22030229558e-06
9.92385336371e-08
1.06890974454e-07
4.21561929356e-06
4.51823600191e-06
4.78001392797e-08
4.5249641577e-06
6.74539945472e-08
4.52901623269e-06
7.19787459374e-08
4.53225507803e-06
7.48886883088e-08
4.53489171344e-06
7.74040590225e-08
4.53689019887e-06
7.894279092e-08
4.53830730132e-06
7.97903195239e-08
4.53919593895e-06
8.03698097461e-08
4.53957486358e-06
8.09399457012e-08
4.53943987062e-06
8.16530765554e-08
4.53877460183e-06
8.26308323821e-08
4.53755649896e-06
8.39989281955e-08
4.53576262892e-06
8.59024513667e-08
4.5333807786e-06
8.85167033549e-08
4.53043279051e-06
9.20554978061e-08
4.52701603696e-06
9.67654264557e-08
4.52336429615e-06
1.02891031857e-07
1.10488551331e-07
4.51976749289e-06
4.84000122758e-06
4.05197948671e-08
4.84645782201e-06
6.09985312156e-08
4.85065332691e-06
6.77845247652e-08
4.8539435464e-06
7.15997760683e-08
4.85666023299e-06
7.46886174643e-08
4.85876960062e-06
7.68346205595e-08
4.86029691138e-06
7.82641559369e-08
4.86128787516e-06
7.9379951839e-08
4.86176612987e-06
8.04627542054e-08
4.86173490044e-06
8.16853325851e-08
4.86118722788e-06
8.31794911603e-08
4.86011410031e-06
8.50730092786e-08
4.8585128307e-06
8.75046421991e-08
4.85640009979e-06
9.06303315463e-08
4.85383390237e-06
9.46225671103e-08
4.85094492429e-06
9.96552285631e-08
4.84797034052e-06
1.05866421765e-07
1.13243766032e-07
4.84521615911e-06
5.1853961929e-06
3.47052748289e-08
5.1914057822e-06
5.498988959e-08
5.19568322255e-06
6.35081768419e-08
5.1990362387e-06
6.82478971528e-08
5.20183163874e-06
7.18943300963e-08
5.20405857919e-06
7.46087666244e-08
5.2057186475e-06
7.6605143073e-08
5.20684552404e-06
7.82540999518e-08
5.20746426711e-06
7.98450059937e-08
5.20758480709e-06
8.1565753227e-08
5.20721013326e-06
8.35550994447e-08
5.20634553103e-06
8.59385097563e-08
5.20500835851e-06
8.88426897091e-08
5.20324112292e-06
9.23984172168e-08
5.2011298194e-06
9.67347043e-08
5.19882538876e-06
1.01960466863e-07
5.19656063656e-06
1.08132037701e-07
1.15175858791e-07
5.19462939036e-06
5.55601240362e-06
3.00313046399e-08
5.56149055035e-06
4.95128957461e-08
5.56577496814e-06
5.92249920129e-08
5.56919435229e-06
6.48297397903e-08
5.57207326781e-06
6.9016589485e-08
5.57442496994e-06
7.22581921581e-08
5.57623669751e-06
7.47944995101e-08
5.57752899764e-06
7.69628460995e-08
5.57832635359e-06
7.9048660223e-08
5.57864549994e-06
8.1247586701e-08
5.57850047314e-06
8.3701069022e-08
5.57791162086e-06
8.65282801173e-08
5.57691547407e-06
8.9839727768e-08
5.57557640438e-06
9.37383610352e-08
5.57400019843e-06
9.83117589368e-08
5.57234629838e-06
1.03615175788e-07
5.57083134481e-06
1.09647817933e-07
1.16302821153e-07
5.56970540906e-06
5.95357161181e-06
2.62365845181e-08
5.95850109087e-06
4.45843874412e-08
5.96272302859e-06
5.50040970956e-08
5.96620364358e-06
6.13501769608e-08
5.96917516885e-06
6.6046097293e-08
5.97166403715e-06
6.97703311218e-08
5.97365107713e-06
7.28084419641e-08
5.97514540165e-06
7.54694811125e-08
5.97616967797e-06
7.80253198149e-08
5.97674683427e-06
8.06713344454e-08
5.97690181278e-06
8.35469846703e-08
5.97666919154e-06
8.6761776872e-08
5.97610207463e-06
9.04077008486e-08
5.97528139215e-06
9.45598868719e-08
5.9743246382e-06
9.9269319091e-08
5.97339099791e-06
1.04549605457e-07
5.97267797305e-06
1.1036171074e-07
1.16580823607e-07
5.97240082254e-06
6.37993334791e-06
2.3116486162e-08
6.38434258633e-06
4.01763740547e-08
6.38845106466e-06
5.08968660023e-08
6.39198443642e-06
5.78180276466e-08
6.39506196382e-06
6.29697408229e-08
6.39770734985e-06
6.71260717562e-08
6.39989913003e-06
7.0617747015e-08
6.40163768043e-06
7.37319806924e-08
6.40294309329e-06
7.67209168786e-08
6.40384325402e-06
7.97721626125e-08
6.40437283681e-06
8.30183632848e-08
6.40457880243e-06
8.65567506377e-08
6.40452738391e-06
9.04600465905e-08
6.40431056496e-06
9.47775998245e-08
6.40405048818e-06
9.95302673936e-08
6.40389925978e-06
1.04701656868e-07
6.40403107576e-06
1.1023072518e-07
1.15992734189e-07
6.40462017569e-06
5.74307708266e-06
2.08747717003e-08
5.74644285806e-06
3.68117425492e-08
5.74980462249e-06
4.7536265546e-08
5.75282595852e-06
5.47978396681e-08
5.75552188139e-06
6.02749347791e-08
5.75789883717e-06
6.47501949421e-08
5.75993726185e-06
6.85803705151e-08
5.76163262589e-06
7.20376282237e-08
5.76299958771e-06
7.53549482657e-08
5.76406426648e-06
7.87084362761e-08
5.76486195656e-06
8.22216117722e-08
5.76543976103e-06
8.59799131715e-08
5.76586059668e-06
9.00401287152e-08
5.76620652416e-06
9.44326160673e-08
5.76657975398e-06
9.91578795111e-08
5.76710028034e-06
1.04181989534e-07
5.76789885442e-06
1.09433059954e-07
1.14787614927e-07
5.76910488649e-06
7.00037127259e-06
1.86600332114e-08
7.00386573049e-06
3.33184025922e-08
7.00758070781e-06
4.3822398687e-08
7.01107528719e-06
5.13043439477e-08
7.01428296715e-06
5.70683029985e-08
7.01718740103e-06
6.18467771147e-08
7.01976275331e-06
6.60059984208e-08
7.02199994216e-06
6.98014016713e-08
7.02391350171e-06
7.34423072735e-08
7.025535293e-06
7.70875512627e-08
7.02691087139e-06
8.08469908881e-08
7.02810030762e-06
8.4791385931e-08
7.02918067545e-06
8.89607383125e-08
7.03024725287e-06
9.33669131509e-08
7.03141260918e-06
9.79934761629e-08
7.0328016406e-06
1.02793780651e-07
7.03454341051e-06
1.07692303411e-07
1.12575456391e-07
7.03675636663e-06
8.53302619297e-06
1.64818670881e-08
8.53662544493e-06
2.97202354101e-08
8.54069636803e-06
3.97525529035e-08
8.54472674151e-06
4.72750364437e-08
8.54856068495e-06
5.32353849284e-08
8.55214490729e-06
5.82635596761e-08
8.55544219479e-06
6.27096862246e-08
8.55843753502e-06
6.68070041906e-08
8.56114409365e-06
7.07366787116e-08
8.56359832611e-06
7.46342743032e-08
8.56585505735e-06
7.85911897663e-08
8.56798610786e-06
8.26613150131e-08
8.57008007809e-06
8.68676995003e-08
8.57224151745e-06
9.12064540068e-08
8.57458728302e-06
9.56485745003e-08
8.5772407119e-06
1.00141354494e-07
8.58032219226e-06
1.04611622016e-07
1.08960916411e-07
8.58393784573e-06
1.04013838094e-05
1.43180919305e-08
1.0405108832e-05
2.59963002657e-08
1.04095735522e-05
3.52889112709e-08
1.04142355615e-05
4.26140723271e-08
1.04188570756e-05
4.86149160161e-08
1.04233367957e-05
5.37848461233e-08
1.04276187922e-05
5.8428685462e-08
1.04316793494e-05
6.27474304438e-08
1.04355279818e-05
6.68890225959e-08
1.0439202749e-05
7.09604873897e-08
1.04427642458e-05
7.50306662498e-08
1.04462914816e-05
7.913508492e-08
1.04498788657e-05
8.32812374287e-08
1.04536328575e-05
8.74534523667e-08
1.04576665324e-05
9.16157654502e-08
1.04620930239e-05
9.57158206954e-08
1.04670170732e-05
9.96884403954e-08
1.03453354567e-07
1.04725253621e-05
1.26790111905e-05
1.20978931836e-08
1.26829628912e-05
2.20456953046e-08
1.26879450241e-05
3.03078581905e-08
1.26934178746e-05
3.71422900036e-08
1.26990795074e-05
4.29543207849e-08
1.27047759801e-05
4.8089405793e-08
1.2710424365e-05
5.27813253129e-08
1.27159870169e-05
5.71857824408e-08
1.27214652476e-05
6.14118161836e-08
1.27268929795e-05
6.55337394402e-08
1.2732329447e-05
6.95952463469e-08
1.27378522794e-05
7.36131470556e-08
1.27435524209e-05
7.7582160354e-08
1.27495276365e-05
8.14790289765e-08
1.27558775704e-05
8.52669215554e-08
1.27626953266e-05
8.88986998444e-08
1.2770063077e-05
9.23218205846e-08
9.54753200567e-08
1.27780414831e-05
1.54556001306e-05
9.67885106191e-09
1.54600079702e-05
1.76389860934e-08
1.54657869622e-05
2.45299522694e-08
1.54724081171e-05
3.05221977053e-08
1.5479521352e-05
3.58421296397e-08
1.54869208091e-05
4.069098733e-08
1.54944891363e-05
4.52140213851e-08
1.55021669437e-05
4.95090102997e-08
1.55099393689e-05
5.36404048521e-08
1.5517826967e-05
5.76471777435e-08
1.55258763511e-05
6.15468364291e-08
1.55341519066e-05
6.53386244956e-08
1.55427277618e-05
6.90072275232e-08
1.55516815277e-05
7.2526303247e-08
1.5561087182e-05
7.5862107963e-08
1.55710102333e-05
7.89766688998e-08
1.55815014987e-05
8.18312401578e-08
8.43842658001e-08
1.55925935166e-05
1.8840508212e-05
6.80916513447e-09
1.88458062132e-05
1.23421071101e-08
1.88529195746e-05
1.74176688864e-08
1.88612957962e-05
2.21470489776e-08
1.88705331077e-05
2.66058575771e-08
1.88803724661e-05
3.08526860036e-08
1.88906549886e-05
3.4932525766e-08
1.89012896042e-05
3.88754517351e-08
1.89122344775e-05
4.26965479358e-08
1.89234849146e-05
4.63978043283e-08
1.89350621075e-05
4.99706448931e-08
1.89470036262e-05
5.33981875206e-08
1.89593543658e-05
5.66574662661e-08
1.89721602649e-05
5.97215198749e-08
1.89854617135e-05
6.25616042221e-08
1.89992903307e-05
6.5149205517e-08
1.90136643138e-05
6.7458107298e-08
6.94625100566e-08
1.90285872507e-05
2.29671482316e-05
2.99936741309e-09
2.29741589939e-05
5.33252784854e-09
2.2983606408e-05
7.97148958393e-09
2.29948093755e-05
1.09452280536e-08
2.30072764019e-05
1.41400238313e-08
2.30206854851e-05
1.74447412608e-08
2.30348281175e-05
2.07910730287e-08
2.304957002e-05
2.41346935003e-08
2.30648306385e-05
2.74371030701e-08
2.30805680925e-05
3.06614993902e-08
2.30967667209e-05
3.37731800367e-08
2.31134256061e-05
3.67404598451e-08
2.3130550158e-05
3.95340618201e-08
2.31481453827e-05
4.21274763868e-08
2.3166211274e-05
4.44968175737e-08
2.31847397401e-05
4.66219441223e-08
2.32037121604e-05
4.84867047872e-08
5.00779006981e-08
2.32230979045e-05
1.68140611925e-05
-3.55902639332e-10
1.6820100928e-05
-7.0615653078e-10
1.68280614427e-05
1.19379337346e-11
1.68373308339e-05
1.6768216041e-09
1.68475330047e-05
3.93885473905e-09
1.68584430093e-05
6.53566143581e-09
1.68699105725e-05
9.32455348294e-09
1.68818308467e-05
1.22152848159e-08
1.68941355308e-05
1.51335008101e-08
1.69067814123e-05
1.80164403761e-08
1.69197419944e-05
2.08137162686e-08
1.69329979738e-05
2.34852789047e-08
1.69465341995e-05
2.59990015309e-08
1.69603340754e-05
2.83284228151e-08
1.69743797962e-05
3.04523121028e-08
1.69886485313e-05
3.23541355753e-08
1.70031138787e-05
3.40225832713e-08
3.54495654572e-08
1.70177433177e-05
1.46381551372e-05
-3.94137367764e-09
1.46444564765e-05
-7.00656905849e-09
1.46524583265e-05
-7.9888872204e-09
1.46614935904e-05
-7.35750850642e-09
1.46712531724e-05
-5.81982335056e-09
1.46815744661e-05
-3.78473839817e-09
1.46923389729e-05
-1.4391494602e-09
1.4703460927e-05
1.094292079e-09
1.47148840209e-05
3.7111427166e-09
1.4726573013e-05
6.32844068204e-09
1.47385021262e-05
8.88531735214e-09
1.47506502221e-05
1.1338220352e-08
1.47629964991e-05
1.36534479752e-08
1.47755207076e-05
1.58053142337e-08
1.47882004151e-05
1.77734232601e-08
1.48010132927e-05
1.95424212116e-08
1.48139353382e-05
2.11015127242e-08
2.24435876603e-08
1.48269424951e-05
1.27441510841e-05
-7.95955698797e-09
1.27509089125e-05
-1.37633920194e-08
1.27589978219e-05
-1.60769266221e-08
1.27677533395e-05
-1.61120715657e-08
1.27770011934e-05
-1.50668201208e-08
1.27866531715e-05
-1.34358103062e-08
1.27966199288e-05
-1.14050592685e-08
1.28068357346e-05
-9.12076206853e-09
1.28172620831e-05
-6.71438403964e-09
1.28278749908e-05
-4.28376098678e-09
1.28386550804e-05
-1.89397804638e-09
1.28495835487e-05
4.10515961098e-10
1.28606401306e-05
2.59766642427e-09
1.28718031667e-05
4.64313818776e-09
1.28830494857e-05
6.52797158739e-09
1.28943544459e-05
8.23841800061e-09
1.29056910655e-05
9.76584647867e-09
1.11059461896e-08
1.29170296655e-05
1.10956497023e-05
-1.267918296e-08
1.11030310606e-05
-2.1143806015e-08
1.11111595511e-05
-2.42043887539e-08
1.11195428906e-05
-2.44944636393e-08
1.11282126323e-05
-2.37356084181e-08
1.11371427422e-05
-2.23651389584e-08
1.11462681472e-05
-2.05295921423e-08
1.1155551077e-05
-1.84028623617e-08
1.11649771707e-05
-1.6139734096e-08
1.11745365612e-05
-1.38423910028e-08
1.11842161001e-05
-1.15727427747e-08
1.1193998291e-05
-9.37102257208e-09
1.12038629838e-05
-7.26621927453e-09
1.12137885267e-05
-5.28177361789e-09
1.12237539661e-05
-3.43651800455e-09
1.12337396117e-05
-1.74649850011e-09
1.12437320786e-05
-2.25637694538e-10
1.11369618941e-09
1.12537251206e-05
9.66101485369e-06
-1.84785597906e-08
9.66912308909e-06
-2.92510677867e-08
9.67714852468e-06
-3.22289150428e-08
9.68505719832e-06
-3.24021463198e-08
9.69309933253e-06
-3.17768412236e-08
9.7012671817e-06
-3.05319822133e-08
9.70951397692e-06
-2.87754943173e-08
9.71783375089e-06
-2.67218090549e-08
9.72623581513e-06
-2.4540983977e-08
9.73472403276e-06
-2.2329884877e-08
9.74329360741e-06
-2.01415723392e-08
9.7519329076e-06
-1.80096144919e-08
9.76062579078e-06
-1.59584027174e-08
9.76935207938e-06
-1.40072866772e-08
9.77808846931e-06
-1.21721878331e-08
9.78680999706e-06
-1.04672146922e-08
9.7954912428e-06
-8.90608602038e-09
-7.50279781022e-09
9.80410852136e-06
8.4127547673e-06
-2.58798388445e-08
8.42154611631e-06
-3.804138684e-08
8.42925046036e-06
-3.99322048896e-08
8.43662105094e-06
-3.97717521766e-08
8.44404088625e-06
-3.91956829544e-08
8.45148022383e-06
-3.79705040719e-08
8.45891831319e-06
-3.62126051952e-08
8.46637732258e-06
-3.41799078262e-08
8.47387855079e-06
-3.20413934591e-08
8.48143008943e-06
-2.98805925727e-08
8.489030122e-06
-2.77408491797e-08
8.49667069352e-06
-2.56494239587e-08
8.50433906258e-06
-2.36261198143e-08
8.51201804969e-06
-2.16855247253e-08
8.51968610102e-06
-1.98394881864e-08
8.52731994494e-06
-1.81002865058e-08
8.53490217812e-06
-1.64876518595e-08
-1.50376328007e-08
8.54243775666e-06
7.32694892427e-06
-3.55434747632e-08
7.33613121226e-06
-4.72226723173e-08
7.34327327809e-06
-4.70733565201e-08
7.35003821381e-06
-4.65356087139e-08
7.35675669357e-06
-4.59132035256e-08
7.36339040126e-06
-4.46032173505e-08
7.36997520224e-06
-4.27964594578e-08
7.37656349356e-06
-4.0767299664e-08
7.38318325235e-06
-3.86603156149e-08
7.38984248146e-06
-3.65390993441e-08
7.39653917674e-06
-3.44367266823e-08
7.40326579533e-06
-3.23753351172e-08
7.41001059788e-06
-3.03701475596e-08
7.41675678682e-06
-2.84309680503e-08
7.42348043996e-06
-2.65624003244e-08
7.43014783022e-06
-2.47669729767e-08
7.43671537669e-06
-2.3054583411e-08
-2.14632809089e-08
7.44314162155e-06
6.38284453929e-06
-4.83210909332e-08
6.39183651491e-06
-5.6213694546e-08
6.39840613063e-06
-5.36420186293e-08
6.40470807178e-06
-5.28366852387e-08
6.41080978362e-06
-5.20139024363e-08
6.4167106824e-06
-5.0503337311e-08
6.42251104065e-06
-4.85958968692e-08
6.42828441473e-06
-4.65398140331e-08
6.43406452438e-06
-4.44396661338e-08
6.43986349862e-06
-4.23373058574e-08
6.44568345969e-06
-4.02560598396e-08
6.45152103389e-06
-3.8212122869e-08
6.45736825893e-06
-3.62167241381e-08
6.46321250344e-06
-3.42744940742e-08
6.46903271456e-06
-3.23819205191e-08
6.4747921908e-06
-3.05258346047e-08
6.48043050343e-06
-2.86922948792e-08
-2.68985581583e-08
6.48586619284e-06
5.56199561715e-06
-6.48511810893e-08
5.56948397593e-06
-6.37010375818e-08
5.57522203244e-06
-5.9379208464e-08
5.58073918772e-06
-5.83526995861e-08
5.58584240084e-06
-5.71159362607e-08
5.59062889234e-06
-5.5288901611e-08
5.59523178328e-06
-5.31978309483e-08
5.59972194516e-06
-5.10290820766e-08
5.604133314e-06
-4.88502197478e-08
5.60848486013e-06
-4.6688239506e-08
5.61278889215e-06
-4.4559274822e-08
5.61705289117e-06
-4.24752962112e-08
5.62128074545e-06
-4.04438158925e-08
5.62547290051e-06
-3.84659209743e-08
5.62962306021e-06
-3.65313858865e-08
5.63370418583e-06
-3.46063167164e-08
5.63762478041e-06
-3.26124744447e-08
-3.03333820694e-08
5.64106021554e-06
4.84603083613e-06
-8.32736328709e-08
4.8476254266e-06
-6.52945186406e-08
4.84827038455e-06
-6.00231029729e-08
4.8476216995e-06
-5.77026840867e-08
4.84576261645e-06
-5.52555034275e-08
4.84309868192e-06
-5.26238770358e-08
4.83989878182e-06
-4.99968360011e-08
4.83632467783e-06
-4.74539450257e-08
4.83249113e-06
-4.50157818289e-08
4.82848952324e-06
-4.26858130957e-08
4.82439481553e-06
-4.0463592611e-08
4.82026792093e-06
-3.83474071543e-08
4.81615864577e-06
-3.63336415206e-08
4.81210942125e-06
-3.44158398283e-08
4.80816028086e-06
-3.25814324925e-08
4.80435141034e-06
-3.07967779274e-08
4.80071391547e-06
-2.89743169977e-08
-2.6313372494e-08
4.79669449886e-06
4.11940268408e-06
4.05410824981e-06
3.99408526326e-06
3.93638271173e-06
3.88112732083e-06
3.82850356705e-06
3.77850685746e-06
3.73105303252e-06
3.68603736289e-06
3.64335169611e-06
3.60288826917e-06
3.56454102159e-06
3.52820754287e-06
3.49379187002e-06
3.46121059198e-06
3.43041396255e-06
3.40143979877e-06
3.37512662172e-06
5.59906141193e-08
-5.59728196254e-08
8.68218000383e-08
-3.0814929223e-08
8.11189778891e-08
5.71992631616e-09
4.01696126872e-08
4.09655394266e-08
-4.35483712075e-08
8.37328237336e-08
-1.56903328635e-07
1.13364491409e-07
-2.82419969522e-07
1.25524342888e-07
-4.17188378369e-07
1.34774235735e-07
-5.59670869733e-07
1.42487973345e-07
-7.08560738718e-07
1.48894725427e-07
-8.62719631178e-07
1.54163487933e-07
-1.021161524e-06
1.58446323674e-07
-1.18303311704e-06
1.6187559775e-07
-1.34759515218e-06
1.64566202968e-07
-1.51421041198e-06
1.66618779544e-07
-1.68232935256e-06
1.68122897084e-07
-1.85148556486e-06
1.69159239153e-07
-2.02128345111e-06
1.69801653748e-07
-2.19139884913e-06
1.70118140693e-07
-2.36156743004e-06
1.70172129581e-07
-2.53158761923e-06
1.70022641026e-07
-2.70130906779e-06
1.69724872144e-07
-2.87063643308e-06
1.69329708748e-07
-3.03951694934e-06
1.68883885285e-07
-3.20794339564e-06
1.68428883894e-07
-3.37594082988e-06
1.68000764624e-07
-3.54356724492e-06
1.67628867647e-07
-3.71089942014e-06
1.67335506435e-07
-3.87803152118e-06
1.67134687731e-07
-4.04506018659e-06
1.67032012072e-07
-4.21208133787e-06
1.67023756686e-07
-4.37917520815e-06
1.67097229811e-07
-4.54640281989e-06
1.67230319156e-07
-4.71379185908e-06
1.67392421359e-07
-4.88133371499e-06
1.67544575805e-07
-5.04897118298e-06
1.67640917215e-07
-5.21659756469e-06
1.6762921696e-07
-5.38404675376e-06
1.67452772528e-07
-5.55109498169e-06
1.67051195764e-07
-5.71745384411e-06
1.66362564617e-07
-5.88277518668e-06
1.65324377602e-07
-6.04664733458e-06
1.63875908086e-07
-6.20860357666e-06
1.61959263943e-07
-6.36812158453e-06
1.59521783116e-07
-6.52463562363e-06
1.5651696903e-07
-6.67753886252e-06
1.52907044723e-07
-6.82619980551e-06
1.48663918278e-07
-6.96996747188e-06
1.43771647416e-07
-7.10819086241e-06
1.38226518144e-07
-7.24022546462e-06
1.32039014275e-07
-7.36545487209e-06
1.25233060434e-07
-7.48329633341e-06
1.1784660915e-07
-7.59322155991e-06
1.09929635666e-07
-7.69475915958e-06
1.01543490885e-07
-7.78751152711e-06
9.275730909e-08
-7.87115016517e-06
8.36452514865e-08
-7.94542625002e-06
7.42817289004e-08
-8.0101595197e-06
6.47405278835e-08
-8.06524429396e-06
5.50907008339e-08
-8.11063499769e-06
4.5398516186e-08
-8.14634859101e-06
3.57200006582e-08
-8.17243931154e-06
2.60988808376e-08
-8.18899724028e-06
1.65642173517e-08
-8.19611827599e-06
7.12944235211e-09
-8.19388601498e-06
-2.22588095305e-09
-8.18245225181e-06
-1.14250157257e-08
-8.16209477207e-06
-2.03510821265e-08
-8.1330843008e-06
-2.90016941326e-08
-8.09565369947e-06
-3.74247508218e-08
-8.0499379835e-06
-4.57074499896e-08
-7.9959573254e-06
-5.39755817912e-08
-7.93356307875e-06
-6.23862729559e-08
-7.86243095242e-06
-7.1127627113e-08
-7.78201566205e-06
-8.04067087431e-08
-7.69156662441e-06
-9.04436685689e-08
-7.59010490567e-06
-1.01451171707e-07
-7.47647617893e-06
-1.13621510535e-07
-7.3493684836e-06
-1.2709582117e-07
-7.20741660321e-06
-1.41945153545e-07
-7.04926361244e-06
-1.58140302166e-07
-6.87371557915e-06
-1.75540602439e-07
-6.67983090537e-06
-1.93871403669e-07
-6.46708645168e-06
-2.12738193472e-07
-6.23543327385e-06
-2.31638505465e-07
-5.98541802074e-06
-2.50007357016e-07
-5.71815899261e-06
-2.67244651235e-07
-5.4353736756e-06
-2.82782033575e-07
-5.13925130068e-06
-2.96122499734e-07
-4.83237198508e-06
-3.06894103252e-07
-4.51754869028e-06
-3.14857058855e-07
-4.19768251426e-06
-3.19898463951e-07
-3.87566957699e-06
-3.22043900125e-07
-3.55427551524e-06
-3.21421148805e-07
-3.23606357832e-06
-3.18240913427e-07
-2.92330616083e-06
-3.12783449478e-07
-2.61800027869e-06
-3.0533274435e-07
-2.32186923638e-06
-2.96151754664e-07
-2.03627524023e-06
-2.85610607348e-07
-1.76238883482e-06
-2.73890242564e-07
-1.5009857423e-06
-2.61393140424e-07
-1.25306909203e-06
-2.47885276711e-07
-1.01904409733e-06
-2.33958538217e-07
-8.00425176059e-07
-2.18519105685e-07
-5.96720665723e-07
-2.03532561342e-07
-4.15853606537e-07
-1.80634954292e-07
-2.39439011656e-07
-1.76099390787e-07
-4.07127754259e-08
-1.98352900025e-07
1.6781281192e-07
-2.0820885737e-07
3.55866412673e-07
-1.87866304958e-07
5.17351898715e-07
-1.61330404401e-07
6.57894791491e-07
-1.40442999709e-07
7.81606132284e-07
-1.23616857066e-07
8.91068353562e-07
-1.09410615385e-07
9.88106434162e-07
-9.69842764123e-08
1.0740240366e-06
-8.58989393439e-08
1.14990651707e-06
-7.58560576591e-08
1.21660173545e-06
-6.66974792763e-08
1.27488558125e-06
-5.82819096966e-08
1.32540106917e-06
-5.05360664425e-08
1.36877419772e-06
-4.33730901573e-08
1.40553183927e-06
-3.67463878394e-08
1.43617847442e-06
-3.05940890761e-08
1.46112294464e-06
-2.48903521254e-08
1.4807816914e-06
-1.95897391554e-08
1.49550941162e-06
-1.46871321723e-08
1.50571011783e-06
-1.01592234764e-08
1.51177480335e-06
-6.05340956015e-09
1.51429014991e-06
-2.50025317426e-09
1.51383037559e-06
4.4969947778e-10
1.51073908917e-06
3.08795911168e-09
1.5051335261e-06
5.5807142911e-09
1.49719690442e-06
7.91957645518e-09
1.4870854203e-06
1.0075047333e-08
1.47498637502e-06
1.20694769484e-08
1.46103226816e-06
1.39057899461e-08
1.44537703913e-06
1.56110143019e-08
1.4281256173e-06
1.71878241362e-08
1.40940024417e-06
1.86578399616e-08
1.3892886058e-06
2.00219218525e-08
1.36789802143e-06
2.12968257217e-08
1.3453153162e-06
2.24870679935e-08
1.32162870235e-06
2.36040811787e-08
1.29690615364e-06
2.46525652031e-08
1.27121016852e-06
2.56394545987e-08
1.24459383735e-06
2.65671860382e-08
1.21711196562e-06
2.7440944494e-08
1.18881325056e-06
2.82613402568e-08
1.15975157016e-06
2.90295663769e-08
1.12997633914e-06
2.97440331076e-08
1.09954333319e-06
3.04048696388e-08
1.06850715019e-06
3.10069248507e-08
1.0369316127e-06
3.15479961079e-08
1.00488229509e-06
3.20195588108e-08
9.72437389981e-07
3.24165351598e-08
9.39674001871e-07
3.27326030084e-08
9.06681021174e-07
3.29639934726e-08
8.73553564232e-07
3.30963523619e-08
8.40410963011e-07
3.31140006374e-08
8.07381755993e-07
3.29988890398e-08
7.74642194743e-07
3.27124880677e-08
7.42424977187e-07
3.21887693679e-08
7.11082050525e-07
3.13184960693e-08
6.81059267885e-07
2.99972754262e-08
6.5301104958e-07
2.80275973313e-08
6.27798260765e-07
2.51913971969e-08
6.06651490489e-07
2.11311219726e-08
5.91065726024e-07
1.55694743328e-08
5.81957974327e-07
9.09755018855e-09
5.78647670301e-07
3.29906090336e-09
5.79439460795e-07
-7.97444691693e-10
5.82743865583e-07
-3.3119375823e-09
5.87235904909e-07
-4.49492713551e-09
5.91828168393e-07
-4.59788288261e-09
5.95697253943e-07
-3.87084569141e-09
5.98302081441e-07
-2.60985851108e-09
5.99499755069e-07
-1.19937831957e-09
5.99506940983e-07
-1.22257585728e-11
5.98395016025e-07
1.11184096937e-09
5.95401658809e-07
2.99413343152e-09
-5.52947904633e-09
6.00939176292e-07
-2.57957874807e-08
-3.01586463378e-08
-9.82945140594e-08
4.16973523491e-08
-1.99807229029e-07
1.07240915573e-07
-3.09442582306e-07
1.50606383349e-07
-4.15449699169e-07
1.89744627131e-07
-5.2542603783e-07
2.23344709353e-07
-6.48039041927e-07
2.48141149208e-07
-7.80679855205e-07
2.67418523176e-07
-9.21063278405e-07
2.82874919181e-07
-1.06755382834e-06
2.95388609772e-07
-1.21889885424e-06
3.05511829336e-07
-1.3740856838e-06
3.13636460355e-07
-1.53227036149e-06
3.20063423058e-07
-1.69273784215e-06
3.25036950805e-07
-1.85487939101e-06
3.28763281354e-07
-2.01817512803e-06
3.31421820512e-07
-2.18218534721e-06
3.33172185716e-07
-2.34653969972e-06
3.34159040673e-07
-2.51093437811e-06
3.34515332676e-07
-2.67512383969e-06
3.34364553261e-07
-2.83892087727e-06
3.33822022565e-07
-3.00218884195e-06
3.3299563608e-07
-3.16484245652e-06
3.31985658653e-07
-3.32683992452e-06
3.30884180619e-07
-3.48818258524e-06
3.2977391736e-07
-3.64890576213e-06
3.28726785861e-07
-3.80907646507e-06
3.2780206933e-07
-3.96878276909e-06
3.27044769317e-07
-4.12812927876e-06
3.26483841651e-07
-4.2872251959e-06
3.26130945751e-07
-4.44617806045e-06
3.25979371984e-07
-4.60508145658e-06
3.26003725682e-07
-4.7640082508e-06
3.26159952174e-07
-4.9229988535e-06
3.2638618058e-07
-5.0820552599e-06
3.26603892974e-07
-5.24113098131e-06
3.2671988938e-07
-5.40012709432e-06
3.2662837356e-07
-5.55888464591e-06
3.26213706501e-07
-5.71718335721e-06
3.25353079511e-07
-5.8747370582e-06
3.23919757364e-07
-6.03119559853e-06
3.2178616192e-07
-6.18614366459e-06
3.18827508819e-07
-6.33910634388e-06
3.14925189115e-07
-6.48955150908e-06
3.09970477401e-07
-6.6368991598e-06
3.03867818926e-07
-6.78052740116e-06
2.96538794485e-07
-6.91978595067e-06
2.87925694598e-07
-7.05400568401e-06
2.77995038584e-07
-7.18251510141e-06
2.66739348275e-07
-7.30465122335e-06
2.54179082945e-07
-7.41977720833e-06
2.40362958064e-07
-7.52729312761e-06
2.25367185802e-07
-7.62665228618e-06
2.09293385207e-07
-7.71736901452e-06
1.92265470324e-07
-7.79902989136e-06
1.7442346789e-07
-7.87129551893e-06
1.55916958286e-07
-7.9339065979e-06
1.36898788897e-07
-7.98667885107e-06
1.17519437704e-07
-8.02950235298e-06
9.79207875904e-08
-8.06232708623e-06
7.82305831834e-08
-8.08516019911e-06
5.8560221853e-08
-8.09805512406e-06
3.90015201865e-08
-8.1011080804e-06
1.9624540485e-08
-8.09446453735e-06
4.9394148675e-10
-8.07853080149e-06
-1.8151953193e-08
-8.05381910203e-06
-3.61284171276e-08
-8.02070281872e-06
-5.34596204386e-08
-7.97949553524e-06
-7.0200823977e-08
-7.93043940221e-06
-8.64736466473e-08
-7.87367051044e-06
-1.02468882372e-07
-7.80919236301e-06
-1.18447319692e-07
-7.73683736163e-06
-1.3473434224e-07
-7.65624668433e-06
-1.51712170308e-07
-7.56684283633e-06
-1.69803542721e-07
-7.46782954942e-06
-1.8944997392e-07
-7.35819027728e-06
-2.11081590392e-07
-7.2367215354e-06
-2.35081952178e-07
-7.10206831474e-06
-2.61739704388e-07
-6.95280529071e-06
-2.91199511167e-07
-6.78752170753e-06
-3.23413636619e-07
-6.60495169128e-06
-3.58101585625e-07
-6.40409253598e-06
-3.9472029184e-07
-6.18434993798e-06
-4.32471388482e-07
-5.94563841236e-06
-4.70338170239e-07
-5.68847455564e-06
-5.07160084326e-07
-5.41398859981e-06
-5.4171905752e-07
-5.12391166463e-06
-5.72851780291e-07
-4.82048030307e-06
-5.99552306851e-07
-4.50631918461e-06
-6.2107337689e-07
-4.1842779091e-06
-6.36925362121e-07
-3.85733479044e-06