/*--------------------------------*- C++ -*----------------------------------*\
| =========                 |                                                 |
| \\      /  F ield         | OpenFOAM: The Open Source CFD Toolbox           |
|  \\    /   O peration     | Version:  v1806                                 |
|   \\  /    A nd           | Web:      www.OpenFOAM.com                      |
|    \\/     M anipulation  |                                                 |
\*---------------------------------------------------------------------------*/
FoamFile
{
    version     2.0;
    format      ascii;
    class       surfaceScalarField;
    location    "11";
    object      phia;
}
// * * * * * * * * * * * * * * * * * * * * * * * * * * * * * * * * * * * * * //

dimensions      [0 3 -1 0 0 0 0];
oriented        oriented;


internalField   nonuniform List<scalar> 
24170
(
1.63084860159e-07
1.63337027645e-07
2.07454842653e-07
-3.70203253318e-08
1.98131992539e-07
1.44134154773e-08
2.18943866303e-07
-2.00673210874e-08
2.24752914668e-07
-4.50922384809e-09
2.36726771903e-07
-1.24462122562e-08
2.47225776783e-07
-1.0492653165e-08
2.57989577118e-07
-1.20062578892e-08
2.70250306319e-07
-1.3409188401e-08
2.84941885437e-07
-1.60286082302e-08
3.02809112788e-07
-1.88544855378e-08
3.2514685694e-07
-2.21318386542e-08
3.55791457195e-07
-2.97420357312e-08
3.96462037965e-07
-3.86125694476e-08
4.43453948155e-07
-4.47540007502e-08
4.84440541797e-07
-3.87466341843e-08
5.48248025434e-07
-6.20809110826e-08
-5.07476536471e-07
1.05690369595e-06
5.36663334527e-07
-1.221726543e-08
2.23446156423e-07
2.87323373728e-07
3.05479262337e-07
-6.25013942473e-08
2.996848315e-07
-1.35190784433e-08
3.18362200792e-07
-2.26180700396e-08
3.33243973474e-07
-2.81924513495e-08
3.52817560795e-07
-3.09456697582e-08
3.74653611039e-07
-3.58831824125e-08
4.00033722534e-07
-4.10579327323e-08
4.28911459806e-07
-4.74481863968e-08
4.62170611513e-07
-5.41365672078e-08
5.01860882023e-07
-6.26436529108e-08
5.46808937293e-07
-7.42635645276e-08
5.94995816111e-07
-8.50610845372e-08
6.40336611448e-07
-8.7828936599e-08
6.84051881462e-07
-8.01757258714e-08
7.80048459442e-07
-1.56234719598e-07
-6.26780584349e-07
9.0108426656e-07
-1.40157764093e-07
4.95849314909e-07
3.78537180801e-07
-2.28336016846e-07
2.80802754052e-07
3.83919428261e-08
2.82133223808e-07
-1.41778827375e-08
2.85842956561e-07
-2.55328335758e-08
2.90493991527e-07
-3.3314510663e-08
2.9725601185e-07
-3.80715083672e-08
3.04318342575e-07
-4.40062049562e-08
3.131132841e-07
-5.08224724745e-08
3.24154944389e-07
-5.94245537403e-08
3.39166639215e-07
-6.97654507336e-08
3.59981377847e-07
-8.34907975532e-08
3.86378920333e-07
-1.00374374691e-07
4.18086619489e-07
-1.16084796508e-07
4.55421387205e-07
-1.2440199879e-07
5.14745098125e-07
-1.38677293107e-07
6.27290822474e-07
-2.67998602889e-07
-6.53417188071e-07
6.54847723836e-07
7.29289977545e-07
1.69688246298e-07
3.29166580731e-07
1.78735814118e-07
3.36383213513e-07
3.52135811152e-08
3.51669852284e-07
-2.84653988058e-08
3.55894114326e-07
-2.96252585187e-08
3.64104334983e-07
-4.27205166497e-08
3.73025822313e-07
-4.86417982092e-08
3.82846877109e-07
-5.62663415977e-08
3.94006670019e-07
-6.45735662066e-08
4.06589450423e-07
-7.45751048321e-08
4.21378928721e-07
-8.65810838041e-08
4.38621816832e-07
-1.01954168671e-07
4.57338315401e-07
-1.19509263046e-07
4.76736459376e-07
-1.35204662271e-07
5.00592820293e-07
-1.475823884e-07
5.46577709632e-07
-1.83789568522e-07
6.11352751733e-07
-3.3181959155e-07
-6.11914164399e-07
5.71054790982e-07
1.49608673005e-07
4.39111163448e-07
3.75320019322e-07
-4.64542288533e-08
3.58360312242e-07
5.3763193337e-08
3.57063940697e-07
-2.66241111018e-08
3.61588045296e-07
-3.37097152267e-08
3.6749149365e-07
-4.89992068029e-08
3.76129675688e-07
-5.77599030995e-08
3.86783656847e-07
-6.77453653811e-08
3.99876611895e-07
-7.84164127038e-08
4.15386210963e-07
-9.07133145189e-08
4.33610987119e-07
-1.0518579994e-07
4.53905865694e-07
-1.22368767494e-07
4.74987839164e-07
-1.40580977703e-07
4.968837257e-07
-1.56972017449e-07
5.25073657572e-07
-1.75562531729e-07
5.68889217401e-07
-2.27265726451e-07
6.02505292128e-07
-3.64944472323e-07
-5.55506021173e-07
5.46735910587e-07
4.61462547046e-07
4.31410530991e-07
3.99223752273e-07
1.90342660487e-08
4.09042879076e-07
4.66934384509e-08
4.08194459551e-07
-2.45027416609e-08
4.11226973619e-07
-3.63863099055e-08
4.15239384577e-07
-5.36542503306e-08
4.21524267222e-07
-6.51871670209e-08
4.29591195354e-07
-7.7391724319e-08
4.3982802587e-07
-9.02588444942e-08
4.5233370873e-07
-1.04691250195e-07
4.67247224215e-07
-1.21193216128e-07
4.83849241044e-07
-1.39674356912e-07
5.01375806012e-07
-1.58462521446e-07
5.21112748413e-07
-1.76794073792e-07
5.48154356115e-07
-2.02466732122e-07
5.82684220762e-07
-2.61473133803e-07
5.94444047874e-07
-3.76201093907e-07
-5.03097224411e-07
5.42833283815e-07
4.21989000306e-07
4.90027748316e-07
4.39764230531e-07
4.0792624546e-10
4.48099637436e-07
3.87527880609e-08
4.47988903373e-07
-2.40643584351e-08
4.51054733838e-07
-3.91753748377e-08
4.55005779178e-07
-5.77181805322e-08
4.61016392376e-07
-7.13930532547e-08
4.68752719477e-07
-8.54318215663e-08
4.784183795e-07
-1.00116471504e-07
4.8996074578e-07
-1.16314587267e-07
5.03178244721e-07
-1.34347815895e-07
5.17348410284e-07
-1.53726646427e-07
5.32244123807e-07
-1.73244858714e-07
5.49674079453e-07
-1.94120161055e-07
5.72557320337e-07
-2.25205131517e-07
5.95126071328e-07
-2.83795032422e-07
5.92837677553e-07
-3.7349151387e-07
-4.5857601056e-07
5.48638663208e-07
4.82037323061e-07
5.25987986826e-07
4.81864137414e-07
1.7568334809e-09
4.93366791352e-07
2.90588462248e-08
4.93299812301e-07
-2.25728658298e-08
4.95998310814e-07
-4.10120950972e-08
4.99301673282e-07
-6.07413809637e-08
5.0449514617e-07
-7.66681830243e-08
5.11337369688e-07
-9.25303135126e-08
5.19902416235e-07
-1.08938919913e-07
5.30004704085e-07
-1.26553601533e-07
5.41234453556e-07
-1.45576694102e-07
5.5301972859e-07
-1.65409095027e-07
5.65534073691e-07
-1.85613303594e-07
5.80257899899e-07
-2.08657504584e-07
5.97475896611e-07
-2.4218286723e-07
6.09221291175e-07
-2.95210663863e-07
5.9895164223e-07
-3.62891698911e-07
-4.20435954678e-07
5.61383210202e-07
5.32160812466e-07
5.46238204089e-07
5.30241316968e-07
2.43489872953e-09
5.40865058176e-07
1.81670905466e-08
5.41436879533e-07
-2.3007455042e-08
5.43884356622e-07
-4.32032450948e-08
5.46717584682e-07
-6.33678776201e-08
5.51144549672e-07
-8.08756713903e-08
5.57003323257e-07
-9.81233179121e-08
5.6428467493e-07
-1.15849543936e-07
5.72698888725e-07
-1.3451256723e-07
5.81787407612e-07
-1.54156433437e-07
5.91170247562e-07
-1.74317947043e-07
6.0117778296e-07
-1.95209571864e-07
6.12485129381e-07
-2.19611327918e-07
6.23468188519e-07
-2.52824255228e-07
6.26606528863e-07
-2.97992376823e-07
6.12222943174e-07
-3.48018337095e-07
-3.87643874775e-07
5.79663956849e-07
5.86207496546e-07
5.5522429234e-07
5.82251582696e-07
7.26022016809e-09
5.91681150432e-07
1.02029443836e-08
5.92490545075e-07
-2.23017352621e-08
5.94721784957e-07
-4.41758237358e-08
5.97087948976e-07
-6.4803584516e-08
6.00721926034e-07
-8.37944155775e-08
6.0548573376e-07
-1.02295103084e-07
6.11310269096e-07
-1.21078914023e-07
6.17865111712e-07
-1.40428235861e-07
6.24719557638e-07
-1.60363427873e-07
6.31642697743e-07
-1.80655169444e-07
6.38873464507e-07
-2.01882749905e-07
6.46236770806e-07
-2.26476011927e-07
6.51232126296e-07
-2.57326152678e-07
6.48055136727e-07
-2.9432008869e-07
6.31526836951e-07
-3.31119844822e-07
-3.58357103774e-07
6.02849147976e-07
6.42893761061e-07
5.4767250943e-07
6.36790574014e-07
1.21084985578e-08
6.45148759554e-07
1.49616452851e-09
6.45835042934e-07
-2.28205466555e-08
6.47831298204e-07
-4.57462940431e-08
6.49737654256e-07
-6.61830686845e-08
6.52570717377e-07
-8.60454597236e-08
6.56203081703e-07
-1.05261248637e-07
6.60514460322e-07
-1.24644713248e-07
6.65180364985e-07
-1.44288816715e-07
6.69820287594e-07
-1.64226934818e-07
6.74261353292e-07
-1.84324276026e-07
6.78510309539e-07
-2.05465307563e-07
6.81798291965e-07
-2.2911589865e-07
6.81563448987e-07
-2.56507336816e-07
6.73842202196e-07
-2.86033133853e-07
6.56318087259e-07
-3.1292299823e-07
-3.32000252801e-07
6.30337200827e-07
5.86173708542e-07
5.36225676667e-07
5.8117013525e-07
1.75577710607e-08
5.86354590516e-07
-3.02388832439e-09
5.87020772215e-07
-2.25692433476e-08
5.88392579404e-07
-4.62052763646e-08
5.8967075937e-07
-6.65407868119e-08
5.9144946188e-07
-8.69562473535e-08
5.93645458726e-07
-1.06566271946e-07
5.96121850465e-07
-1.26233472499e-07
5.98638577157e-07
-1.45899074864e-07
6.00922166271e-07
-1.65580816175e-07
6.0274803737e-07
-1.8558531658e-07
6.04049134339e-07
-2.06104331861e-07
6.03858243285e-07
-2.2847672911e-07
6.00415394509e-07
-2.52557516878e-07
5.91534278259e-07
-2.76734318266e-07
5.76314723377e-07
-2.97440623983e-07
-3.11267054223e-07
5.56048134674e-07
7.18892211804e-07
5.15393661944e-07
7.14973508135e-07
2.08377652818e-08
7.1829482228e-07
-6.31743598499e-09
7.19258188404e-07
-2.32378831334e-08
7.20533864344e-07
-4.69062332846e-08
7.21719047629e-07
-6.70746393131e-08
7.23167471516e-07
-8.76223268159e-08
7.24791163004e-07
-1.07381217561e-07
7.26435748204e-07
-1.26978433108e-07
7.27874234594e-07
-1.46359685417e-07
7.28634893806e-07
-1.65829328341e-07
7.28740203522e-07
-1.85016802859e-07
7.27605936469e-07
-2.04649297239e-07
7.24427423579e-07
-2.24857486327e-07
7.17456901642e-07
-2.45366046782e-07
7.0533871046e-07
-2.64399876837e-07
6.87794662448e-07
-2.79605864286e-07
-2.8921421369e-07
6.65909306996e-07
8.79196381308e-07
4.89358081298e-07
8.76491783991e-07
2.35749507204e-08
8.77748135785e-07
-8.37556552107e-09
8.78699252052e-07
-2.44328693057e-08
8.7959603607e-07
-4.79927364559e-08
8.8047009005e-07
-6.77228986955e-08
8.81264749567e-07
-8.81441994942e-08
8.81957073588e-07
-1.0751590134e-07
8.82321101489e-07
-1.26733085436e-07
8.81964732681e-07
-1.45585222855e-07
8.80732987407e-07
-1.64093111722e-07
8.78190734264e-07
-1.82245526063e-07
8.73987844093e-07
-2.0013333731e-07
8.67048314214e-07
-2.17722786066e-07
8.56254632235e-07
-2.34372365236e-07
8.40792059793e-07
-2.48767202515e-07
8.20780404741e-07
-2.59522843086e-07
-2.65549912515e-07
7.97349773957e-07
1.07427421129e-06
4.54537000948e-07
1.0719144767e-06
2.43773066924e-08
1.07181677338e-06
-8.92522318582e-09
1.07217671918e-06
-2.59329271212e-08
1.07239544648e-06
-4.88195531759e-08
1.07234570025e-06
-6.82674001439e-08
1.07200007049e-06
-8.79014521996e-08
1.07102135299e-06
-1.06666956379e-07
1.06932965614e-06
-1.24917605892e-07
1.06645477456e-06
-1.4265801241e-07
1.06223551191e-06
-1.59774595669e-07
1.0562265664e-06
-1.76201668955e-07
1.04810489767e-06
-1.91729476705e-07
1.03687615323e-06
-2.06324049164e-07
1.02200176829e-06
-2.19237474939e-07
1.00307793701e-06
-2.29672941525e-07
9.80603035895e-07
-2.36798577311e-07
-2.40159836334e-07
9.55435289165e-07
1.30851330236e-06
4.11038389081e-07
1.30789590466e-06
2.36449472713e-08
1.30648391337e-06
-9.78488266659e-09
1.3063312503e-06
-2.73299495651e-08
1.30535766453e-06
-4.91723079309e-08
1.3040180251e-06
-6.77803888124e-08
1.30168835956e-06
-8.63004184792e-08
1.29844117067e-06
-1.03748405269e-07
1.29373212519e-06
-1.20588251029e-07
1.28755635068e-06
-1.36597631224e-07
1.27936239074e-06
-1.51802491437e-07
1.2692647344e-06
-1.65858707938e-07
1.25643296356e-06
-1.78783468079e-07
1.24073020758e-06
-1.90241136165e-07
1.22160559962e-06
-1.99838500495e-07
1.19931016515e-06
-2.07035928623e-07
1.1742971965e-06
-2.11432274912e-07
-2.12923081463e-07
1.14731217222e-06
1.58893083068e-06
3.64665251832e-07
1.58961945483e-06
1.88990067704e-08
1.58849085625e-06
-1.1374938208e-08
1.58743034606e-06
-2.83081930547e-08
1.58502166934e-06
-4.82277907469e-08
1.58163492708e-06
-6.53892333634e-08
1.57667753197e-06
-8.20784505235e-08
1.57011856051e-06
-9.77007905643e-08
1.56164642885e-06
-1.12484754858e-07
1.55113025437e-06
-1.26319044816e-07
1.53841317117e-06
-1.39110209249e-07
1.52331137024e-06
-1.50664183571e-07
1.50559451434e-06
-1.60829123275e-07
1.48510366718e-06
-1.69463926569e-07
1.46184829241e-06
-1.7625602371e-07
1.43615482967e-06
-1.80985665864e-07
1.40848043987e-06
-1.83448087059e-07
-1.83669990887e-07
1.37960769879e-06
1.923815163e-06
3.18218958266e-07
1.926977866e-06
1.12375266515e-08
1.92498834244e-06
-1.27321376312e-08
1.92308065072e-06
-2.86207196008e-08
1.91876625322e-06
-4.53572636764e-08
1.91276596152e-06
-6.03489581349e-08
1.90446460027e-06
-7.44764917207e-08
1.89389247567e-06
-8.76308483957e-08
1.8809396851e-06
-9.98546644228e-08
1.8655103159e-06
-1.11099153856e-07
1.84767397014e-06
-1.21290422143e-07
1.82729518742e-06
-1.30225519647e-07
1.80447595805e-06
-1.37830789194e-07
1.77923416986e-06
-1.44012699347e-07
1.75182373575e-06
-1.48629756605e-07
1.72266754308e-06
-1.5158210037e-07
1.69216878948e-06
-1.52812948277e-07
-1.52366123686e-07
1.66104930489e-06
2.33148069252e-06
2.75784656683e-07
2.3371972195e-06
2.41473986711e-10
2.33272309302e-06
-1.29797602717e-08
2.32928507975e-06
-2.77478531049e-08
2.32205070227e-06
-4.0180047766e-08
2.31249967886e-06
-5.20486998163e-08
2.29999391747e-06
-6.29517690584e-08
2.28445694853e-06
-7.28877121368e-08
2.26629452994e-06
-8.22142680366e-08
2.24523766617e-06
-9.04677255755e-08
2.22182057963e-06
-9.79669266781e-08
2.19575432813e-06
-1.04270399469e-07
2.16764508814e-06
-1.09573030064e-07
2.13740212747e-06
-1.13657559929e-07
2.10560264126e-06
-1.16628631783e-07
2.0725582513e-06
-1.18300357827e-07
2.03875968898e-06
-1.18822822332e-07
-1.18072458964e-07
2.00472895367e-06
1.70558833336e-06
2.43011027351e-07
1.70635695927e-06
-9.00575078992e-09
1.70349471096e-06
-1.55316890566e-08
1.69888900053e-06
-2.77997687405e-08
1.69335586814e-06
-3.61518202156e-08
1.68451972742e-06
-4.56312239941e-08
1.67471145059e-06
-5.35149749866e-08
1.66155858265e-06
-6.1567869485e-08
1.64779610774e-06
-6.84142122896e-08
1.63118328075e-06
-7.49862200765e-08
1.6139067121e-06
-8.04943572365e-08
1.59439079301e-06
-8.5380196454e-08
1.57425015084e-06
-8.9232712099e-08
1.55249303069e-06
-9.23146197973e-08
1.53043439486e-06
-9.43641212176e-08
1.50734086378e-06
-9.55778231801e-08
1.4845068802e-06
-9.5767898833e-08
-9.52286883641e-08
1.46142619044e-06
1.49186671116e-06
2.07479696712e-07
1.48912640943e-06
-1.4256221887e-08
1.48604059789e-06
-1.78309751405e-08
1.48144332599e-06
-2.83155322285e-08
1.47519343469e-06
-3.34793427821e-08
1.46742827727e-06
-3.9832214303e-08
1.45720137423e-06
-4.55278198407e-08
1.44593136433e-06
-5.10246682503e-08
1.43263011397e-06
-5.63092799457e-08
1.41848294697e-06
-6.09957845416e-08
1.40265330159e-06
-6.5275028463e-08
1.38608852411e-06
-6.88362990675e-08
1.36831420093e-06
-7.18185122793e-08
1.35014101516e-06
-7.40800832923e-08
1.33110487731e-06
-7.5676155651e-08
1.31217543241e-06
-7.64242331544e-08
1.29262971341e-06
-7.65071819234e-08
-7.54113042048e-08
1.2732078036e-06
1.28810738358e-06
1.77974585965e-07
1.30248685415e-06
-3.92453746247e-08
1.29894541718e-06
-2.55006034257e-08
1.29601879606e-06
-2.99986254005e-08
1.29004818871e-06
-3.10057307924e-08
1.28245840217e-06
-3.4691247402e-08
1.27318603872e-06
-3.81293292647e-08
1.26267856143e-06
-4.19229844525e-08
1.25107114985e-06
-4.54980588644e-08
1.23844286171e-06
-4.88743792946e-08
1.22482341581e-06
-5.19881222866e-08
1.21037041687e-06
-5.47092897553e-08
1.19528779461e-06
-5.70499384613e-08
1.17978332834e-06
-5.8842020013e-08
1.16412801302e-06
-6.00362902377e-08
1.14815911861e-06
-6.07477688579e-08
1.13274555969e-06
-6.09415309113e-08
-6.241676049e-08
1.11957390094e-06
1.19504024621e-06
9.06351218767e-08
1.13569078458e-06
1.49022306002e-08
1.13595964455e-06
-2.75858099082e-08
1.13213326861e-06
-3.17366846588e-08
1.1264803012e-06
-2.89268384634e-08
1.11914213987e-06
-3.01938040208e-08
1.11068232907e-06
-3.12052815536e-08
1.10110277642e-06
-3.34590773094e-08
1.09073059577e-06
-3.56950207735e-08
1.07931984514e-06
-3.81120542627e-08
1.06725658848e-06
-4.02840517082e-08
1.05439007168e-06
-4.24067347958e-08
1.04119967214e-06
-4.40779665302e-08
1.02762146699e-06
-4.54730246779e-08
1.01379486579e-06
-4.64264457149e-08
9.99914335898e-07
-4.68257293804e-08
9.85289936337e-07
-4.65132277888e-08
-4.02317647916e-08
9.62976233676e-07
7.91571555317e-07
2.53429943986e-07
1.00754101175e-06
-2.07298224126e-07
1.00829965742e-06
-3.65266458178e-08
1.00503189386e-06
-3.06536484015e-08
9.9897801852e-07
-2.4632260051e-08
9.92034716021e-07
-2.45079715944e-08
9.84001239201e-07
-2.4269181795e-08
9.75499940198e-07
-2.54045031101e-08
9.66364273772e-07
-2.6991991372e-08
9.56910957699e-07
-2.88311730214e-08
9.46784211189e-07
-3.08336303736e-08
9.36408099924e-07
-3.24176284651e-08
9.2569608161e-07
-3.3980709714e-08
9.15050007035e-07
-3.50693872478e-08
9.04480555267e-07
-3.58756366094e-08
8.93701341685e-07
-3.61655075527e-08
8.83419176248e-07
-3.61834812235e-08
-4.80044959322e-08
8.91210458018e-07
1.39709357042e-06
-2.93735482942e-07
8.50949060013e-07
3.42926916256e-07
8.59249548371e-07
-4.21656514864e-08
8.59263288551e-07
-3.20822470513e-08
8.52778168528e-07
-2.04836935304e-08
8.45796931063e-07
-1.87413453656e-08
8.3807203393e-07
-1.72655557772e-08
8.2983634222e-07
-1.79269170787e-08
8.21167531351e-07
-1.89408188091e-08
8.11792058483e-07
-2.04191260677e-08
8.02036418371e-07
-2.16599466488e-08
7.91838424863e-07
-2.30925407495e-08
7.81625677063e-07
-2.40092855766e-08
7.70984378132e-07
-2.48271195187e-08
7.60221938296e-07
-2.54068017291e-08
7.5044865901e-07
-2.64352902947e-08
7.43026144436e-07
-2.896928889e-08
-1.41714910806e-08
7.08941597377e-07
-3.30061142477e-07
7.75023178513e-07
8.31980849603e-07
-8.14385668746e-07
8.1158849817e-07
-2.15723036781e-08
7.94181772175e-07
-1.41102770197e-08
7.9014337759e-07
-1.57664613007e-08
7.84780390963e-07
-1.40565789102e-08
7.79358280679e-07
-1.27537435891e-08
7.73534020389e-07
-1.28939748424e-08
7.67336262318e-07
-1.35446635134e-08
7.60836778504e-07
-1.44605791822e-08
7.53670882882e-07
-1.54713502169e-08
7.45888777752e-07
-1.58701589232e-08
7.37234985586e-07
-1.62092622475e-08
7.28120594277e-07
-1.62615088418e-08
7.18408473174e-07
-1.6170001699e-08
7.05959980432e-07
-1.47121359347e-08
6.85684557192e-07
-8.54055129257e-09
-1.69780068624e-08
6.88158383817e-07
2.2173221213e-06
-7.90660315888e-07
6.02808515472e-07
8.09570692625e-07
6.31671286665e-07
-4.55539518156e-08
6.62096476667e-07
-3.90021929934e-08
6.49126948373e-07
-5.83787405544e-09
6.42544400307e-07
-8.01173828108e-09
6.3425546327e-07
-5.47253488282e-09
6.26170239744e-07
-6.05655824648e-09
6.18223689946e-07
-6.70924091298e-09
6.10723528451e-07
-8.10647127769e-09
6.03886077211e-07
-9.467724041e-09
5.97885033935e-07
-1.07495470546e-08
5.9279531559e-07
-1.17558963351e-08
5.88614950012e-07
-1.29036062196e-08
5.85770822024e-07
-1.42094245321e-08
5.87112919798e-07
-1.66682986346e-08
6.01526813807e-07
-2.39323625352e-08
-1.5755457896e-08
6.00548554804e-07
-8.11136404316e-07
5.95453552486e-07
8.20687132405e-07
-8.09722167532e-07
6.13670883025e-07
1.69125926501e-07
6.05663074238e-07
-2.44690315679e-08
5.99078311075e-07
3.56424610946e-10
5.94405735225e-07
-4.35914263426e-09
5.90223983331e-07
-2.61792069562e-09
5.84738304956e-07
-2.23288637553e-09
5.78801007011e-07
-2.31667519809e-09
5.72100990472e-07
-2.55759294273e-09
5.64417900163e-07
-3.00093314937e-09
5.56108743293e-07
-3.5604745628e-09
5.47268751943e-07
-4.02523135466e-09
5.37728489875e-07
-4.49992486008e-09
5.27614596265e-07
-5.25069527426e-09
5.15417292358e-07
-5.75990100379e-09
4.92297017493e-07
-1.03629381907e-09
-1.7214995303e-08
4.92783303691e-07
1.26337740926e-06
-1.62227606719e-07
3.69692384251e-07
9.85866677682e-08
5.9452635901e-07
-4.61447748451e-08
5.55053761906e-07
2.27269996188e-08
5.62598377631e-07
-7.124032297e-09
5.55863558388e-07
1.27297513883e-09
5.53019103443e-07
-1.35153298034e-09
5.49402359489e-07
-5.5492733894e-10
5.46002536234e-07
-6.8111717693e-10
5.42671149966e-07
-7.65706593906e-10
5.39220465593e-07
-1.11725679244e-09
5.35674937478e-07
-1.49057760202e-09
5.31877305787e-07
-1.61700239559e-09
5.27340914946e-07
-1.36289136361e-09
5.21504183255e-07
-8.80050223577e-10
5.16342816683e-07
-1.76831563369e-09
5.22467859164e-07
-8.3546676596e-09
1.00654938602e-08
4.94399726133e-07
2.59187649522e-07
3.58554341016e-07
3.13173734667e-07
3.35921141201e-07
3.28688293185e-07
3.29791276748e-07
3.28203985551e-07
3.27410954425e-07
3.26512660084e-07
3.25505913147e-07
3.24143339679e-07
3.22408458365e-07
3.2052821288e-07
3.18872793177e-07
3.17703381123e-07
3.15671691201e-07
3.07096126421e-07
3.16733422833e-07
3.62823203376e-08
-8.6775631875e-08
4.72709725317e-08
-7.11908714884e-08
6.38123558372e-08
-5.19666091404e-08
2.49154389539e-10
1.92961571572e-08
-1.04222245319e-07
8.70501637401e-08
-1.94512248373e-07
7.51604501297e-08
-2.4143197783e-07
4.41529343825e-08
-2.65737629171e-07
1.98409526303e-08
-2.69532913401e-07
2.60664278645e-09
-2.6333943755e-07
-8.48250563433e-09
-2.50169129895e-07
-1.46084221455e-08
-2.3503310684e-07
-1.72231441072e-08
-2.19338881884e-07
-1.74738434845e-08
-2.05081940401e-07
-1.63566101708e-08
-1.92420896318e-07
-1.45161114895e-08
-1.8195573527e-07
-1.24515165541e-08
-1.73306625338e-07
-1.04248479571e-08
-1.66471437605e-07
-8.63137070722e-09
-1.60978307901e-07
-7.14183421741e-09
-1.56666812896e-07
-6.00399115884e-09
-1.53081651583e-07
-5.18813677242e-09
-1.50043505569e-07
-4.69379040415e-09
-1.47244554494e-07
-4.46743781311e-09
-1.44487998148e-07
-4.4696530133e-09
-1.41532771878e-07
-4.65616693072e-09
-1.38325137383e-07
-4.99984292796e-09
-1.34624416127e-07
-5.44396296083e-09
-1.30475005471e-07
-5.97163523494e-09
-1.25632277137e-07
-6.54146775976e-09
-1.20278843935e-07
-7.14658125159e-09
-1.14116686785e-07
-7.74568363415e-09
-1.07456613409e-07
-8.34863540896e-09
-9.99689838119e-08
-8.92368734298e-09
-9.20529329547e-08
-9.47929444283e-09
-8.33043600018e-08
-9.98036009337e-09
-7.42412316467e-08
-1.04653413954e-08
-6.44425033994e-08
-1.08868737464e-08
-5.44004728818e-08
-1.12773444923e-08
-4.37141681315e-08
-1.16044111301e-08
-3.2878879945e-08
-1.19046967527e-08
-2.14925717127e-08
-1.21388202786e-08
-1.00394200478e-08
-1.23499234804e-08
1.8660505431e-09
-1.24982269376e-08
1.37572862559e-08
-1.26292770609e-08
2.60115314401e-08
-1.27029839019e-08
3.81655984641e-08
-1.27675770688e-08
5.05978810129e-08
-1.27803316836e-08
6.28472602154e-08
-1.27910053802e-08
7.53193817309e-08
-1.27529436117e-08
8.75449779945e-08
-1.27232297444e-08
9.99436399869e-08
-1.26493733221e-08
1.12078495622e-07
-1.25861854771e-08
1.24357988479e-07
-1.24833556442e-08
1.36409835029e-07
-1.23938217618e-08
1.485881735e-07
-1.22695445299e-08
1.6057812671e-07
-1.21670238097e-08
1.72632492398e-07
-1.20522742743e-08
1.84581777076e-07
-1.19640501844e-08
1.96553312134e-07
-1.18887639058e-08
2.08491549314e-07
-1.18335756638e-08
2.20366612713e-07
-1.17817487319e-08
2.32144911206e-07
-1.16561671898e-08
2.43370810733e-07
-1.11819490685e-08
2.535085744e-07
-1.00927012353e-08
2.62897847647e-07
-9.43945693829e-09
2.71770893535e-07
-8.9517897838e-09
2.80215123342e-07
-8.55546313865e-09
2.88288579324e-07
-8.25676250441e-09
2.96235144376e-07
-8.0432492412e-09
3.04000172955e-07
-7.94790097422e-09
3.11953381707e-07
-7.92849181157e-09
3.19940975444e-07
-8.04045315606e-09
3.28414167633e-07
-8.2094253365e-09
3.37163914508e-07
-8.53104001391e-09
3.46607512836e-07
-8.91725059531e-09
3.56626918582e-07
-9.46338374495e-09
3.67524586021e-07
-1.01166974875e-08
3.79340263013e-07
-1.095400247e-08
3.92274708291e-07
-1.19580589957e-08
4.06568398115e-07
-1.31735665099e-08
4.22272760654e-07
-1.46268139736e-08
4.39828047701e-07
-1.63232904153e-08
4.59071352086e-07
-1.83433316372e-08
4.80842390635e-07
-2.05935444325e-08
5.04628517428e-07
-2.32810559343e-08
5.31422493111e-07
-2.62386492188e-08
5.60588291437e-07
-2.97801351241e-08
5.92407939294e-07
-3.38619845009e-08
6.27212512746e-07
-3.80756087887e-08
6.63062932793e-07
-4.36835855252e-08
7.02273067646e-07
-4.88117551875e-08
7.4414468245e-07
-5.443050033e-08
7.89426635624e-07
-5.95702282559e-08
8.36350084388e-07
-6.42336605222e-08
8.84970460328e-07
-6.73868050354e-08
9.33153017044e-07
-7.00142377551e-08
9.82710919084e-07
-7.23952083828e-08
1.03178960342e-06
-7.494065384e-08
1.07858835816e-06
-7.33614194364e-08
1.11795180574e-06
-6.92754915541e-08
1.15466684479e-06
-6.75100005198e-08
1.17620087554e-06
-5.55116947398e-08
1.20450335721e-06
-6.48239892527e-08
1.25623101315e-06
-9.65818488464e-08
1.3844781801e-06
-1.81448166308e-07
1.34454705875e-06
-2.07857229547e-08
1.04287654644e-06
2.40928803686e-07
7.98287636535e-07
2.0307996468e-07
6.65832784172e-07
1.05713709205e-07
5.84233588456e-07
6.22426597108e-08
5.30512607257e-07
3.97382287211e-08
4.92222137642e-07
2.75094444815e-08
4.63839845545e-07
2.06076284809e-08
4.41517257108e-07
1.61744421209e-08
4.23837839052e-07
1.33752406312e-08
4.09156426894e-07
1.11888348257e-08
3.97168258787e-07
9.68537795521e-09
3.86968005119e-07
8.33927112817e-09
3.78525775348e-07
7.36052076185e-09
3.71073755063e-07
6.43297385324e-09
3.64486054149e-07
5.74365622462e-09
3.58211806395e-07
5.08099990268e-09
3.5247718619e-07
4.61729562172e-09
3.47029994589e-07
4.20250631983e-09
3.42091886328e-07
4.02304139313e-09
3.37279175111e-07
3.8821410492e-09
3.32691615901e-07
3.9429114985e-09
3.27938008369e-07
4.02154310375e-09
3.23090680211e-07
4.30482074766e-09
3.17819109522e-07
4.58775282397e-09
3.12655656434e-07
4.60789214717e-09
3.07447769543e-07
4.48989341621e-09
3.02389762378e-07
4.43740847962e-09
2.97300781811e-07
4.31378384392e-09
2.92404999181e-07
4.19617180358e-09
2.87594283412e-07
3.96331341444e-09
2.83085957905e-07
3.66512454089e-09
2.7878172659e-07
3.18665838059e-09
2.74856473442e-07
2.59914549133e-09
2.7121547173e-07
1.74888432325e-09
2.68188812524e-07
8.18189043659e-10
2.65528057536e-07
-4.01122381528e-10
2.63581986175e-07
-1.60043885936e-09
2.62044126546e-07
-2.97048400885e-09
2.61262295063e-07
-4.19889682435e-09
2.60876712474e-07
-5.51071745711e-09
2.61233271686e-07
-6.61388068948e-09
2.61899911169e-07
-7.80534044258e-09
2.63204908227e-07
-8.7386317493e-09
2.64557943184e-07
-9.68203514624e-09
2.66234427579e-07
-1.02698400604e-08
2.67620152938e-07
-1.09004996707e-08
2.69164568849e-07
-1.13045839854e-08
2.70328344145e-07
-1.18598188852e-08
2.71602256316e-07
-1.22027127316e-08
2.7244837027e-07
-1.2705005341e-08
2.73375730243e-07
-1.30154505871e-08
2.73829232715e-07
-1.34484505397e-08
2.7420925441e-07
-1.36070356669e-08
2.73982513014e-07
-1.38445867154e-08
2.73800577549e-07
-1.40878646105e-08
2.73795558707e-07
-1.49242506262e-08
2.74363295631e-07
-1.55530405236e-08
2.75505790961e-07
-1.64764197792e-08
2.77747318339e-07
-1.74294667759e-08
2.80386558524e-07
-1.79264663068e-08
2.83396385876e-07
-1.81328766191e-08
2.86338464274e-07
-1.80479060445e-08
2.89076325488e-07
-1.77642896188e-08
2.91537668799e-07
-1.74737138794e-08
2.93456987953e-07
-1.71097082425e-08
2.94797613557e-07
-1.67336969916e-08
2.94672310034e-07
-1.59230899381e-08
2.93382597741e-07
-1.54212561212e-08
2.88239453925e-07
-1.28036520266e-08
2.77495007456e-07
-8.50457311812e-09
2.56732568405e-07
-3.72847175808e-11
2.2100833617e-07
1.35866885668e-08
1.63492144091e-07
3.42620502297e-08
4.0259324088e-08
1.00214295679e-07
-4.5817841808e-08
-8.44845466916e-08
-1.57796644647e-07
7.49674035202e-09
-2.69662243613e-07
4.57623748976e-08
-2.9009355055e-07
2.93437001546e-08
-2.16098272577e-07
9.23127275339e-09
-1.37379037795e-07
-7.26419722427e-09
-7.46821888226e-08
-1.96625465808e-08
-2.86942132323e-08
-2.76628821102e-08
4.82685796031e-09
-3.15870388306e-08
2.75002313066e-08
-3.23697324594e-08
4.28161784822e-08
-3.09761078553e-08
5.26269673089e-08
-2.84139338182e-08
5.91933045792e-08
-2.53917820062e-08
6.37734646857e-08
-2.24459257978e-08
6.76559365672e-08
-1.98560931511e-08
7.14825269034e-08
-1.77832284522e-08
7.58830657979e-08
-1.62564577944e-08
8.10688979627e-08
-1.52596609828e-08
8.72656420334e-08
-1.47224997866e-08
9.44771566971e-08
-1.45725617209e-08
1.02655306801e-07
-1.4740441763e-08
1.11714811037e-07
-1.51348332546e-08
1.2154789836e-07
-1.5696098885e-08
1.32005418921e-07
-1.63677488829e-08
1.42974379006e-07
-1.70990043372e-08
1.54330384529e-07
-1.78461509945e-08
1.6597650949e-07
-1.85877759951e-08
1.77770802042e-07
-1.92966373856e-08
1.89706781423e-07
-1.99531730015e-08
2.0161177144e-07
-2.0550571659e-08
2.13545421358e-07
-2.10777697268e-08
2.2528149379e-07
-2.15386942619e-08
2.36988093263e-07
-2.1913052065e-08
2.4840491621e-07
-2.22275073208e-08
2.59721812281e-07
-2.24688417484e-08
2.70691187739e-07
-2.26509790467e-08
2.81541381606e-07
-2.27714559196e-08
2.92019939014e-07
-2.28531667781e-08
3.02386154579e-07
-2.28809353435e-08
3.12413606787e-07
-2.28800246585e-08
3.22349584348e-07
-2.28416649723e-08
3.31993596928e-07
-2.27860779313e-08
3.41578189854e-07
-2.27038772702e-08
3.50917298369e-07
-2.26135005088e-08
3.60230285237e-07
-2.25036856571e-08
3.69331173856e-07
-2.23918094923e-08
3.78425880462e-07
-2.22632598759e-08
3.87324837383e-07
-2.21334749242e-08
3.96231465941e-07
-2.19863716027e-08
4.04951396106e-07
-2.18345892687e-08
4.1368111806e-07
-2.1658559417e-08
4.22228745868e-07
-2.1480113125e-08
4.30790767004e-07
-2.12734761441e-08
4.39214456826e-07
-2.10589594058e-08
4.47640257459e-07
-2.08219840198e-08
4.55927050553e-07
-2.05801367425e-08
4.641626893e-07
-2.0313767646e-08
4.72229300519e-07
-2.00382184968e-08
4.80132467279e-07
-1.97381997813e-08
4.877870738e-07
-1.94228205001e-08
4.95157274448e-07
-1.90726293628e-08
5.02302219947e-07
-1.87304473023e-08
5.09709095564e-07
-1.8556964783e-08
5.17555920647e-07
-1.79348007352e-08
5.24624910632e-07
-1.65493355909e-08
5.30754182809e-07
-1.51698207855e-08
5.358250109e-07
-1.37323582595e-08
5.39670008835e-07
-1.22431980111e-08
5.42255902144e-07
-1.0737418223e-08
5.43458032975e-07
-9.26335384699e-09
5.43375135445e-07
-7.85520518155e-09
5.4194211599e-07
-6.56793727025e-09
5.39321818943e-07
-5.42764800853e-09
5.35535605231e-07
-4.46758430816e-09
5.30744490721e-07
-3.71547148881e-09
5.2502376917e-07
-3.20211778856e-09
5.18503296022e-07
-2.95364576888e-09
5.113321027e-07
-3.0008448308e-09
5.03618343221e-07
-3.39130524618e-09
4.95607907804e-07
-4.17016366357e-09
4.87372820623e-07
-5.41980007605e-09
4.79275072208e-07
-7.18370567328e-09
4.71412826559e-07