/*--------------------------------*- C++ -*----------------------------------*\
| =========                 |                                                 |
| \\      /  F ield         | OpenFOAM: The Open Source CFD Toolbox           |
|  \\    /   O peration     | Version:  v1806                                 |
|   \\  /    A nd           | Web:      www.OpenFOAM.com                      |
|    \\/     M anipulation  |                                                 |
\*---------------------------------------------------------------------------*/
FoamFile
{
    version     2.0;
    format      ascii;
    class       volScalarField;
    location    "11";
    object      rho;
}
// * * * * * * * * * * * * * * * * * * * * * * * * * * * * * * * * * * * * * //

dimensions      [0 0 0 0 0 0 0];


internalField   nonuniform List<scalar> 
12225
(
0.583214971174
0.64257777118
0.623848737975
0.623378353845
0.611646007832
0.607210638906
0.601201870285
0.597026698388
0.59472237104
0.595474110519
0.600802059974
0.609393684504
0.616451589177
0.62845233308
0.65181408229
0.681243588114
0.71816970415
0.750151890889
0.745181639519
0.692375624042
0.658363255124
0.663299429119
0.653761084214
0.65110132148
0.646965231985
0.644227931738
0.642517655747
0.642553515417
0.645730378223
0.651865980675
0.658413957467
0.668193107563
0.685334177101
0.70666511023
0.729472264087
0.731962094641
0.613983731118
0.670628757696
0.655603725599
0.656274591349
0.646768550378
0.643206733305
0.638561680201
0.63534443825
0.633086456745
0.632305201339
0.633733182209
0.637539819636
0.643214152137
0.65220457476
0.666473472907
0.683575897443
0.698768238022
0.693719693029
0.655748807975
0.685948348286
0.658410503508
0.664416297341
0.655413473792
0.6535106203
0.650105128983
0.647952515907
0.646431998026
0.645989289102
0.646995503429
0.649662145138
0.654119006939
0.661164759962
0.671401730772
0.682520366153
0.689357121928
0.680239145405
0.64062827497
0.684726740364
0.660583946683
0.667193434417
0.659225949966
0.658282742438
0.655823919634
0.654628953333
0.654073415927
0.654500568352
0.65607763941
0.658923998675
0.663243620622
0.669357390139
0.677012007888
0.683897503407
0.685550230975
0.675699852601
0.643348080293
0.688439990724
0.663452880926
0.671537406808
0.664123296053
0.663949968733
0.662091798102
0.661470457533
0.661437674161
0.662270920833
0.664042344477
0.666801339003
0.670668966735
0.675643738686
0.681031306147
0.684685060205
0.68331437211
0.67398292554
0.643522615472
0.690205524877
0.665968886807
0.675019907709
0.668237277792
0.668735485559
0.667399832417
0.667242407899
0.667586253035
0.668659332905
0.670474495953
0.673025253581
0.676301856822
0.680097053761
0.683548636335
0.684850470217
0.681814605506
0.673261137279
0.644421165153
0.691583812954
0.668090092798
0.677920191178
0.671703120333
0.672759333333
0.671842215378
0.672031115597
0.672599145868
0.673753855872
0.675477663385
0.677714200951
0.680336699854
0.68301870308
0.684885719127
0.684542655333
0.680629876378
0.672872214959
0.645245944827
0.692399411351
0.669771922143
0.680184602328
0.674490761673
0.676025042473
0.675455119476
0.675890753465
0.676563926685
0.677687072107
0.679225808018
0.681071270688
0.683015360281
0.684679900407
0.685290000531
0.683808102065
0.679476581082
0.672397016696
0.645830159419
0.6927259014
0.670900712512
0.681739802721
0.676490722716
0.678419096846
0.678107709813
0.678694351592
0.679397695959
0.680435606543
0.681734986133
0.683138590757
0.684397677653
0.685151636186
0.684770838075
0.682526367112
0.678040904586
0.671602211183
0.645506751146
0.692795311343
0.671180732781
0.682408887425
0.677415329312
0.679574728264
0.679360420775
0.679992134205
0.680662505703
0.681559148035
0.682570081588
0.683535316862
0.684212097365
0.684292525086
0.683285738226
0.680702581095
0.676400922562
0.670687228677
0.641300738142
0.692662037867
0.669627111403
0.681466422975
0.676413756958
0.67868265527
0.678497725275
0.679143014277
0.679731868073
0.680480138562
0.681333529029
0.682113188626
0.68257080617
0.682416647271
0.681275837552
0.678811460847
0.674966852956
0.670039622502
0.637856258676
0.691954729608
0.668079415715
0.6803511413
0.675481570596
0.677932797554
0.677859849071
0.678595085782
0.679287287967
0.680129071885
0.681006132737
0.681736710189
0.682041652436
0.681713538049
0.680443747093
0.678031877724
0.674513242105
0.670149052888
0.633713042385
0.691077702271
0.666330446028
0.679159565401
0.674512367902
0.677330779347
0.677578433615
0.678548686221
0.679365450283
0.68022317194
0.681001181054
0.681504226956
0.681491404239
0.680820503076
0.679330836389
0.676901485536
0.673676044677
0.669798052434
0.628355189176
0.690119086234
0.664143433575
0.677717095239
0.673300814097
0.676551863967
0.677163208189
0.678409483138
0.679369473108
0.680201744279
0.680820769869
0.681023032642
0.680631231514
0.679627795743
0.677935695434
0.67553247147
0.672573941218
0.669196491953
0.622750811519
0.689089905214
0.661654385509
0.675957283751
0.671666190558
0.675289703369
0.676173807375
0.67762523054
0.678652799752
0.679448453286
0.679883382201
0.679841507371
0.67916265462
0.677956011631
0.676181870504
0.673893311153
0.671224528087
0.668268862186
0.617716802973
0.688153583663
0.659141789679
0.674032562814
0.669715137691
0.673562773554
0.674565704863
0.67608644721
0.677097967871
0.677786707613
0.67808288142
0.677859366003
0.677033998968
0.67574310734
0.674017415334
0.671887787137
0.669522164168
0.666911670462
0.612992258766
0.687434224135
0.656759207903
0.672123044877
0.667634243662
0.671555755265
0.672527518692
0.674015843492
0.67494576331
0.675524716426
0.67570203832
0.675369314076
0.674479044519
0.673199161677
0.671571649914
0.669622339993
0.667514021269
0.665206453852
0.610413661198
0.687327424252
0.655507252356
0.671051104397
0.666276736054
0.670056641527
0.670807068369
0.672094894979
0.672814176829
0.673193047211
0.67319646999
0.672738245007
0.67178476916
0.67051846808
0.668974184017
0.667165535263
0.665244186343
0.663161469575
0.615900786285
0.688005535993
0.657128156143
0.671807900245
0.666552742424
0.669658586887
0.669766319803
0.670397158693
0.670524628067
0.670376968788
0.669949819853
0.669174252118
0.668012491045
0.666632621891
0.665064512089
0.663311686235
0.66151023381
0.659621592755
0.620129042808
0.689061440549
0.659033602565
0.673086273224
0.667460276779
0.670028534584
0.669627866009
0.669783118788
0.669457765856
0.668937308604
0.668209349305
0.667228749374
0.665923424234
0.66448579796
0.662906031775
0.661207406859
0.65948257125
0.657719331312
0.623489975461
0.690184644807
0.660859020264
0.674379898706
0.66846091589
0.670559954035
0.669745475578
0.669487108548
0.668807821027
0.667987804627
0.6670148495
0.665867899424
0.664461492051
0.662964604671
0.661379864488
0.659705954114
0.658041115512
0.656339809714
0.627293859411
0.691454024854
0.662715161706
0.67572964185
0.669518549022
0.671161624555
0.66994971464
0.669313500677
0.668305669639
0.66719630284
0.66601776356
0.664702940133
0.66318546963
0.661612499617
0.660010273789
0.658328095274
0.656688587641
0.655031213327
0.630681338374
0.692602381743
0.6647077184
0.677112982687
0.670616787528
0.671820172215
0.670233330482
0.66923271327
0.66792387226
0.666573289622
0.665189919223
0.663733198023
0.662115141443
0.660487819231
0.658833135613
0.657138803885
0.655489473911
0.653890810121
0.636522917179
0.694420082918
0.666417375116
0.678266518699
0.671496627506
0.672248419102
0.670306229863
0.668991796248
0.667406043146
0.665814094962
0.664229402164
0.662631231568
0.660899929273
0.659181920554
0.657468267365
0.65570185394
0.653965182049
0.652240560767
0.63247061425
0.693546450884
0.669769336216
0.680255754179
0.673491203227
0.673839125871
0.671667098966
0.670099331178
0.668303054882
0.666517226476
0.664786533075
0.663084099955
0.661298061184
0.65953681396
0.657795274369
0.656031017299
0.654311744673
0.652810186286
0.66975823985
0.701008371556
0.670603516071
0.681369208177
0.674007977883
0.673889620298
0.671313447537
0.66938034623
0.667233401995
0.665091729933
0.662978881212
0.661031323424
0.659066641019
0.657120645449
0.655239579063
0.653325545668
0.651386789439
0.649239538877
0.590109712053
0.687782349277
0.681458339909
0.686524783209
0.680432687707
0.679898880339
0.677551318769
0.675820488387
0.673969264919
0.672128814771
0.670438081478
0.668868863008
0.66722753008
0.66559772725
0.663987502635
0.662246566779
0.660405876722
0.658992120918
0.806287168613
0.715650345296
0.685105162036
0.693218152925
0.686298545567
0.685406528174
0.682340771229
0.679651311452
0.676565881444
0.673236219084
0.669769186303
0.666528859196
0.663251490432
0.659845061324
0.656398569607
0.652901705171
0.649316614232
0.645826992547
0.646806862492
0.676087879951
0.672679554292
0.674125486711
0.666521443919
0.665595844961
0.663048401482
0.661096832207
0.659113136748
0.657380996991
0.655999749552
0.654713227163
0.653360667942
0.652337484504
0.651643116472
0.651075246099
0.650805563381
0.650071352004
0.50015058021
0.499791159551
0.499609897821
0.499630951071
0.499838431754
0.500191817281
0.500607310337
0.501043651549
0.501474853987
0.501883993095
0.502260439607
0.5025980875
0.502893943332
0.503147194186
0.503358503119
0.503529775924
0.503663415337
0.503762730826
0.50383073874
0.503870441444
0.50388510498
0.503876981947
0.503849372905
0.503803008579
0.503739873078
0.503659545795
0.503563742941
0.503452208555
0.503325734723
0.503183555257
0.503026099716
0.502852926002
0.502664613522
0.502460464257
0.502240859765
0.50200606358
0.501757331535
0.501494072082
0.501217579373
0.500928060211
0.500626967674
0.500315199165
0.499994485539
0.499666593708
0.49933363639
0.498998202476
0.498662837487
0.49833059807
0.498004630049
0.497687748648
0.497382642148
0.497090462269
0.49681419576
0.496557788759
0.496326407154
0.496124953683
0.495958634064
0.495832604793
0.4957521633
0.495722330926
0.495746930642
0.495826790836
0.495962320555
0.496155026789
0.496404469554
0.496708436782
0.497065311546
0.497473220497
0.49792902824
0.498429932477
0.498971634945
0.499550132564
0.500160519526
0.500798372641
0.501458782199
0.502137531342
0.502830337846
0.503532437246
0.504239787101
0.504949584813
0.505659575768
0.506366418304
0.507067996095
0.507761729006
0.508448535104
0.509125929557
0.509794177801
0.510459520486
0.511118479826
0.511774666296
0.512428389824
0.513079648447
0.513730103244
0.514352271962
0.514930122577
0.515500119559
0.51609274456
0.51669202325
0.517294702062
0.517894292587
0.518596305602
0.519379742344
0.519418921869
0.51934646056
0.519435982144
0.519749539437
0.52025002203
0.520467675906
0.520786076972
0.521077001659
0.521330075727
0.521550006173
0.521745932822
0.521923476377
0.52208687755
0.52223892883
0.522382497054
0.522520723544
0.522654425339
0.522782521443
0.52290157107
0.523010259394
0.523109863315
0.523201464539
0.5232879253
0.523370514238
0.52345000879
0.523526919242
0.523601601722
0.523674353033
0.523745509871
0.523815262966
0.523883734052
0.523950816735
0.524016459746
0.524080448219
0.524142664188
0.524203399253
0.524262096915
0.524318463451
0.524370538593
0.524419620438
0.524464868532
0.524504835779
0.524537889958
0.524562263206
0.524576884166
0.524580975627
0.524573844428
0.524554933783
0.524523128807
0.524476864752
0.524414386497
0.524334036465
0.524234017205
0.524112484518
0.52396737848
0.523796461269
0.523596793235
0.523364782455
0.523095041081
0.52278183938
0.522417141843
0.52198966754
0.521483977644
0.520883136208
0.520166315215
0.519317156675
0.518322660166
0.517160207977
0.515816936486
0.514296372106
0.512616180277
0.510816369728
0.508955234041
0.506976592603
0.504932664832
0.502902092101
0.500995108679
0.499517392515
0.500050880756
0.499816082492
0.499904069555
0.500184594361
0.50053160885
0.500889462148
0.501235548215
0.501558864068
0.501855348784
0.502123285622
0.50236239608
0.50257181237
0.50275197483
0.502902887463
0.503025584558
0.503121018202
0.503190916091
0.503237127155
0.503262195249
0.503267775777
0.503256563098
0.503230149018
0.503191067422
0.503139686761
0.503077592926
0.503004082344
0.502920216542
0.502825296732
0.502719341163
0.502601182716
0.502470877749
0.502327573484
0.502170883004
0.501999758475
0.501814669988
0.501614995755
0.501401121668
0.501172819947
0.500930608
0.500674371121
0.500405034882
0.500123333027
0.499830638143
0.499528602975
0.499219314092
0.498905372462
0.498589924524
0.498276347128
0.49796899398
0.497672699538
0.497394762042
0.497139880974
0.496910643332
0.496709667946
0.496540517652
0.496406673322
0.496311593
0.496260606457
0.49625929336
0.496309374785
0.496411996622
0.49656927782
0.496781174133
0.497045293359
0.497362013823
0.497731163235
0.498151395037
0.498621381958
0.49913945546
0.499704031554
0.500312818251
0.500963490162
0.501652676374
0.502376912986
0.503132249135
0.503914240919
0.504717960571
0.505538245597
0.506369602065
0.507207879738
0.508049634292
0.50889054677
0.509725793848
0.510552866325
0.511372805862
0.512179928467
0.512967330159
0.51374494892
0.514534503736
0.515318979683
0.516069773665
0.516822486803
0.517619313567
0.518431879061
0.519176455785
0.519849215914
0.520559983238
0.521125625054
0.521687502462
0.522281324625
0.522847618216
0.523548830554
0.524036708733
0.524569470077
0.525047243219
0.525487729144
0.525723963117
0.525886195796
0.526027966381
0.526194548698
0.52638697737
0.526586250935
0.526788902101
0.526992595594
0.527197033279
0.527402194111
0.527609311131
0.527820021222
0.528034770096
0.528250594231
0.528463426683
0.528671215759
0.528873685764
0.529072360555
0.529269023519
0.529464473058
0.529659266638
0.529853688229
0.530048092537
0.530242642413
0.530437387027
0.530632324343
0.530827559339
0.531023144873
0.531219313691
0.531416385321
0.531615072052
0.531816290594
0.532020772507
0.532228105605
0.532437911629
0.532651332461
0.532868729232
0.533089813056
0.533313688847
0.533539882727
0.533768729524
0.534001133254
0.534238226687
0.534480933895
0.534730278523
0.534987381421
0.535253358803
0.535528777388
0.535813380207
0.536106240615
0.536405298043
0.536707883963
0.537010336802
0.537309287338
0.537599669335
0.537875870735
0.538132395823
0.538365099949
0.538570187263
0.538744635263
0.538892165998
0.539005174734
0.539084889604
0.539133231114
0.53914876214
0.539124140626
0.539048936919
0.538918585224
0.538663776193
0.538376951432
0.538038974869
0.537660970861
0.537288098835
0.536899350736
0.500412408478
0.500325788927
0.500362263432
0.500493668489
0.500639271866
0.500763568366
0.500873004915
0.50097492735
0.50107478671
0.501173698575
0.501271235247
0.50136550359
0.501454458402
0.501535909551
0.501608229079
0.50167008687
0.501720885242
0.501760256188
0.50178856127
0.501806221501
0.501814128471
0.501812289359
0.50180224692
0.501783628089
0.501756855513
0.501721198157
0.501676907132
0.501622772096
0.50155847038
0.50148273489
0.501395132381
0.501294328308
0.501180107313
0.501051539848
0.500908429176
0.500750354755
0.500577848315
0.500390411579
0.500188650024
0.499972866239
0.499743954014
0.499502902592
0.499251190507
0.498990615285
0.498723373021
0.498452021039
0.498179635188
0.497909557586
0.497645568079
0.497391731321
0.497153924953
0.496938262123
0.496751415768
0.49659763757
0.496480199389
0.49640167671
0.496364201392
0.49636751583
0.49641058126
0.496494796758
0.496622681997
0.496796294498
0.497020170188
0.49729799989
0.497631006642
0.498021733073
0.498471966816
0.49898217862
0.499551123561
0.500176535813
0.500854658993
0.501580823437
0.502349495905
0.503154677584
0.503990110188
0.50484942372
0.505726366385
0.506614687269
0.507508407664
0.508401738011
0.509291461671
0.510173594056
0.511042690204
0.511895008438
0.512733482304
0.513558897197
0.514356426062
0.515122665586
0.515881443663
0.516643061157
0.517374189165
0.518047871461
0.518741350137
0.519433518823
0.520091249778
0.520716946232
0.521284248213
0.521696817993
0.522186131355
0.522867793679
0.523627518294
0.524145372711
0.524373887714
0.524595097199
0.524688177274
0.52485527583
0.525177752735
0.525650292635
0.526107567988
0.526506501289
0.526865650821
0.527193271189
0.527498801114
0.527787545161
0.528063423305
0.528329174246
0.52858756791
0.52884084288
0.52908967295
0.529331755236
0.529564655823
0.529787788603
0.530002486106
0.530210990119
0.530414421833
0.530613459563
0.530808513973
0.530999880483
0.531187804687
0.531372676949
0.531555045338
0.531735390297
0.531914054259
0.532091299789
0.532267408856
0.532442806265
0.532618064895
0.532793503897
0.532969087524
0.533143391582
0.533316100299
0.533488056855
0.533660451501
0.533833018509
0.534004339274
0.534173311663
0.534339479652
0.534502914076
0.534663591033
0.534821465006
0.534976446481
0.535128628689
0.53527794203
0.535424454929
0.535568434191
0.535710405733
0.535851098976
0.535991662572
0.536133245267
0.536277499672
0.536426090021
0.536580634606
0.536742738065
0.536914163322
0.537096235088
0.537290519064
0.537499916035
0.537725157377
0.537963167696
0.538210986859
0.538463394404
0.538709649015
0.538936191893
0.539116565609
0.53922358408
0.539239726452
0.539148766344
0.538950181754
0.538694822057
0.538534198195
0.500859289795
0.500750923615
0.500525253336
0.500424451486
0.50038655037
0.50035834247
0.500345105299
0.500350420212
0.500375871224
0.500420271674
0.500480853662
0.500553492496
0.500634559501
0.500720303182
0.500807788304
0.500894387386
0.500978271798
0.501057983689
0.501132930335
0.501202028407
0.501265569611
0.501323169662
0.501374951562
0.501420227842
0.501459345454
0.501490885829
0.501514532375
0.501528977842
0.501533462542
0.501526372965
0.501506881229
0.501473683239
0.501425977714
0.501362454594
0.50128320645
0.501187311341
0.501074856171
0.500945696713
0.500800398738
0.500639218978
0.500463302923
0.5002738602
0.500072729284
0.499862118486
0.499644691126
0.499423554653
0.499202364678
0.498984853386
0.498775365452
0.498578571544
0.498399012855
0.498240131212
0.498107523983
0.498005975905
0.497939928057
0.497913098078
0.497928913523
0.497989037123
0.498092090744
0.49823537518
0.498418295598
0.498641936237
0.498909379115
0.49922442328
0.499591321555
0.500013122162
0.500491739962
0.501028199758
0.501622318414
0.502272498448
0.502975776012
0.503727639865
0.504522185685
0.505353086563
0.506213484623
0.507095496127
0.507991991528
0.508897418761
0.509804474946
0.510706027223
0.511599236927
0.512484033636
0.513351473196
0.514191336373
0.515011009613
0.515817618785
0.516596376903
0.517313453927
0.518015024894
0.518711760096
0.519370221446
0.519974441388
0.520537255514
0.521079917705
0.521571719435
0.522063816972
0.52261837562
0.5232312306
0.523953863186
0.524643204908
0.525104197238
0.525249605926
0.525327570531
0.525466623551
0.525619970693
0.525920113167
0.526398048238
0.526993278298
0.527568361923
0.52806628716
0.528495126623
0.52886957132
0.529204466652
0.529509822471
0.529792779484
0.530058552645
0.530311355936
0.530554457068
0.530788778784
0.531013160049
0.531226412404
0.531429441569
0.531625104621
0.531815498857
0.53200156484
0.532183713764
0.532362292844
0.532537667954
0.532710294984
0.532880625931
0.533049381325
0.533217130663
0.533384144242
0.533550753735
0.533717408611
0.533884727021
0.534053202939
0.534222844773
0.534392737189
0.534561335805
0.534728130859
0.534894668511
0.535062857233
0.53523272207
0.535403145348
0.535573163702
0.535742447417
0.535911090032
0.53607927894
0.536247231694
0.536415095723
0.536583026369
0.536750860952
0.536918461361
0.537085715779
0.537252477142
0.537418442966
0.537583090458
0.537745759557
0.537905742271
0.538062620145
0.538215919157
0.538365185298
0.538510576375
0.538652690321
0.538793079592
0.538935284299
0.539081731515
0.539234499997
0.539396928317
0.539570550206
0.539753099727
0.539940022977
0.54012213882
0.540280190941
0.540406984068
0.540491318854
0.540538208988
0.540605212691
0.540820423752
0.501382646895
0.500823262654
0.500235004766
0.500022776891
0.499958407618
0.49991733679
0.499893915413
0.499889339184
0.499907032965
0.49994647582
0.500006230915
0.50008322976
0.500174302069
0.500275758313
0.50038464063
0.50049787866
0.500613437253
0.500729030295
0.500843499253
0.500955686506
0.501065053305
0.501170363608
0.501271922252
0.501368516535
0.501459675128
0.501544328706
0.501621864469
0.501690606111
0.501749639351
0.501797335322
0.501832690757
0.501853976817
0.501860557323
0.501851243101
0.501825473222
0.501782475761
0.50172252026
0.501644990578
0.501550415371
0.501439087567
0.501312012613
0.501170247577
0.501015523535
0.500849806229
0.500675607073
0.500495648433
0.500313284628
0.500132027368
0.499955665443
0.499788586872
0.499636702462
0.499504140438
0.499396059219
0.499317457187
0.499272277547
0.499263961385
0.499296312618
0.49937185303
0.499491064271
0.499655433611
0.499866185652
0.500123846993
0.500429318551
0.500783954722
0.501190301385
0.501651372828
0.502169676517
0.502746763494
0.50338225185
0.504074511723
0.50482020614
0.50561443606
0.506449778643
0.507319922376
0.508217708834
0.509134128547
0.510060052915
0.510991629709
0.51192463161
0.512845704954
0.513747915247
0.514640645868
0.515516743522
0.516357035594
0.517172309561
0.51797603742
0.51874732387
0.519466354732
0.52012500965
0.520759100515
0.521386402233
0.52195483838
0.522503497177
0.523016284522
0.523548989142
0.524189668623
0.524892728686
0.525581487695
0.526172779009
0.526524126772
0.526622565654
0.526600812462
0.526663712327
0.526839552853
0.527098922143
0.527479225184
0.527960849991
0.528490612077
0.528997204661
0.529448546769
0.529843910406
0.530191486709
0.530502154766
0.530784612463
0.531045603656
0.531290278227
0.531522705903
0.531745602395
0.531959461583
0.532163285986
0.532356527848
0.532540950712
0.532719484583
0.532893801201
0.533064368873
0.533231227106
0.53339444983
0.533554247389
0.53371099686
0.533865157262
0.534017147697
0.53416734859
0.534316167916
0.534463969995
0.534611318333
0.534758877294
0.53490694072
0.535054995091
0.535201232194
0.535343980989
0.535482778268
0.535620024024
0.535758034802
0.535897262283
0.536036998952
0.536176415266
0.536315245366
0.536453548789
0.536591551746
0.536729523449
0.53686763425
0.537006023372
0.537144841083
0.537284184472
0.537424149484
0.537564693796
0.537705784534
0.537847390604
0.537989368873
0.538131573434
0.538274131117
0.538417144295
0.538560794187
0.538705659656
0.538852388788
0.539002055558
0.539157037942
0.539318549986
0.539487093517
0.539664179929
0.539849061059
0.540038303357
0.540228188384
0.540411676304
0.540577746611
0.540723647862
0.540851597123
0.540981198607
0.541179143621
0.541558568765
0.501881093822
0.500332145255
0.4995066549
0.499469961066
0.499555919969
0.499598714827
0.499621298948
0.499641877624
0.499674127355
0.499723680101
0.499792673556
0.499879248337
0.499981614949
0.500096432413
0.500221317436
0.500353203173
0.500490146333
0.500629869717
0.500771235887
0.500912278948
0.50105265974
0.501191238939
0.501327333098
0.501459833165
0.501588504288
0.501711597902
0.501828304474
0.501937029793
0.502036623056
0.502125261998
0.502201763676
0.502264589003
0.502312702769
0.502344665039
0.502360303184
0.502358605778
0.50233953254
0.502302866426
0.502249192692
0.502178784435
0.502092907478
0.501992720308
0.501880170537
0.501757308831
0.501626754888
0.501491212763
0.501354014834
0.501218307777
0.501087816177
0.500966847827
0.500861148588
0.500774857865
0.500713660042
0.500682776559
0.500686916369
0.500730301667
0.500816839905
0.500946011203
0.501116520705
0.501327697713
0.501579870443
0.501873434539
0.502210016259
0.502591033172
0.503020881815
0.503503470649
0.504042785879
0.50464154454
0.505299961486
0.506015654912
0.50678662768
0.507607315211
0.508468926905
0.509362911133
0.510285072086
0.511225293016
0.512169394496
0.513111299288
0.51405407722
0.514987504296
0.515886058183
0.516784219653
0.517664340884
0.518512026423
0.519314932767
0.520068075602
0.520793387688
0.521484254111
0.522141089335
0.522782480178
0.523366754053
0.5239382
0.524573636879
0.525215983222
0.525875904023
0.526522367261
0.527092217171
0.52753566495
0.5278284107
0.527940132058
0.527946395472
0.527976509089
0.528115481157
0.52835005624
0.52865905847
0.529041665233
0.529473043404
0.529920501001
0.530350158991
0.530745317119
0.531102075342
0.531422885558
0.531713315888
0.53197894008
0.53222467479
0.532454654266
0.532672290018
0.532879514758
0.533076599762
0.533262700557
0.5334379677
0.533604837941
0.533766011788
0.533922991092
0.534076155278
0.534225526856
0.534371138653
0.534513187639
0.534652017118
0.534788069192
0.534921794811
0.535053819082
0.535184677369
0.535314915708
0.535445237994
0.535576366855
0.535708442589
0.535840331157
0.535969938665
0.536095208621
0.536216215501
0.536335530447
0.53645546828
0.536576720239
0.536698726302
0.53682084591
0.53694277889
0.537064521322
0.537186200889
0.537307799928
0.537429378666
0.537550982335
0.537672663281
0.537794543311
0.537916678588
0.53803916234
0.538162048867
0.538285412715
0.538409240513
0.538533567405
0.538658650427
0.538784729833
0.538912195441
0.539041867392
0.539174666028
0.53931186808
0.539455770197
0.53960769882
0.539768359935
0.539939291387
0.540119639932
0.540306324752
0.540496656706
0.54068552689
0.540864209179
0.541032556688
0.541196632647
0.541380282149
0.541646897793
0.542084618987
0.502195681653
0.499224815962
0.498550416556
0.498991413963
0.499289221738
0.499426073006
0.499500939234
0.499558583722
0.499623658773
0.499703399869
0.499801266655
0.499915799494
0.50004582061
0.500188182831
0.500341075382
0.500501515274
0.500668028534
0.500838107323
0.501010760435
0.501184514337
0.501358587474
0.501531419079
0.501702978473
0.501871755195
0.502037006608
0.502197511878
0.502352392205
0.502499839733
0.50263878755
0.502767471095
0.502884741839
0.502988808726
0.503078895129
0.503153774796
0.50321279759
0.503255221257
0.503281247061
0.503290392748
0.503283321662
0.503260474739
0.503223098488
0.503172343294
0.503110101723
0.503038221633
0.502959067633
0.502874769918
0.502788122929
0.502701626374
0.502617941726
0.502540339882
0.502475273581
0.50242622322
0.502399563938
0.502402610496
0.502441888223
0.502523457756
0.502650730262
0.502820670452
0.50303179118
0.503282446278
0.503571853324
0.503897892855
0.504261314024
0.50466475645
0.50511520979
0.50561685423
0.506175285746
0.506794919274
0.507475547513
0.508213271108
0.50900519974
0.509848733253
0.510731292635
0.51163894604
0.512568833121
0.513515017437
0.514462258597
0.515404263343
0.51634991827
0.517281014213
0.518187653182
0.51905448365
0.519876774434
0.520679604244
0.521452345984
0.522183381975
0.522871056915
0.523515989576
0.524155326404
0.524813735423
0.525448818749
0.526096041534
0.526747755748
0.527360577702
0.527933234247
0.528414815729
0.528779850561
0.529021603524
0.529164575601
0.529231594264
0.529295272085
0.529420801167
0.529625446263
0.5298896149
0.530200108379
0.530549942295
0.530923173482
0.531301804453
0.53166852479
0.532013191115
0.532331305497
0.532622530321
0.532889062281
0.533134073989
0.533360910081
0.533572876938
0.533772643006
0.533961694921
0.534140078082
0.534307314326
0.534464215025
0.534613191125
0.534756714369
0.534896084847
0.535031710098
0.535163630323
0.53529189667
0.535416681029
0.535538323683
0.535657295073
0.53577410191
0.535889292417
0.53600334344
0.536116877198
0.536230673444
0.536345454296
0.536461099881
0.536576064106
0.536687971748
0.536794816334
0.536897193537
0.536997627326
0.537098417473
0.537200232938
0.537302683168
0.537405327958
0.53750799018
0.537610779154
0.537713699987
0.537816819184
0.537920135223
0.538023710245
0.538127611063
0.53823189474
0.538336663659
0.538442054609
0.538548171763
0.538655138766
0.53876301097
0.53887192716
0.538982230692
0.539094248316
0.539208482492
0.539325837434
0.539447353717
0.53957431389
0.539708877505
0.539852294158
0.540005332423
0.540169424035
0.540343886178
0.540526090492
0.540714402106
0.540905541818
0.541093469891
0.541280197425
0.541474641288
0.541702330963
0.542019700519
0.542492173977
0.502212262512
0.497661466619
0.497665789503
0.498724543948
0.499157949511
0.499359824926
0.499488539803
0.499599960229
0.499718498973
0.499849375541
0.499995893853
0.500155665114
0.500328475898
0.500511252196
0.500703054765
0.50090109507
0.501104394969
0.501310744338
0.50151955825
0.501728853787
0.501938401379
0.502146812014
0.502353403647
0.502557067319
0.502757544251
0.502953115244
0.5031431074
0.503326029339
0.503500879825
0.503665979379
0.503820339049
0.503962580209
0.504091826728
0.504206878725
0.504307612888
0.50439320453
0.504463725364
0.504519126909
0.504560072296
0.504586955524
0.504601103296
0.504603587063
0.504596110224
0.504580192511
0.504557592715
0.504529725181
0.504498067853
0.504463826426
0.504428389279
0.504393412209
0.504364077666
0.50434646833
0.504348677549
0.504382444116
0.504459569842
0.504590436808
0.504775597527
0.505008457023
0.505284962227
0.505600144836
0.505947066382
0.506318212489
0.506709422116
0.50712993864
0.507588658344
0.508093580023
0.50865258046
0.509274665796
0.509963200935
0.510710107277
0.511507890454
0.512357440266
0.513248571516
0.514154927415
0.515091243649
0.516043560843
0.516989138333
0.517919892483
0.518823527745
0.519694142587
0.52055162191
0.521382539721
0.522173862537
0.522925369862
0.523633295885
0.52430219719
0.524954323159
0.525610215208
0.526273560145
0.526929892336
0.527548658996
0.528154013632
0.528709470332
0.529199894742
0.529624243035
0.529956265205
0.530196801608
0.530358913768
0.530477314187
0.530582774252
0.530717744684
0.530902697421
0.531132585344
0.531394333383
0.531681414972
0.531989259581
0.53230931767
0.532631534324
0.532945936023
0.53324548631
0.533526062431
0.53378620368
0.534026393884
0.534248234304
0.53445398947
0.534646182478
0.534826833259
0.534996972062
0.535156508896
0.535305213703
0.535444176458
0.535575633755
0.535701687494
0.535823528006
0.535941625549
0.536056102465
0.53616705431
0.536274658363
0.536379238466
0.536481223164
0.536581080579
0.536679307861
0.536776439243
0.536873151645
0.536970346943
0.537068673078
0.537167714547
0.537265690645
0.537360062527
0.537449258719
0.537534113913
0.537617032963
0.537700072655
0.537783839969
0.537868128954
0.537952645907
0.538037395601
0.538122455212
0.538207910645
0.538293783403
0.53838003714
0.538466693718
0.538553788222
0.538641412239
0.538729690291
0.538818793878
0.538908872901