/*--------------------------------*- C++ -*----------------------------------*\
| =========                 |                                                 |
| \\      /  F ield         | OpenFOAM: The Open Source CFD Toolbox           |
|  \\    /   O peration     | Version:  v1806                                 |
|   \\  /    A nd           | Web:      www.OpenFOAM.com                      |
|    \\/     M anipulation  |                                                 |
\*---------------------------------------------------------------------------*/
FoamFile
{
    version     2.0;
    format      ascii;
    class       volScalarField;
    location    "11";
    object      sensitivity;
}
// * * * * * * * * * * * * * * * * * * * * * * * * * * * * * * * * * * * * * //

dimensions      [0 2 -3 0 0 0 0];


internalField   nonuniform List<scalar> 
12225
(
-1.18749338677
-9.67322509201
-5.06884462342
-6.59904629526
-6.17527783333
-6.54167749701
-6.72243457933
-6.97172670986
-7.14828900374
-7.22810653903
-7.17274641274
-6.98364327059
-6.72293860148
-6.68109509953
-7.5234073231
-10.2562569883
-15.1152543158
-17.7716964581
-19.944178263
-6.1650878238
-8.83810469957
-7.96433185993
-8.56498884
-8.88561354665
-9.40491298879
-9.96476971954
-10.5352765353
-11.0729061583
-11.5683078097
-12.0569254683
-12.6280451185
-13.54186675
-15.3183789274
-18.5381172395
-22.5531989438
-22.7666689512
14.2312121569
-11.444968403
-6.88029573755
-8.02830809098
-7.82811596022
-8.06415770132
-8.28190127327
-8.49643217372
-8.64615107271
-8.70914767455
-8.70978986171
-8.71435462602
-8.85707267763
-9.44518262972
-10.9847157854
-13.8623253157
-17.1763003284
-17.5292461491
-15.858833113
-10.0834225738
-8.17712747511
-8.80998490638
-8.82981993713
-9.1359130187
-9.40213034178
-9.67097676999
-9.87182346903
-9.98993467039
-10.0258474537
-10.0263790674
-10.1120035447
-10.5337127154
-11.6395155594
-13.5391510002
-15.3034873572
-14.8870341911
-2.78597406269
-8.7736308996
-8.28711195553
-8.43258847238
-8.52427012114
-8.694916126
-8.91550993169
-9.1472577124
-9.36061977735
-9.53744006007
-9.67832638998
-9.82160970887
-10.0701968044
-10.6116694443
-11.6358823284
-13.0316610786
-13.9707147773
-13.3288003675
-8.09122003243
-9.54506726962
-8.70175478039
-8.95088385696
-8.97043341428
-9.09092470926
-9.23371806784
-9.38497940021
-9.52016412514
-9.63298684251
-9.73265738988
-9.86308605716
-10.1165456922
-10.6267943947
-11.4670476337
-12.4253492021
-12.871527167
-12.2431817429
-7.96472545903
-9.24827379845
-9.02240532316
-9.12346618091
-9.19065344216
-9.27760379961
-9.39597799071
-9.5144899928
-9.62127480566
-9.71357129395
-9.80431129406
-9.93589037039
-10.1821104803
-10.6245941993
-11.2586243747
-11.8597705639
-12.0060611111
-11.4472573055
-8.73189290023
-9.3299251602
-9.29401815125
-9.33489203231
-9.41058867989
-9.46712376492
-9.55638323429
-9.6429751754
-9.72279163745
-9.79615249863
-9.8771804001
-10.002857096
-10.2254912243
-10.5827850686
-11.0265185001
-11.3640050282
-11.3378840469
-10.8539095074
-9.29783325425
-9.4105834236
-9.53904572863
-9.52370162492
-9.60803267375
-9.64039453188
-9.70591427377
-9.76593232675
-9.82259831362
-9.87841291414
-9.94699373047
-10.0578145352
-10.2428107475
-10.508469689
-10.7908077191
-10.9443227755
-10.8238680415
-10.4047327784
-9.77047315815
-9.50795153766
-9.75337313256
-9.69384712468
-9.7815503961
-9.7952390016
-9.84089805137
-9.87886919245
-9.91532109397
-9.9541372199
-10.0069469058
-10.0949561076
-10.2334256092
-10.4104459001
-10.5640601725
-10.5939884274
-10.4242343261
-10.0589634595
-10.1926250547
-9.59447457098
-9.93233330172
-9.8344293718
-9.92194076119
-9.92187787546
-9.95164639116
-9.97221694285
-9.99189172426
-10.0150612152
-10.0503192756
-10.1110641842
-10.2006668223
-10.2991353542
-10.3550416342
-10.3041051751
-10.1104822424
-9.78766259288
-10.4210575703
-9.67412891909
-10.0282245707
-9.91514088997
-9.99526701835
-9.98769666263
-10.0056723502
-10.0142726124
-10.0213113545
-10.0312947002
-10.0495378627
-10.0836228964
-10.1308034961
-10.1697472953
-10.1609664682
-10.0639262967
-9.86264990153
-9.57314715655
-10.5206278116
-9.73964791079
-10.0724460193
-9.95675929048
-10.0270537864
-10.0161337004
-10.0253502401
-10.0254959817
-10.0227047204
-10.0213722728
-10.0234821457
-10.0332587471
-10.0436238484
-10.0356152069
-9.98073037558
-9.85462856041
-9.65336487073
-9.39179461047
-10.5688434396
-9.7881527659
-10.0856811182
-9.97283622497
-10.0278917572
-10.0130857906
-10.0124117408
-10.0041008945
-9.99103291898
-9.97717848073
-9.96276883719
-9.94827990857
-9.92556163291
-9.8791834833
-9.79007186262
-9.64593271686
-9.44950350707
-9.21505578754
-10.5858904523
-9.82854654492
-10.0857113938
-9.98110287033
-10.0167849165
-9.99705570797
-9.98411002179
-9.96546735909
-9.93996068131
-9.91230417001
-9.88002308556
-9.84240867623
-9.79168282785
-9.71601642471
-9.60414798638
-9.45125822843
-9.26380769032
-9.05444271606
-10.5350958075
-9.85786405471
-10.0663313615
-9.97715380549
-9.99377064562
-9.96952673575
-9.94409589324
-9.91478995333
-9.87632729341
-9.83424337605
-9.78470398392
-9.72707946486
-9.65434279942
-9.55898339501
-9.43486444778
-9.28136683123
-9.10621143622
-8.92013680292
-10.4507902266
-9.8581736402
-10.0228933924
-9.95091201683
-9.95112793853
-9.92306003256
-9.8864708446
-9.84683979376
-9.79592930229
-9.74015428916
-9.67534524991
-9.60115159785
-9.51291817653
-9.40600500827
-9.27767019368
-9.1293842438
-8.96851313414
-8.80391444817
-10.2969204359
-9.84500868901
-9.94630376901
-9.89768500511
-9.88257473502
-9.8528823974
-9.80738536547
-9.75965436759
-9.69880270477
-9.63228487892
-9.55599357464
-9.47066497432
-9.37349204598
-9.26190893599
-9.13503035764
-8.99512748619
-8.84885829655
-8.70329644128
-10.1346551295
-9.83641046486
-9.87228203069
-9.84467989091
-9.81593586335
-9.78341802063
-9.7305655525
-9.67573015114
-9.60704722132
-9.53264009045
-9.44872995674
-9.35697928297
-9.25589620425
-9.14406729009
-9.02151213316
-8.89068633452
-8.75749578495
-8.62784985228
-10.132260219
-9.79719078082
-9.85702717408
-9.81223768921
-9.7872196516
-9.74725922958
-9.69171995034
-9.63139415254
-9.55882972552
-9.48056969857
-9.39359828365
-9.30011854291
-9.19887450149
-9.08912801172
-8.97110115003
-8.84706041279
-8.72257721676
-8.60297535729
-10.190465867
-9.80203052776
-9.88826716258
-9.82925729262
-9.805954571
-9.75992360127
-9.70148903437
-9.63753180829
-9.56201922419
-9.48125774368
-9.39261707364
-9.29807531227
-9.19725402069
-9.08943155535
-8.97470244596
-8.85556188375
-8.73650654958
-8.62233249212
-10.2289346801
-9.8049663098
-9.94263118383
-9.87264414453
-9.85617178552
-9.80430926021
-9.74463873094
-9.67712653542
-9.60023425644
-9.51816742326
-9.42907270521
-9.33500650042
-9.23569770979
-9.1309544175
-9.02105631343
-8.90769932189
-8.79592803512
-8.69181144165
-10.564348854
-9.89450055359
-9.98938112607
-9.91080507748
-9.8951351487
-9.83769358729
-9.77689552235
-9.70707322181
-9.62813167778
-9.54351328232
-9.45126457773
-9.35430055345
-9.25335149922
-9.14731505842
-9.03633316936
-8.92136933368
-8.80467732351
-8.68470211222
-9.57760907164
-9.63462884267
-10.2344266207
-10.0867697017
-10.094648123
-10.0254959223
-9.96434917465
-9.89153400935
-9.8129498667
-9.7298723684
-9.64365585832
-9.55318283872
-9.45919628351
-9.36316796333
-9.26566758451
-9.16767591806
-9.07598207891
-9.00028998474
-13.851786454
-10.5944183351
-9.86369550892
-9.90508587769
-9.84835555309
-9.7819374916
-9.71331612254
-9.63584490169
-9.55239970679
-9.46237209471
-9.36234199155
-9.26010024216
-9.15543354246
-9.04604081643
-8.93221192613
-8.81586773329
-8.69465434642
-8.58125920973
0.0342756009863
-8.84068527472
-10.990213998
-10.5522638427
-10.664438955
-10.560641698
-10.5198276629
-10.4513920803
-10.3812961686
-10.3016445656
-10.2134448142
-10.1119045141
-10.0011869353
-9.88266584267
-9.75915380637
-9.63200849529
-9.50721330402
-9.33001978608
-34.750767389
-11.084997973
-9.9280629504
-9.9390826634
-9.80927512567
-9.73120188052
-9.62815354557
-9.53227794392
-9.43414897693
-9.33843737563
-9.24974516237
-9.17099897975
-9.10389199151
-9.05475055231
-9.02845679306
-9.02739753462
-9.04530127494
-9.1416790676
28.5210286483
-13.6182235922
-9.82005484652
-10.9364748004
-10.6606460716
-10.589482973
-10.5318687001
-10.4392890822
-10.3480354412
-10.2408412484
-10.1216616756
-9.9947454255
-9.85845740987
-9.71270364974
-9.561005913
-9.4023546726
-9.23341531734
-8.99339858576
-38.3831139475
-5.34349723663
-12.8580944592
-10.4682127285
-11.1128309103
-10.8486533453
-10.844361184
-10.7812856295
-10.7306084147
-10.6763843788
-10.6202158832
-10.5627683497
-10.4991473741
-10.4170516042
-10.3101448726
-10.1784504102
-10.0151428896
-9.87731435944
-6.32489132712
-9.18536104315
-7.3305895333
-7.63259778871
-7.35206779512
-7.26639108917
-7.12761773058
-7.01398201824
-6.90687630662
-6.80722595332
-6.70999821657
-6.60947682696
-6.50335593432
-6.38749248925
-6.2608318605
-6.13392166905
-6.04472808404
-5.99539519418
-0.00615927977835
-0.0106853637662
-0.00053167187081
0.0185166625049
0.0210145627479
-0.00980534558331
-0.0397276870118
-0.0659066734042
-0.0901855238775
-0.113440123333
-0.136163931788
-0.158412243043
-0.180136051177
-0.201281316965
-0.221791637112
-0.241708405807
-0.261008978218
-0.279716605922
-0.297712492625
-0.31493281986
-0.331159724653
-0.346199852334
-0.359787584674
-0.371697419247
-0.381611286333
-0.389317563005
-0.394563523703
-0.397149062752
-0.396822586501
-0.393408053731
-0.386676373356
-0.376444633889
-0.362496249244
-0.344698048998
-0.322825357736
-0.296747461617
-0.266365513543
-0.231583826323
-0.192310519601
-0.148538089684
-0.100272234207
-0.0475895220865
0.00942079921746
0.0705915724787
0.135766789307
0.204698131456
0.277148478103
0.352788503436
0.431313877357
0.512380362553
0.595610376668
0.680660438537
0.767073492964
0.854502064313
0.942513580214
1.03088507004
1.11916591239
1.20713560391
1.29437661478
1.38065338772
1.46519052675
1.54705256774
1.62512271099
1.69647618931
1.75988022566
1.81651232025
1.86721848236
1.91257973752
1.9533920267
1.99021178777
2.02367024529
2.05422080423
2.08220532142
2.10781561241
2.1310246987
2.15183824985
2.16994018164
2.18519461549
2.19722675436
2.20589968839
2.21095570408
2.21239073336
2.20984911548
2.20330903895
2.19241206354
2.17659118472
2.15548995509
2.12718763451
2.0914079326
2.04520115967
1.98611029732
1.9148818629
1.83250380104
1.7394834536
1.63613872042
1.52324464026
1.4033872191
1.27862016419
1.14504556353
0.995262242619
0.825142664646
0.647967471576
0.467180438299
0.302602938958
0.15644496792
0.00850622235678
-0.102278378774
-0.0977117632767
-0.125561847087
-0.153751026666
-0.183268551454
-0.213186650495
-0.241827763158
-0.26845508214
-0.292812876501
-0.314676597298
-0.334132851138
-0.351324507636
-0.366375503254
-0.379364739048
-0.390282303358
-0.399127575296
-0.405970732184
-0.410918828325
-0.413996266244
-0.415178781679
-0.414436656602
-0.41202744432
-0.408337706373
-0.403577020947
-0.397951924321
-0.39162769837
-0.384688957239
-0.377235132572
-0.369358551443
-0.361186259635
-0.352848610185
-0.344496209011
-0.336216058588
-0.328031767438
-0.319937611421
-0.311943719713
-0.304156688317
-0.296687290931
-0.28958364608
-0.28280627703
-0.276286605628
-0.269944535256
-0.263663525056
-0.257260350259
-0.250543109583
-0.243437624286
-0.236063997556
-0.228584680186
-0.221092876387
-0.213775711909
-0.206932592831
-0.200857219954
-0.195811883801
-0.191939206467
-0.189510307308
-0.188984430039
-0.191164174115
-0.195428107122
-0.201164392145
-0.207587642236
-0.214186691491
-0.22039244751
-0.225806712529
-0.230400803889
-0.234619785805
-0.23941199492
-0.246201483499
-0.25617457243
-0.268953067023
-0.283020502567
-0.295046700265
-0.296239833916
-0.281689707348
-0.202531923751
0.0245564753092
-0.0289516800251
-0.0988279833808
-0.11035531405
-0.0868000168813
-0.0502068837618
-0.00973757614887
0.0279345511545
0.0599358580574
0.0853863071435
0.104682211781
0.119045120813
0.130033044959
0.139244676576
0.14823199164
0.158300472637
0.170600914814
0.185965475868
0.205059764481
0.228279749686
0.255868561
0.287835561378
0.324134606633
0.364559769773
0.408859745619
0.456724116314
0.507844099741
0.561865847755
0.618491273955
0.677425831496
0.738438810646
0.801276353078
0.865781623819
0.931831247538
0.999320823345
1.0681743189
1.13838143231
1.20994009402
1.28288467501
1.3572844608
1.43320671798
1.51072452939
1.58990517686
1.67080237496
1.75345917793
1.83788305663
1.92404061242
2.01184901523
2.10116906222
2.19182591774
2.28356758317
2.37616082539
2.46931111984
2.56275926394
2.65607080508
2.74880772909
2.84038147826
2.93019866297
3.01745490528
3.10149242081
3.18197464396
3.25856284555
3.33168343666
3.40328193382
3.47063018282
3.53008497061
3.5798033847
3.61842131974
3.64497955914
3.65884946004
3.65984594634
3.6481188541
3.62410521474
3.58848743671
3.54193788947
3.48519412346
3.41884611956
3.34339428994
3.25917011677
3.16656572988
3.06596262798
2.95796787589
2.84333845262
2.72318728578
2.59872836926
2.47132917131
2.34185446145
2.21165482691
2.08023033731
1.94642392493
1.80989361814
1.66916666575
1.52450837676
1.37973846832
1.23998238595
1.10457079998
0.965697454389
0.81739355714
0.661076689206
0.510146549771
0.392010554912
0.293166404396
0.163250020753
0.00352188366478
-0.234391820856
-0.254288572972
-0.217492123482
-0.262759527084
-0.319997823628
-0.37304426781
-0.421196682832
-0.465967077303
-0.506629763348
-0.543733336395
-0.577331092668
-0.607503275712
-0.634482460183
-0.6584956393
-0.679787902453
-0.698526002342
-0.714808287475
-0.728776038813
-0.740711094784
-0.751000278336
-0.760044609442
-0.768224942007
-0.775928952556
-0.783350820518
-0.790792031451
-0.798891421344
-0.807513728194
-0.816486145635
-0.825804439075
-0.835489579103
-0.845527758688
-0.855853605296
-0.866357989656
-0.876848209102
-0.887003878177
-0.896414416787
-0.904625486787
-0.911216680881
-0.915887706931
-0.918451926702
-0.918863023737
-0.917168809532
-0.913487651451
-0.907960141894
-0.900746243553
-0.892065956188
-0.88229920527
-0.871851036795
-0.860976223544
-0.849888636096
-0.839057970445
-0.829024764028
-0.820339999349
-0.813636451673
-0.809323424337
-0.807941180163
-0.808769563479
-0.810774132726
-0.81296086156
-0.815250679708
-0.817675275157
-0.820475978703
-0.823447125854
-0.826595307474
-0.829922696077
-0.833569686261
-0.837828770496
-0.843295129725
-0.850227905521
-0.856733743151
-0.862266132958
-0.863858976755
-0.857237682272
-0.834776753659
-0.797766800451
-0.749699628401
-0.0496059759772
-0.111397044203
-0.107382441633
-0.0524313730964
0.0225379651464
0.0962855960719
0.158036229804
0.20557550527
0.24099655025
0.267786186975
0.289088759068
0.307357642437
0.324315554797
0.341058873792
0.358305996359
0.37641640914
0.395626611717
0.415989428967
0.437568801269
0.460299766123
0.484191844639
0.509204643191
0.535327145222
0.562537162292
0.590879852998
0.620371308616
0.651069663068
0.683045730381
0.716407425683
0.75126639447
0.787761329053
0.826055166116
0.866312374927
0.908667443308
0.953302322109
1.00034746501
1.0498948994
1.10203014114
1.15680165269
1.2141907876
1.27413204564
1.33649447859
1.40108742362
1.46765798983
1.53589963141
1.60544890983
1.6758925736
1.746762678
1.81755669098
1.88778109689
1.95686973804
2.02429427322
2.08953794647
2.15218490453
2.21178366594
2.2679601295
2.32033241389
2.36867080205
2.41271856691
2.45229622366
2.4872750733
2.51812844139
2.54400147438
2.56557925414
2.58830446635
2.61428564326
2.64384778185
2.67668801331
2.71202529726
2.74849308791
2.78424908523
2.81712630922
2.84471945687
2.86455214243
2.87420076895
2.87150068633
2.85457013693
2.82206896267
2.77324696477
2.70812472324
2.62740114591
2.53244276887
2.42510803595
2.30765474272
2.18240791272
2.05146330401
1.91709515235
1.78025375368
1.6415161268
1.50092612547
1.35871773377
1.21854569326
1.08350645125
0.95113558783
0.813555263257
0.666445923617
0.520306179697
0.397089198467
0.299103893528
0.212021342943
0.109310722313
-0.0299982677925
-0.233916143295
-0.340942086601
-0.321000993012
-0.265274445822
-0.288677709313
-0.379835066763
-0.459217659015
-0.523099029737
-0.575425691877
-0.621841933254
-0.664090523691
-0.70363194009
-0.740771377252
-0.775580232157
-0.808082080698
-0.838264396459
-0.866113713661
-0.891551239783
-0.914480739948
-0.934883892651
-0.952841510205
-0.968510429295
-0.982035884549
-0.993494317367
-1.0028822318
-1.01010512942
-1.01491407523
-1.01708260312
-1.01697539068
-1.01495773281
-1.01132321724
-1.00617479333
-0.99960298675
-0.991719252949
-0.982658011582
-0.972545230647
-0.961499914167
-0.949624117994
-0.937025198729
-0.923862122561
-0.910419358533
-0.89712164218
-0.884482163347
-0.873074933314
-0.863392614669
-0.855757666817
-0.850384772238
-0.847446563927
-0.847112178216
-0.849477379185
-0.854603362882
-0.862509605074
-0.873145871788
-0.886383264991
-0.901979435117
-0.919751448484
-0.938943684126
-0.95871651293
-0.978587436462
-0.998128652794
-1.01682431204
-1.03427218491
-1.04999010905
-1.06354814721
-1.07459810384
-1.08294822955
-1.08865843922
-1.09232402574
-1.09506022351
-1.09834807033
-1.10323610464
-1.10893606596
-1.11543951117
-1.11991035333
-1.1149106723
-1.093903025
-1.05662575243
-1.01089878648
-0.0557435638967
-0.0511952345417
0.0115192483784
0.0966907626986
0.182188436268
0.253710269593
0.306046488251
0.342224080889
0.367841310406
0.388022592869
0.406308962007
0.424837532816
0.444763368419
0.466559393299
0.49039349796
0.516153368294
0.543718747064
0.572834937043
0.603329732721
0.634984368604
0.667655159831
0.701149354697
0.735383577664
0.770239501009
0.805637172485
0.841520656203
0.877860334177
0.914630837854
0.951827746863
0.98947528125
1.02761824211
1.06628864376
1.1055652087
1.14554707553
1.18631513972
1.22796652613
1.27064286308
1.31444270519
1.35948561225
1.40587922293
1.45372152857
1.50307803363
1.55399818368
1.60649160837
1.66054406877
1.71609276661
1.77303046809
1.831217433
1.89045762171
1.95052993932
2.01119046165
2.07218651829
2.13317210055
2.19386891268
2.25395304074
2.31313299272
2.37105067296
2.42743363847
2.4820265678
2.53450307347
2.5841137332
2.6300708384
2.67167410326
2.70603154726
2.72991422071
2.74259411153
2.74492068582
2.73829206384
2.72454027633
2.70563949172
2.68346927265
2.65952326136
2.63475731074
2.60948465059
2.58324837118
2.55491261623
2.52269986547
2.48437090735
2.43746086249
2.37966437667
2.30914907615
2.22486651978
2.12672217547
2.01560101005
1.89306747726
1.76098295118
1.62098861312
1.47566223523
1.32708718425
1.17769110129
1.02910874263
0.878426934128
0.720081469502
0.55252378187
0.389863236128
0.244389045943
0.12423644887
0.0238967867993
-0.0781305389654
-0.208767191171
-0.396398205285
-0.504246022265
-0.537971093424
-0.493160079044
-0.426961938806
-0.426758928676
-0.494236042534
-0.586874508145
-0.665620506767
-0.730217390931
-0.783615362136
-0.8301920938
-0.871564282292
-0.908789902376
-0.942078931643
-0.971510333896
-0.997196451967
-1.01931239721
-1.03807637864
-1.05366132645
-1.06621816171
-1.07595583966
-1.08319322876
-1.08834486016
-1.09182781613
-1.09398821546
-1.09508790663
-1.09538105052
-1.09518383057
-1.09478407909
-1.09484813232
-1.09546836663
-1.09646085828
-1.09792086894
-1.09997564178
-1.10274513826
-1.1063369887
-1.11079355882
-1.1160679685
-1.12198068241
-1.1282314866
-1.13444292831
-1.14022722994
-1.14531132739
-1.14960867066
-1.15318772267
-1.15614070615
-1.15854720791
-1.16051031146
-1.1621944188
-1.1638080613
-1.16562739467
-1.1679474524
-1.17111729961
-1.17526994152
-1.18073040704
-1.18738582725
-1.19455179116
-1.20220510808
-1.21022504296
-1.21870300716
-1.2274367359
-1.23618314921
-1.24465080668
-1.25252067596
-1.25956592648
-1.26566948352
-1.27097073143
-1.27579998804
-1.28098693987
-1.28768756161
-1.29723439489
-1.31088262882
-1.32722908437
-1.34557670954
-1.36243593556
-1.36997393611
-1.36373362124
-1.34621688733
-1.32598780354
-0.00350649696975
0.126177599628
0.219402148084
0.273441362345
0.317359773086
0.352790278582
0.378041241594
0.396051083918
0.410691716728
0.424902422198
0.440356620531
0.457808017818
0.477546792198
0.499512927228
0.523606143509
0.549588590041
0.577315298831
0.606576646721
0.637280088512
0.669255658911
0.70245754021
0.736802851671
0.77225218355
0.808757224759
0.84631853851
0.884905350774
0.924505941888
0.965121124326
1.00675353643
1.04941172372
1.09310245991
1.13786626525
1.18372045998
1.23066937921
1.27875830438
1.32799152369
1.3783599786
1.4298495215
1.4824359047
1.53604316003
1.590584545
1.64592484605
1.70190376083
1.75832026407
1.81494252104
1.87150412286
1.92769923614
1.98319114602
2.0376270169
2.09067837049
2.14196115483
2.19114858769
2.23791694457
2.28201131035
2.32322838264
2.36149700505
2.3967213113
2.42881787146
2.45766324285
2.48311872188
2.50517807308
2.52364349869
2.53902854266
2.55312127266
2.56736363219
2.58064877958
2.59169331927
2.59911502692
2.60169526927
2.59849885697
2.58897151332
2.57293439743
2.5504734146
2.52180114304
2.48712153839
2.44650795438
2.39976405206
2.34639885256
2.2855423788
2.21608024108
2.13674329452
2.04625158789
1.94366036116
1.82857959694
1.70141979147
1.56339885632
1.41714280828
1.26478876641
1.10745394815
0.943609261208
0.770071437296
0.585401143114
0.397995352799
0.218481106106
0.0633192749201
-0.0735205347095
-0.199097796225
-0.339085302334
-0.51833443617
-0.668559859998
-0.725313750264
-0.686336370608
-0.63437955263
-0.590134253437
-0.585140961071
-0.633018299657
-0.704304851163
-0.774517703942
-0.832517914419
-0.880627150208
-0.920757787954
-0.955575876259
-0.986346343914
-1.01402666942
-1.03906613498
-1.0617624343
-1.0823942741
-1.10120084901
-1.11835867369
-1.13392233249
-1.14787862331
-1.16027887096
-1.17131863795
-1.18125218745
-1.19031382162
-1.19869785134
-1.20656583135
-1.21406907558
-1.22132289558
-1.22815278684
-1.2341050889
-1.23899930774
-1.24285262083
-1.24568418958
-1.24755484556
-1.24854643425
-1.24874702787
-1.24827554366
-1.24724541851
-1.24576119548
-1.24388432754
-1.24163428699
-1.23905616512
-1.23628769768
-1.23355471215
-1.23108317292
-1.22914243144
-1.22805194479
-1.22812080722
-1.22963811449
-1.23279805983
-1.23773299939
-1.2445998262
-1.25332012651
-1.26399187028
-1.2759887288
-1.28893533047
-1.30260489388
-1.31675075857
-1.33104632446
-1.34520446992
-1.35899396448
-1.37214349824
-1.38432289412
-1.39515556609
-1.40432554225
-1.4115767956
-1.41679789509
-1.42007488414
-1.42201556934
-1.42358979572
-1.42597661175
-1.43056451679
-1.43683072468
-1.44401976799
-1.45071751077
-1.4519187491
-1.44627787876
-1.43973000775
-1.43608520083
0.0905059922037
0.40406370719
0.454525028976
0.410327098782
0.390240220361
0.389222521131
0.395773133391
0.40549850878
0.417199818386
0.43076098014
0.446226894689
0.463529170198
0.482650785216
0.503446420321
0.52586277612
0.549740763898
0.575042683444
0.601634979509
0.62949160195
0.658532999628
0.688753566878
0.720098327598
0.752594277912
0.786215154976
0.820953909388
0.856801926319
0.893750558548
0.931780788106
0.970869585454
1.0110040798
1.0521669141
1.09432473059
1.13746724658
1.18158427748
1.22664148355
1.27260751215
1.31946961874
1.36716581474
1.41564186881
1.46481397927
1.51458144322
1.56480438411
1.61531866512
1.66592597604
1.71639677098
1.7664673786
1.81581996156
1.86412834131
1.91101740982
1.95611855437
1.99904897502
2.03946223558
2.07697971217
2.1112983421
2.14220360878
2.16964077762
2.19355345631
2.21390018244
2.23067683854
2.24393623207
2.25390142845
2.26049332532
2.26337103893
2.26414702886
2.26332369911
2.2619163237
2.2605281029
2.25944514391
2.25860253421
2.25757808535
2.25564349962
2.25180123179
2.24489637495
2.23365068921
2.21665197869
2.19242075765
2.15949740258
2.11654789914
2.06246221036
1.99653605929
1.91831176122
1.82749689503
1.72395848009
1.60808076239
1.48072735553
1.34287926781
1.19508796132
1.03706639392
0.866822763805
0.685059389606
0.49625923913
0.306557190819
0.133953047588
-0.0231426602671
-0.161738963086
-0.314327962348
-0.497685454389
-0.669406264968
-0.790176118651
-0.812809936926
-0.76391921416
-0.710559024
-0.696618838323
-0.716132060006
-0.767412312743
-0.836381936633
-0.902216772923
-0.957566252761
-1.0028802793
-1.04159807138
-1.07552022484
-1.10622256749
-1.13437585364
-1.16042306332
-1.18449986506
-1.20664830937
-1.22692263195
-1.24537379827
-1.26200580657
-1.27676854129
-1.289606264
-1.30058885007
-1.30991057717
-1.31780321652
-1.3244746945
-1.33010742877
-1.3348470156
-1.33877001969
-1.34186322197
-1.34400113221
-1.3452210267
-1.3460392679
-1.34671433106
-1.34732117317
-1.34793493567
-1.34865234447
-1.34956448358
-1.35074213443
-1.35220616478
-1.3539287757
-1.35583724538
-1.35786356629
-1.36003363745
-1.36245306507
-1.36523849568
-1.36848849555
-1.37227958489
-1.37666338753
-1.38170175117
-1.3874088503
-1.39380729716
-1.40090217603
-1.4086276792
-1.41725467774
-1.42640432875
-1.43602352231
-1.44602763775
-1.45645509086
-1.46726049901
-1.47831933114
-1.48948512677
-1.50060888501
-1.5115031328
-1.52192473423
-1.53159588467
-1.54028371514
-1.54783065824
-1.55417331579
-1.55943804026
-1.56416058447
-1.56913973654
-1.57522196147
-1.5832590988
-1.59264579863
-1.60231770617
-1.61068314697
-1.61380821325
-1.6101124906
-1.60470298394
-1.59586580314
0.221638452241
0.761807714309
0.659335983302
0.479859167552
0.413842313347
0.395912530814
0.397602197157
0.405716919073
0.415935260506
0.427594055553
0.440615317596
0.45497057692
0.470791048012
0.48805231878
0.506832311548
0.527066419353
0.548795950827
0.5719521306
0.596549716898
0.622520326655
0.649901008222
0.67867567794
0.708857515465
0.740433889954
0.773416968413
0.807781428746
0.843511211318
0.880579794905
0.918953894552
0.958586227173
0.999423183139
1.04141653342
1.08449496855
1.12857226536
1.17358325296
1.21942632841
1.26599292552
1.31316605336
1.360818933
1.40879238557
1.45691634029
1.50499024846
1.55278880335
1.60006715674
1.64654912427
1.6919462415
1.73591236124
1.77808403522
1.8180698879
1.85550516079
1.88995462866
1.92109851333
1.94861739442
1.97215523977
1.99159447946
2.00711160601
2.01884743615
2.02691304229
2.03145048567
2.03270638289
2.03099239276
2.02634326025
2.01854931101
2.00968045195
1.99816765836
1.98458650928
1.96939422438
1.9532080904
1.93673692242
1.92068639741
1.90563559512
1.89188370678
1.8793525267
1.8674553243
1.85494498272
1.83977356087
1.8192047401
1.79007671842
1.74926834361
1.69442537653
1.6244924338
1.53961011814
1.44069509951
1.3288145018
1.20418508472
1.06642872229
0.916060879256
0.753339407752
0.579580905067
0.40593951741
0.240290677887
0.0851614646056
-0.0487255850939
-0.200135054503
-0.370321205299
-0.553685263048
-0.713453715337
-0.806737106017
-0.84039084399
-0.808860907356
-0.772793742791
-0.778384797852
-0.824724971877
-0.891302661494
-0.965691948308
-1.03547937566
-1.0930149377
-1.13908830748
-1.17694323928
-1.20962076814
-1.23873771551
-1.2653813216
-1.28996853344
-1.31272430008
-1.33368104686
-1.35287490946
-1.37036111566
-1.38620914299
-1.40043242304
-1.41298206139
-1.42382633963
-1.43302609474
-1.44074396659
-1.44717902505
-1.45252765126
-1.45696779345
-1.46065050972
-1.46370648668
-1.46624676239
-1.46842700559
-1.47034632872
-1.47212966358
-1.47372467135
-1.47516132565
-1.47649334062
-1.47779100966
-1.47914565769
-1.48061690491
-1.48223476222
-1.48397208772
-1.48576987764
-1.48756022365
-1.48931973491
-1.49110262426
-1.49301502419
-1.49518568938
-1.4977418248
-1.50081756027
-1.50453081937
-1.5089942348
-1.51432717765
-1.52056103843
-1.52781644665
-1.53577289282
-1.5443664564
-1.55352375788
-1.56322665233
-1.57337156786
-1.58379099142
-1.5943088769
-1.60475266383
-1.61495188226
-1.62472094807
-1.63384523787
-1.64210776744
-1.64933911486
-1.65548002341
-1.66056609957
-1.66479802782
-1.66871309686
-1.67308722716
-1.67868419721
-1.68622307153
-1.6952448125
-1.70512945266
-1.7144307756
-1.72068812886
-1.72250309622
-1.72372211986
-1.72065829153
0.391650598098
1.15363647182
0.792194395219
0.500541112558
0.430781198503
0.411199279815
0.412243551359
0.415580104182
0.418992203685
0.423724516469
0.430001983072
0.437943186989
0.447755704865
0.459382698429
0.472885811935
0.488149274983
0.505183684586
0.523856742665
0.544140048457
0.565946503944
0.58927215677
0.614055393047
0.640290698283
0.66792641453
0.696942251054
0.727310920506
0.759011932624
0.792009432507
0.826265313364
0.861732164411
0.898352279371
0.936043297333
0.974728713193
1.01431269775
1.05467868836
1.09570296905
1.13725833427
1.17918670902
1.22132742046
1.26350339546
1.30552101644
1.34716882355
1.38820902528
1.42839270215
1.46744379137
1.50507872908
1.54094998319
1.57470514225
1.60593291481
1.63424630436
1.65917563125
1.68048599929
1.69789801273
1.7107604292
1.71892541469
1.72279895227
1.72266570262
1.71859316498
1.71065847215
1.6992366367
1.684443506
1.66641118283
1.64861931912
1.63040636176
1.61180911637
1.59299458206
1.573988937
1.55482110343
1.53561999532
1.51674891437
1.49879431003
1.48243335021
1.46833572016
1.45690601655
1.4477771614
1.4393612631
1.42862209369
1.41125770422
1.38251363473
1.33854087768
1.27745513415
1.19912425742
1.10479419224
0.995696339884
0.87191570503
0.734387832289
0.588123627871
0.439307638227
0.291228934669
0.155690106042
0.0311069230391
-0.108176129861
-0.251094450099
-0.419964169034
-0.586195423148
-0.733291203925
-0.833288888583
-0.868360046796
-0.868987293831
-0.852936537425
-0.869296694463
-0.927403989247
-1.00665805549
-1.08798089496
-1.16185084396
-1.22328263566
-1.27190239131
-1.31076074198
-1.34291556844
-1.37063891006
-1.39526465938
-1.4176791571
-1.43829187086
-1.45730909712
-1.47479794673
-1.49082486221
-1.50547017771
-1.51877306378
-1.53071319501
-1.54120514647
-1.55020481005
-1.55776848014
-1.56404660192
-1.56922289305
-1.57348028788
-1.57698708867
-1.57989207755
-1.5823259922
-1.58439715923
-1.58621272616
-1.58777284108
-1.58918957827
-1.59050174412
-1.59174853687
-1.59297808115
-1.59424480402
-1.59560277589
-1.59708907466
-1.59872070156
-1.60049176927
-1.60236926623
-1.60430349874
-1.60627213738
-1.6083141398
-1.61051191338
-1.61296663124
-1.6157883213
-1.61907644507
-1.62291017073
-1.62738833924
-1.63254461823
-1.63842330608
-1.64503916107
-1.65223836742
-1.6599447376
-1.66811843184
-1.67672577127
-1.68566306368
-1.69479501667
-1.70396579841
-1.71301900785