/*--------------------------------*- C++ -*----------------------------------*\
| =========                 |                                                 |
| \\      /  F ield         | OpenFOAM: The Open Source CFD Toolbox           |
|  \\    /   O peration     | Version:  v1806                                 |
|   \\  /    A nd           | Web:      www.OpenFOAM.com                      |
|    \\/     M anipulation  |                                                 |
\*---------------------------------------------------------------------------*/
FoamFile
{
    version     2.0;
    format      ascii;
    class       volVectorField;
    location    "11";
    object      U;
}
// * * * * * * * * * * * * * * * * * * * * * * * * * * * * * * * * * * * * * //

dimensions      [0 1 -1 0 0 0 0];


internalField   nonuniform List<vector> 
12225
(
(9.73864276048 0.0396875263963 0)
(9.50317927719 0.0410275279833 0)
(9.24847225305 0.0400595842512 0)
(8.99777576371 0.040126413318 0)
(8.76034930062 0.0401662181633 0)
(8.53570851509 0.0398508161662 0)
(8.32175648905 0.0392837674904 0)
(8.11723281225 0.0386195079442 0)
(7.92155858665 0.0379583119183 0)
(7.73431988961 0.0373508383724 0)
(7.55499132655 0.0368229459738 0)
(7.38287306215 0.0363950563659 0)
(7.21710995726 0.0360936259236 0)
(7.05671146321 0.0359607110456 0)
(6.90050229906 0.0360711855735 0)
(6.74688089394 0.0365912569447 0)
(6.59366087831 0.0381009177232 0)
(6.42579422912 0.0359131999523 0)
(10.0164056434 0.071014275241 0)
(10.0369494744 0.0702652551062 0)
(10.025170215 0.0666435290135 0)
(9.99750046643 0.0669251270101 0)
(9.96398093404 0.0679296921967 0)
(9.92628991237 0.0684955672954 0)
(9.88423992499 0.0687045040441 0)
(9.83807771304 0.0688314590565 0)
(9.78844561711 0.0690467130769 0)
(9.73598216975 0.0694207956516 0)
(9.68111248712 0.0699838167165 0)
(9.62401064435 0.0707699713555 0)
(9.56462322798 0.0718426057707 0)
(9.50268359196 0.0733159371463 0)
(9.43766825925 0.0753977377729 0)
(9.368632015 0.0785096486829 0)
(9.29478316147 0.0837455300968 0)
(9.20656089217 0.094771120543 0)
(10.0212271621 0.0579306163163 0)
(10.0537187708 0.0583331539952 0)
(10.0683840352 0.0556421205787 0)
(10.0728917059 0.0578321643991 0)
(10.0748260313 0.0609757458503 0)
(10.0752508396 0.0634238887191 0)
(10.0733956645 0.0652847009424 0)
(10.068888868 0.0669697652225 0)
(10.0618306812 0.0687364039552 0)
(10.0524353506 0.0706918032459 0)
(10.0408202523 0.0728854482086 0)
(10.0269567336 0.0753784637883 0)
(10.0106866058 0.0782823125048 0)
(9.99174025112 0.0817907559574 0)
(9.96973547244 0.0862372107678 0)
(9.9441576318 0.0922219286343 0)
(9.91497203028 0.10089222465 0)
(9.87792104836 0.112877602814 0)
(10.0159900322 0.0474453532889 0)
(10.0435042852 0.0549500497272 0)
(10.0599576143 0.0559529699792 0)
(10.0678020918 0.0596218004524 0)
(10.0733865322 0.0635421289331 0)
(10.0782450354 0.0664276465577 0)
(10.0818658257 0.0685684997433 0)
(10.0838541736 0.0705118211469 0)
(10.0842045935 0.0725881826288 0)
(10.0830373413 0.0749346137505 0)
(10.0804085847 0.0776150844636 0)
(10.0762614889 0.0807078721522 0)
(10.0704451735 0.0843523715205 0)
(10.0627462017 0.0887826888798 0)
(10.0529220079 0.0943772203843 0)
(10.0407519826 0.101740207901 0)
(10.0264584021 0.111818837045 0)
(10.0083997867 0.125025581465 0)
(10.0116906124 0.0393363115303 0)
(10.0340012747 0.0507356252268 0)
(10.0496558089 0.0532654186438 0)
(10.0578935224 0.0566007834016 0)
(10.0636335842 0.0601782197403 0)
(10.0686569297 0.0630469033323 0)
(10.0727102368 0.0654006533181 0)
(10.075426016 0.0676970057764 0)
(10.0767519168 0.0702212831767 0)
(10.0767788195 0.0730920346498 0)
(10.0755677238 0.0763716740299 0)
(10.0730938197 0.0801489626183 0)
(10.0692606467 0.084581763748 0)
(10.0639365917 0.0899241493981 0)
(10.0570028094 0.0965596521186 0)
(10.0484229004 0.105041806998 0)
(10.0384994123 0.116123252484 0)
(10.0267216495 0.130252842961 0)
(10.0085224988 0.0328511095314 0)
(10.0264358223 0.0462678831082 0)
(10.040818132 0.050507327641 0)
(10.0491576463 0.0543264156706 0)
(10.0548964701 0.0583773448718 0)
(10.0597995447 0.0619286567601 0)
(10.0638177124 0.0650054531152 0)
(10.0666267885 0.067958040782 0)
(10.0681416899 0.0710610139116 0)
(10.0684297939 0.0744663056459 0)
(10.0675588492 0.0782790226687 0)
(10.0655355793 0.0826256065059 0)
(10.0623136475 0.0876915811742 0)
(10.0578306928 0.0937434867722 0)
(10.0520601589 0.101148539536 0)
(10.0450798306 0.110387296727 0)
(10.0372349572 0.122039347577 0)
(10.0285167824 0.136513091899 0)
(10.0062040831 0.0276804253229 0)
(10.020504386 0.0419186385002 0)
(10.0334101753 0.0476717971763 0)
(10.0416466918 0.052028113738 0)
(10.047351743 0.0563596759115 0)
(10.0521088629 0.0602452508553 0)
(10.0560309268 0.0636622800214 0)
(10.0588606803 0.0669167523813 0)
(10.0604980967 0.0703037387385 0)
(10.0609894367 0.0740197055764 0)
(10.0604039737 0.0782077812557 0)
(10.0587725923 0.0830161078099 0)
(10.0560904173 0.0886349228576 0)
(10.0523514181 0.0953164031867 0)
(10.047597727 0.103384661761 0)
(10.0419780996 0.113230566662 0)
(10.0358517338 0.125277158491 0)
(10.0293818453 0.139809976785 0)
(10.0045233031 0.0235508188889 0)
(10.0159039678 0.0378191091031 0)
(10.027271429 0.0447464770824 0)
(10.0352263653 0.0496608184586 0)
(10.0408730943 0.0542750156322 0)
(10.0455152574 0.0584990884532 0)
(10.0493690459 0.0623260024679 0)
(10.0522493009 0.0660174701928 0)
(10.05405246 0.0698598964332 0)
(10.0548051032 0.0740632633044 0)
(10.0545738738 0.0787836058514 0)
(10.0534086141 0.0841718541971 0)
(10.0513400909 0.0904083495349 0)
(10.048409253 0.0977191550301 0)
(10.0447095743 0.106377637218 0)
(10.0404324099 0.116688145326 0)
(10.0359308718 0.128945069674 0)
(10.0314555347 0.143312737898 0)
(10.0033107508 0.0202359417305 0)
(10.0123662724 0.0340467589947 0)
(10.0222402462 0.0417902492072 0)
(10.029775515 0.047239896009 0)
(10.0353282329 0.0521435959921 0)
(10.0398815232 0.0566792584022 0)
(10.0436935746 0.0608827546416 0)
(10.0466452121 0.0649749731159 0)
(10.0486400861 0.0692207339711 0)
(10.0496908778 0.0738333110872 0)
(10.0498615395 0.0789782124916 0)
(10.0492179501 0.0848095492806 0)
(10.0478212911 0.0914985576176 0)
(10.045750062 0.099245189867 0)
(10.0431331009 0.108273731951 0)
(10.0401814263 0.118811666377 0)
(10.0372216076 0.131050894902 0)
(10.0345271142 0.145058575378 0)
(10.0024386664 0.0175529282263 0)
(10.0096671116 0.0306286191929 0)
(10.0181640982 0.0388516234912 0)
(10.0251896285 0.0447611277609 0)
(10.0306087428 0.0499447446921 0)
(10.0350931967 0.0547617877438 0)
(10.038893054 0.0593062675099 0)
(10.0419424715 0.0637727245536 0)
(10.0441603227 0.0684027283344 0)
(10.0455518758 0.0734064847421 0)
(10.046178597 0.078953458955 0)
(10.0461181339 0.0851958710207 0)
(10.0454545017 0.0922902919592 0)
(10.0442924159 0.100405239526 0)
(10.0427805552 0.109714200058 0)
(10.0411318618 0.120374887781 0)
(10.0396356606 0.132497744492 0)
(10.038586069 0.146081584061 0)
(10.0018107726 0.0153602579545 0)
(10.0076203298 0.0275719320946 0)
(10.0148985124 0.0359904060333 0)
(10.0213741782 0.0422468703673 0)
(10.0266274955 0.0476767507525 0)
(10.0310602663 0.0527367313714 0)
(10.0348799613 0.0575772278653 0)
(10.0380575464 0.062377430685 0)
(10.040530548 0.0673542663474 0)
(10.0423020292 0.0727068368908 0)
(10.0434309564 0.0786002145099 0)
(10.0440019688 0.0851780367751 0)
(10.0441137579 0.0925774071184 0)
(10.0438862974 0.100933687279 0)
(10.0434751781 0.110373205092 0)
(10.043082818 0.120995932295 0)
(10.042954828 0.132852549208 0)
(10.0433965782 0.14589969625 0)
(10.001393374 0.0136573345679 0)
(10.0062049304 0.0250306707532 0)
(10.0125233564 0.0334376805301 0)
(10.0184952919 0.0399103828745 0)
(10.023578986 0.0455284694487 0)
(10.0279801982 0.0507773649827 0)
(10.0318497183 0.0558486568399 0)
(10.0351764842 0.0609138748369 0)
(10.0379144611 0.0661679727432 0)
(10.0400678892 0.0717950110566 0)
(10.0416933471 0.0779504399253 0)
(10.0428775653 0.084765972871 0)
(10.043725398 0.0923590681959 0)
(10.0443617137 0.10083564727 0)
(10.0449390641 0.110284016388 0)
(10.0456432073 0.120761377113 0)
(10.0466806816 0.132278502588 0)
(10.0483706744 0.144768079461 0)
(10.0010828374 0.0122304902847 0)
(10.0051121916 0.0227574734333 0)
(10.0106159954 0.0309834015377 0)
(10.0161117527 0.0375529877227 0)
(10.0210196402 0.0433040940024 0)
(10.0253979367 0.0486991850701 0)
(10.0293375459 0.0539526748843 0)
(10.0328341056 0.0592318145145 0)
(10.0358556168 0.064711836982 0)
(10.0384091755 0.0705587675391 0)
(10.04054903 0.0769139617083 0)
(10.0423611417 0.083894050617 0)
(10.0439513448 0.0915962265038 0)
(10.0454434281 0.100099518131 0)
(10.046981407 0.109460156721 0)
(10.048731017 0.119701993593 0)
(10.0508597918 0.13080685481 0)
(10.0537026538 0.142691211414 0)
(10.000826169 0.0108213329158 0)
(10.0041866126 0.0204023667162 0)
(10.0089468337 0.0282851390338 0)
(10.0139709862 0.0348380182306 0)
(10.018699303 0.0406647208514 0)
(10.0230788994 0.046168787754 0)
(10.0271384098 0.0515693713985 0)
(10.0308700709 0.057027235843 0)
(10.0342522524 0.0626964144696 0)
(10.0372947248 0.068720433296 0)
(10.0400479681 0.075220744956 0)
(10.0425929586 0.0822942912663 0)
(10.0450303148 0.0900150405743 0)
(10.0474753031 0.0984348343778 0)
(10.0500560753 0.107580046943 0)
(10.0529124343 0.11744645782 0)
(10.0561704897 0.127994396929 0)
(10.060183567 0.139133899602 0)
(10.0006263996 0.00942941580888 0)
(10.0034543759 0.0179780798376 0)
(10.0075869967 0.025340930124 0)
(10.0121867664 0.0317140154192 0)
(10.0167560486 0.0375033264396 0)
(10.021173778 0.0430315546359 0)
(10.0254134122 0.0485012849696 0)
(10.0294556407 0.0540594588103 0)
(10.0332835289 0.0598363342403 0)
(10.0369074414 0.065948685303 0)
(10.0403718585 0.0724931774719 0)
(10.0437481454 0.0795427755545 0)
(10.0471249857 0.0871468521939 0)
(10.0506018457 0.0953312097152 0)
(10.054284577 0.104097088671 0)
(10.0582831333 0.113419016494 0)
(10.0626819065 0.123244188723 0)
(10.0678560201 0.133482802219 0)
(10.0004850287 0.00802780442278 0)
(10.0029317842 0.0154479720843 0)
(10.0065972856 0.0221003453619 0)
(10.0108771538 0.0280918423441 0)
(10.0153533529 0.0336788357887 0)
(10.0198751061 0.0390956005955 0)
(10.0243746786 0.0445084377714 0)
(10.0288170329 0.0500400832886 0)
(10.0331833178 0.0557929804013 0)
(10.0374807343 0.0618540283979 0)
(10.0417442451 0.0682915754333 0)
(10.0460308819 0.0751524001372 0)
(10.0504113201 0.0824614327431 0)
(10.0549631507 0.0902218616033 0)
(10.059765515 0.0984157010832 0)
(10.0648969368 0.107003964698 0)
(10.0704023646 0.115928328031 0)
(10.0766814566 0.125105089313 0)
(10.0004018502 0.00655308222677 0)
(10.0026281604 0.0127092688924 0)
(10.0060263744 0.0184333011284 0)
(10.0101512583 0.0237975526339 0)
(10.014656357 0.028954235839 0)
(10.0193864181 0.0340538382008 0)
(10.0242486194 0.0392132847994 0)
(10.029192442 0.0445212254528 0)
(10.0341917273 0.0500479643681 0)
(10.039245374 0.0558488167294 0)
(10.0443749403 0.0619626491775 0)
(10.0496189063 0.0684106952021 0)
(10.0550255868 0.0751960345283 0)
(10.0606470076 0.0823046340091 0)
(10.0665338696 0.0897062744005 0)
(10.072734276 0.09735639834 0)
(10.0792581389 0.105198240794 0)
(10.0865296521 0.113159417064 0)
(10.0003761867 0.00488892390999 0)
(10.0025529618 0.00956126150437 0)
(10.0059206925 0.01408566202 0)
(10.0101155799 0.0185269631201 0)
(10.0148322633 0.0229645868147 0)
(10.0199189605 0.0274740730094 0)
(10.0252704601 0.0321173047878 0)
(10.0308240934 0.0369419141465 0)
(10.036543222 0.0419827367456 0)
(10.0424144351 0.0472625446892 0)
(10.048442952 0.052791642158 0)
(10.054646879 0.0585677639465 0)
(10.0610512195 0.0645762217602 0)
(10.0676827452 0.0707909499575 0)
(10.074565937 0.0771756339742 0)
(10.0817229426 0.0836855981557 0)
(10.0891359867 0.090269782225 0)
(10.0972547137 0.0968685432805 0)
(10.0004228006 0.00281015224594 0)
(10.002760313 0.00559867689853 0)
(10.006400876 0.00853358504486 0)
(10.0109699537 0.0116734989413 0)
(10.0161544621 0.0150267033043 0)
(10.0218007911 0.0185925493283 0)
(10.0278004291 0.0223749142023 0)
(10.034083331 0.02637842717 0)
(10.0406014571 0.0306021166953 0)
(10.0473269807 0.035037982014 0)
(10.0542482844 0.0396708760517 0)
(10.0613644604 0.0444797596719 0)
(10.068679771 0.0494375022426 0)
(10.0761991307 0.054511840384 0)
(10.0839249833 0.0596654502876 0)
(10.0918583513 0.0648576328726 0)
(10.0999597574 0.0700451865762 0)
(10.1086985694 0.0751813900248 0)
(10.0005588522 0.000586163039383 0)
(10.0032887039 0.00137360346246 0)
(10.0075173172 0.00264207576223 0)
(10.012731813 0.00442303058148 0)
(10.0185556571 0.00662923506877 0)
(10.0248364463 0.0091772398666 0)
(10.0314819698 0.0120190996465 0)
(10.0384264662 0.0151240426681 0)
(10.0456155476 0.0184628218623 0)
(10.0530118228 0.0220033317787 0)
(10.0605946465 0.0257132012048 0)
(10.0683540191 0.0295600844939 0)
(10.0762841612 0.0335122005735 0)
(10.0843786947 0.0375365096505 0)
(10.0926284734 0.041599452401 0)
(10.1010236047 0.0456663032669 0)
(10.1095142233 0.0497032684472 0)
(10.1185754297 0.0536754120622 0)
(10.0007425753 -0.00156615570491 0)
(10.0040081745 -0.00263207124482 0)
(10.0089895692 -0.00278777961881 0)
(10.0149399348 -0.00209812284584 0)
(10.0214001766 -0.000801259455863 0)
(10.0282473948 0.000932276488949 0)
(10.0354285985 0.00301889857934 0)
(10.0428909225 0.00540533329776 0)
(10.0505776547 0.00803927319014 0)
(10.058448032 0.0108698829993 0)
(10.0664805545 0.0138522337424 0)
(10.0746650704 0.0169476625263 0)
(10.0829935156 0.0201223955546 0)
(10.0914555599 0.0233441423498 0)
(10.1000369951 0.0265816264335 0)
(10.1087237712 0.0298034509097 0)
(10.1174627815 0.0329795778331 0)
(10.1267437096 0.0360796528933 0)
(10.0010297719 -0.00391874093867 0)
(10.005094538 -0.00684604817988 0)
(10.0110853798 -0.00823257028161 0)
(10.0178898427 -0.00840211655715 0)
(10.0249924655 -0.00783236594987 0)
(10.0323676397 -0.00677312709931 0)
(10.0400303002 -0.00531931560801 0)
(10.0479386367 -0.00353514993612 0)
(10.0560288023 -0.00148943798052 0)
(10.0642595397 0.000752905768662 0)
(10.0726145114 0.00314042637324 0)
(10.0810883717 0.00563478685714 0)
(10.0896753163 0.00820239878988 0)
(10.0983627999 0.0108141880791 0)
(10.107132547 0.0134404058454 0)
(10.1159657385 0.0160522607979 0)
(10.12480449 0.0186214749789 0)
(10.1341314341 0.0211229341939 0)
(10.0014860136 -0.00662483163477 0)
(10.0067256849 -0.0114061819123 0)
(10.0140136052 -0.0137372869259 0)
(10.0217347784 -0.0144980842089 0)
(10.029429347 -0.0144815975189 0)
(10.0372722487 -0.0139672408808 0)
(10.0453622067 -0.0130300664413 0)
(10.0536565788 -0.0117480254123 0)
(10.0620840441 -0.0102167811736 0)
(10.0706103532 -0.00851749293553 0)
(10.0792324336 -0.00670441615125 0)
(10.0879536272 -0.00481137587808 0)
(10.0967681725 -0.00286070474641 0)
(10.1056606253 -0.000874228016681 0)
(10.1146088119 0.00112503925968 0)
(10.1235915757 0.00311202609004 0)
(10.1325531903 0.0050603192592 0)
(10.1420008696 0.00694201504981 0)
(10.0022226262 -0.00988701479478 0)
(10.0091743358 -0.0163994760926 0)
(10.0180513356 -0.0192367441543 0)
(10.0266630392 -0.0202967018695 0)
(10.0348463588 -0.020673750311 0)
(10.0430851695 -0.0205600768443 0)
(10.0515397596 -0.0199712627697 0)
(10.060137167 -0.0189979151953 0)
(10.0687958277 -0.0177619828607 0)
(10.0774985635 -0.0163588039017 0)
(10.0862642754 -0.0148466990041 0)
(10.0951107018 -0.0132603570515 0)
(10.1040379118 -0.0116241356717 0)
(10.113029062 -0.00996069365515 0)
(10.1220563777 -0.00829312307639 0)
(10.1310904786 -0.00664709024149 0)
(10.1400644105 -0.00504969947115 0)
(10.1494571936 -0.00352967379208 0)
(10.0034236718 -0.0139867062668 0)
(10.0128185746 -0.0218531752103 0)
(10.0235079022 -0.0246170671155 0)
(10.0328652589 -0.0257479279915 0)
(10.0414165643 -0.0264740300836 0)
(10.05002582 -0.0267858062028 0)
(10.0588536976 -0.0266464336935 0)
(10.0677661841 -0.0261652510628 0)
(10.0766716073 -0.0254662527728 0)
(10.0855727935 -0.0246234611829 0)
(10.0945081724 -0.0236691874297 0)
(10.1035048801 -0.0226188979191 0)
(10.1125645457 -0.0214872519134 0)
(10.1216681489 -0.0202933990873 0)
(10.1307847162 -0.0190610623583 0)
(10.1398820367 -0.0178180676367 0)
(10.1488928734 -0.0165993929736 0)
(10.1583252933 -0.0154521502455 0)
(10.0053394892 -0.0192935571426 0)
(10.0181042186 -0.0276707911216 0)
(10.0306540432 -0.0296863691328 0)
(10.0404539895 -0.0305890485374 0)
(10.0491720868 -0.0312542572633 0)
(10.0580133908 -0.0314048407583 0)
(10.0670627216 -0.0310709626004 0)
(10.0761308692 -0.0304731184715 0)
(10.0851446594 -0.029778952325 0)
(10.0941411087 -0.029052763875 0)
(10.1031773513 -0.0282968796191 0)
(10.1122825301 -0.0274964809394 0)
(10.1214518135 -0.0266417750251 0)
(10.1306578042 -0.0257341762309 0)
(10.1398609083 -0.0247834927393 0)
(10.1490157846 -0.0238063161198 0)
(10.1580301784 -0.0228333815277 0)
(10.1673424889 -0.0219274926272 0)
(10.0084148965 -0.0262727687746 0)
(10.0256635642 -0.0336350215674 0)
(10.0399153587 -0.0348445637203 0)
(10.0499659774 -0.0364311490868 0)
(10.0589339689 -0.0380241813662 0)
(10.0681166643 -0.0388514730766 0)
(10.077404461 -0.0389718966885 0)
(10.0865657278 -0.0387139132199 0)
(10.0955816232 -0.038312978374 0)
(10.1045471402 -0.0378639153562 0)
(10.1135498058 -0.0373798310444 0)
(10.1226266273 -0.0368469374086 0)
(10.1317696576 -0.0362526097005 0)
(10.1409461224 -0.0355923992579 0)
(10.1501125268 -0.034866240948 0)
(10.1592166173 -0.0340739464192 0)
(10.1681450533 -0.0332247626483 0)
(10.177287917 -0.0323816522457 0)
(10.0127950224 -0.0354617909317 0)
(10.0353218505 -0.0380681523754 0)
(10.0500352734 -0.0358876480591 0)
(10.0592886444 -0.0362756941336 0)
(10.0678002259 -0.0374873304545 0)
(10.0766205554 -0.0382618038185 0)
(10.08532807 -0.0385144721717 0)
(10.0936329073 -0.0384943971808 0)
(10.101572102 -0.0383872443174 0)
(10.1093044243 -0.0382628627796 0)
(10.1169595601 -0.0381235518836 0)
(10.1245974158 -0.0379494249713 0)
(10.1322237093 -0.037722416532 0)
(10.1398186171 -0.037429866087 0)
(10.1473548226 -0.0370580124572 0)
(10.1547952729 -0.0365769622901 0)
(10.1620153737 -0.0359262320455 0)
(10.1691448686 -0.035004695657 0)
(10.0161143921 -0.0492457915599 0)
(10.0396477138 -0.051454809787 0)
(10.0457315943 -0.048858234316 0)
(10.0433873842 -0.0485562386373 0)
(10.0393209594 -0.0488968678277 0)
(10.0346130293 -0.0489309521081 0)
(10.0288531397 -0.0486198777114 0)
(10.0219335374 -0.0481457549873 0)
(10.0141196073 -0.0476396488925 0)
(10.0057737754 -0.0471520023207 0)
(9.99718818663 -0.0466857470592 0)
(9.98854947342 -0.0462276447964 0)
(9.97996430901 -0.0457637539876 0)
(9.97149850517 -0.0452817845863 0)
(9.96320788561 -0.0447649863796 0)
(9.95515706843 -0.0441707707381 0)
(9.94738695663 -0.0433853955976 0)
(9.93978546883 -0.0417347672755 0)
(9.85245941778 -0.0290569194057 0)
(9.72336838015 -0.0318064129336 0)
(9.57926057663 -0.0316952286741 0)
(9.43554503832 -0.0320999447269 0)
(9.29947828863 -0.032474049099 0)
(9.17125686891 -0.0325462193736 0)
(9.04963899887 -0.0323627866551 0)
(8.93388678553 -0.0320325344036 0)
(8.82376521702 -0.0316335534028 0)
(8.71920071427 -0.0312058566095 0)
(8.62008053396 -0.0307655028979 0)
(8.52620695768 -0.0303179417473 0)
(8.43732459 -0.0298650593068 0)
(8.35316339644 -0.0294069577635 0)
(8.27347484101 -0.0289401886241 0)
(8.19805879822 -0.0284465515168 0)
(8.12700695299 -0.0278595524399 0)
(8.0586067971 -0.0265403826088 0)
(0.0264729899004 -0.110144578171 1.94813016416e-19)
(0.0496862605255 -0.107434895745 0)
(0.0762214506915 -0.101638688782 0)
(0.085903561105 -0.0645171709638 0)
(0.0559548676937 0.0313602841632 0)
(-0.0610352262821 0.110309816073 -1.2364553609e-19)
(-0.176384045686 0.130909012554 0)
(-0.297573213727 0.141462501823 0)
(-0.42481873417 0.148750687511 4.49202863114e-20)
(-0.557617889578 0.153960877828 0)
(-0.695190573125 0.157613695407 -3.1828610461e-20)
(-0.836754465168 0.16004689127 0)
(-0.98158522529 0.161504904274 -2.54775601421e-20)
(-1.12903396353 0.162174547903 -2.35288031428e-20)
(-1.27852854609 0.162205029664 0)
(-1.42957107444 0.161718961935 2.10187955713e-20)
(-1.58173368121 0.160819995009 2.02313063424e-20)
(-1.73465423361 0.159597020814 1.96597171644e-20)
(-1.88803240979 0.158127611555 0)
(-2.04162547392 0.156479655828 0)
(-2.19524479297 0.154712926271 0)
(-2.34875201292 0.152879556269 0)
(-2.50205532277 0.151024768431 0)
(-2.65510498659 0.149186709237 0)
(-2.80788882798 0.147396698411 -1.88966075797e-20)
(-2.96042687098 0.145678913922 -1.90371971117e-20)
(-3.11276551359 0.144050488105 0)
(-3.26497118347 0.142521140407 1.94130387121e-20)
(-3.41712329405 0.141093489508 1.96384712272e-20)
(-3.56930677694 0.139762917026 1.98837615836e-20)
(-3.72160435679 0.138518117892 0)
(-3.87408894429 0.137341269948 0)
(-4.02681583164 0.13620902277 -2.07104623761e-20)
(-4.17981528538 0.135092941888 0)
(-4.3330857327 0.133960728703 0)
(-4.48658778678 0.132776901921 -2.16307161343e-20)
(-4.64023892082 0.131504249948 0)
(-4.7939093497 0.130104498078 0)
(-4.94741889282 0.128539746453 0)
(-5.10053494084 0.126773090106 0)
(-5.25297162896 0.124770116333 0)
(-5.40439060953 0.122499512811 4.72121562488e-20)
(-5.55440370809 0.119934426682 0)
(-5.70257686482 0.117052660571 0)
(-5.84843499064 0.113837470535 4.91964147371e-20)
(-5.99146684302 0.110277706234 4.98404210463e-20)
(-6.13113153725 0.106369395242 0)
(-6.26686798525 0.102116227936 0)
(-6.39810794543 0.0975297278178 5.16669409461e-20)
(-6.52428918338 0.0926279143688 0)
(-6.64486744323 0.0874350468015 -5.27529065438e-20)
(-6.75932499759 0.0819805962798 0)
(-6.86717783674 0.076298810388 5.36897238057e-20)
(-6.9679782496 0.0704292400223 0)
(-7.0613174174 0.0644178465248 5.44367768211e-20)
(-7.14683143321 0.0583161029851 5.472587978e-20)
(-7.22421132594 0.0521773434988 0)
(-7.29321912459 0.0460512074072 0)
(-7.35370172881 0.0399776850213 0)
(-7.4055948132 0.0339830475346 5.52149424115e-20)
(-7.44891196118 0.0280785219041 0)
(-7.48370652527 0.0222624943081 0)
(-7.5100394437 0.0165192819033 0)
(-7.52793734367 0.0108380679848 0)
(-7.53739948411 0.00525736171341 0)
(-7.53853265227 -0.000138974697191 0)
(-7.53163823042 -0.00529255437115 0)
(-7.51702361616 -0.0102020945177 -5.22338947303e-20)
(-7.49498824324 -0.0148996005134 0)
(-7.46576251532 -0.0194439875784 -5.05530264405e-20)
(-7.42945301128 -0.0239212754607 -4.95726476679e-20)
(-7.38598365722 -0.0284428850461 0)
(-7.33503643325 -0.0331456337776 4.72890432404e-20)
(-7.27599946265 -0.0381849365589 0)
(-7.20793366572 -0.0437267173327 -4.44667893375e-20)
(-7.12956808817 -0.0499306576184 0)
(-7.03933474538 -0.0569338124376 4.09038679261e-20)
(-6.93545126886 -0.0648263038925 -3.87611182718e-20)
(-6.81604704592 -0.0736336151557 0)
(-6.67932213642 -0.0833008129619 0)
(-6.52372552585 -0.0936892970702 0)
(-6.34813189067 -0.10457336904 0)
(-6.15198135884 -0.115658668968 -2.296604879e-20)
(-5.93536248891 -0.126608051435 1.85705477636e-20)
(-5.69905745494 -0.137074684441 -2.74144138261e-20)
(-5.44454813306 -0.146717040418 -1.67153800999e-20)
(-5.1739238188 -0.155228741663 -5.00455217489e-21)
(-4.8897127792 -0.162366306317 0)
(-4.59472803525 -0.16796526585 0)
(-4.29199472227 -0.171918618532 0)
(-3.98460297345 -0.174170925331 5.3311394318e-20)
(-3.67551368394 -0.174730042264 0)
(-3.36742192582 -0.17365337448 0)
(-3.06274319629 -0.171045116112 1.13182958567e-19)
(-2.76362970759 -0.167069707525 0)
(-2.47191032779 -0.161944913039 -1.65612976532e-19)
(-2.18916653491 -0.155915229875 0)
(-1.91655525187 -0.149304879514 2.34905864292e-19)
(-1.65484758674 -0.142578922934 0)
(-1.40463072232 -0.136439890574 0)
(-1.16647090409 -0.131648848517 0)
(-0.941126251121 -0.129265367786 4.91831618073e-19)
(-0.728051711721 -0.129962517852 0)
(-0.527341155356 -0.134480180364 7.91810268553e-19)
(-0.337044896755 -0.14247466557 1.0708075548e-18)
(-0.156441037663 -0.154478467655 0)
(0.00655586309053 -0.163407193511 0)
(0.203284416356 -0.144358523007 0)
(0.336919798901 -0.119602740666 1.4394351861e-18)
(0.46620767348 -0.0980037782796 0)
(0.589865565942 -0.0810755741298 0)
(0.704521187266 -0.0678540281987 7.62869779842e-19)
(0.809144389019 -0.0573425739144 6.77907927796e-19)
(0.903735716011 -0.0487714846262 0)
(0.988747651513 -0.0416127408234 -5.69091719976e-19)
(1.0647971306 -0.0354951808047 -5.32566420922e-19)
(1.13253222091 -0.0301796766601 5.03531415483e-19)
(1.19255444591 -0.0254957147471 0)
(1.24541081112 -0.0213341034832 0)
(1.29159088425 -0.0176094061647 0)
(1.33154427887 -0.014263808653 -4.32748505354e-19)
(1.36567543107 -0.0112471278088 0)
(1.39434975586 -0.00852741961245 -4.13794233164e-19)
(1.41789712034 -0.00607655642374 0)
(1.43662969336 -0.00389096956208 0)
(1.45084530124 -0.0019710939513 0)
(1.46085576578 -0.000332160697667 3.94591400601e-19)
(1.46701447471 0.00102601376442 3.92570361677e-19)
(1.47009239457 0.00212177606299 0)
(1.47056124548 0.0030321430121 0)
(1.4685268167 0.0038234032764 0)
(1.46411350144 0.00452120402533 0)
(1.45746027555 0.0051298323961 0)
(1.44871308341 0.00565919858773 0)
(1.43801435414 0.00611464077022 7.88084801685e-19)
(1.42549593495 0.0065079004289 0)
(1.41127789847 0.00684541079919 0)
(1.39546619911 0.00713770456189 0)
(1.37815669905 0.0073906142547 -8.16338476624e-19)
(1.35943817857 0.00761286774086 -8.26242766274e-19)
(1.33939770092 0.00781053679374 8.37305068234e-19)
(1.31811249889 0.00799281713174 8.49554024555e-19)
(1.29564921947 0.00816669911624 0)
(1.27206421115 0.00833287542767 0)
(1.24740753589 0.00848934555082 0)
(1.22172829495 0.00863389351033 9.11280947723e-19)
(1.19506440009 0.00876064065065 0)
(1.16744294821 0.00888116945011 0)
(1.13890623582 0.00901718784938 -9.72998141883e-19)
(1.10950845279 0.00918305374019 0)
(1.07929756905 0.00938221515517 -1.02298791344e-18)
(1.04831610259 0.0096163798188 0)
(1.01660453465 0.00988636473698 -1.08124773875e-18)
(0.984215373812 0.0101780652157 0)
(0.951231630877 0.0104649421604 0)
(0.917738253871 0.0107065705014 0)
(0.883808200742 0.010904923374 0)
(0.849579975207 0.0110798119471 0)
(0.815311967721 0.0111931504762 0)
(0.78129886892 0.0111625094877 0)
(0.747842339314 0.0109710814779 0)
(0.715404418704 0.0106839879143 -1.47133932059e-18)
(0.684656158945 0.0103161791183 0)
(0.656416485271 0.00982004948337 0)
(0.631621436355 0.00910823768404 -1.62342560595e-18)
(0.611468970744 0.00809218600086 0)
(0.59698046539 0.00676301847744 0)
(0.589509988515 0.00529992168442 -1.68318106465e-18)
(0.58939388554 0.0040039514426 0)
(0.593818755181 0.00307138183152 0)
(0.600759157838 0.00251573408083 -1.63741458941e-18)
(0.60867477463 0.00230852588865 1.62081336452e-18)
(0.61636715512 0.002377123227 -1.60661483936e-18)
(0.622841082671 0.00260834390868 0)
(0.627284391752 0.00286677146979 0)
(0.62929573154 0.00302873412858 -3.17272949278e-18)
(0.629160076787 0.00304641489081 0)
(0.626888848606 0.00305039099611 3.17235163738e-18)
(0.631122399539 0.00316430785168 3.17988941039e-18)
(0.512164642617 -0.000791998864006 0)
(0.00664877243748 -0.113770450536 -6.00963209519e-19)
(-0.0453015327166 -0.00599860578465 0)
(-0.148967889772 0.127257205693 2.00497859248e-19)
(-0.229861759357 0.19692930161 -1.29759293032e-19)
(-0.306861986266 0.252840252195 -9.55821943145e-20)
(-0.402595996952 0.29937661021 3.84330513402e-20)
(-0.509715631284 0.331029139847 6.52836998082e-20)
(-0.626020279743 0.354767175603 0)
(-0.749808658709 0.373183336272 -2.48161225797e-20)
(-0.879597280483 0.387475107281 4.53476962844e-20)
(-1.01420123518 0.39841143828 6.22129877527e-20)
(-1.15265455588 0.406554917627 -3.89115078829e-20)
(-1.29414994626 0.412346621285 5.49034561825e-20)
(-1.43800395539 0.416148005326 1.73030902593e-20)
(-1.58363453922 0.418265219898 0)
(-1.73054622935 0.418963237801 -1.63315040515e-20)
(-1.87831956122 0.418475702821 -1.60657589921e-20)
(-2.02660319301 0.41701096479 -1.59103723059e-20)
(-2.17510797961 0.414756936016 3.22799632762e-20)
(-2.32360193 0.411883810674 0)
(-2.47190620878 0.408546398493 3.24020305839e-20)
(-2.61989121559 0.4048849804 0)
(-2.76747305591 0.401026043858 -3.29354392744e-20)
(-2.91460950422 0.397081803848 0)
(-3.06129562877 0.393149866311 5.04040388062e-20)
(-3.20755885096 0.389311975466 -1.73481550721e-20)
(-3.35345347684 0.38563318894 -3.47869999597e-20)
(-3.49905438788 0.382160469214 -5.28371154897e-20)
(-3.64445004578 0.37892209195 -1.77884445768e-20)
(-3.78973507877 0.375926703708 -1.81127584407e-20)
(-3.93500246589 0.373163460144 0)
(-4.08033556208 0.370602007391 -3.79257777184e-20)
(-4.2258001168 0.368193757598 1.91446561592e-20)
(-4.37143665066 0.365872877242 0)
(-4.51725330386 0.363558554091 0)
(-4.66321938903 0.361156923475 2.02375886381e-20)
(-4.80925988141 0.358564187095 0)
(-4.9552509965 0.35566902495 0)
(-5.10101674895 0.352356077463 0)
(-5.24632640953 0.348508645075 0)
(-5.39089325421 0.344012653102 0)
(-5.53437516207 0.338759716793 4.56379991722e-20)
(-5.67637757017 0.332651134518 9.22155189248e-20)
(-5.81645806567 0.325600261709 0)
(-5.95413132403 0.317535322308 4.7971503634e-20)
(-6.08887271749 0.30840162614 -4.80694320302e-20)
(-6.22012459305 0.29816608466 0)
(-6.34730783516 0.286820104537 0)
(-6.46983759837 0.274380775802 -1.5143244856e-19)
(-6.58713740536 0.260888588425 -1.02577696052e-19)
(-6.69864910174 0.246406714749 5.15647956523e-20)
(-6.80384247287 0.23101836108 1.05151463058e-19)
(-6.90221884203 0.214825389058 5.35611388338e-20)
(-6.99331077886 0.197949310457 0)
(-7.07668769143 0.180531937829 -1.62181349029e-19)
(-7.15196054535 0.162730776123 -5.42246276251e-20)
(-7.21880632366 0.144709165696 0)
(-7.27698310391 0.126625000973 1.10607710808e-19)
(-7.32634368445 0.108619257881 -1.11075023547e-19)
(-7.36684563541 0.0908104456756 -5.53163038105e-20)
(-7.39849722118 0.0732882271447 0)
(-7.42136715906 0.0561070134395 0)
(-7.43550752173 0.0392961784059 0)
(-7.44086134333 0.0229167127584 1.11141373761e-19)
(-7.43733500226 0.00713161208895 0)
(-7.42594428531 -0.00786124348538 -1.09286487743e-19)
(-7.40694340016 -0.0220093667667 0)
(-7.38071733739 -0.03534885334 -5.36312206374e-20)
(-7.34759420796 -0.0479856091278 0)
(-7.30782269314 -0.0600945168666 -5.1974200453e-20)
(-7.26152163205 -0.0719230045371 -5.10189196129e-20)
(-7.20862075127 -0.0837889674401 0)
(-7.14879809601 -0.0960777796474 -4.80949344181e-20)