/*--------------------------------*- C++ -*----------------------------------*\
| =========                 |                                                 |
| \\      /  F ield         | OpenFOAM: The Open Source CFD Toolbox           |
|  \\    /   O peration     | Version:  v1806                                 |
|   \\  /    A nd           | Web:      www.OpenFOAM.com                      |
|    \\/     M anipulation  |                                                 |
\*---------------------------------------------------------------------------*/
FoamFile
{
    version     2.0;
    format      ascii;
    class       volScalarField;
    location    "1";
    object      p;
}
// * * * * * * * * * * * * * * * * * * * * * * * * * * * * * * * * * * * * * //

dimensions      [0 2 -2 0 0 0 0];


internalField   nonuniform List<scalar> 
12225
(
-2.08962993138
-2.30080376798
-2.45876099988
-2.59040196737
-2.70520197392
-2.80714455821
-2.89871548137
-2.9817080146
-3.05743230043
-3.12682193129
-3.19051704354
-3.24893151062
-3.30232375048
-3.3508610033
-3.39469939628
-3.43415038787
-3.47000527012
-3.50472481314
-2.15667863123
-2.33232256786
-2.48086645955
-2.60715525662
-2.71823059869
-2.81749013922
-2.9070966383
-2.98863215674
-3.06326368161
-3.13182643176
-3.19489199418
-3.25282572874
-3.30584842078
-3.35409254211
-3.39767030863
-3.43680973707
-3.47246747134
-3.50827892737
-2.22148729395
-2.36272768803
-2.49928300887
-2.61951031653
-2.72677198303
-2.82351649084
-2.91144539396
-2.99185830356
-3.06574023333
-3.13380798797
-3.19655509661
-3.25429396088
-3.30720134929
-3.35535571103
-3.39876782783
-3.43741027317
-3.47117534924
-3.49873672574
-2.28204614849
-2.39573545605
-2.51984802016
-2.63383874856
-2.73732470227
-2.83163055277
-2.91795462496
-2.99730561959
-3.07048756919
-3.1381029385
-3.20057200626
-3.25815798315
-3.31099447856
-3.35910008901
-3.40236397608
-3.44045211444
-3.47238300566
-3.49477958575
-2.33912305481
-2.43106431031
-2.5426217083
-2.64984036576
-2.74915945666
-2.84071753355
-2.92518142716
-3.00326057706
-3.07557418645
-3.1426077507
-3.20470625654
-3.26208202478
-3.31482495577
-3.3628968966
-3.40608421349
-3.44384346449
-3.47483516353
-3.49568728416
-2.39310611637
-2.46794549154
-2.56736774645
-2.66744911273
-2.76228405443
-2.85086287951
-2.93330219427
-3.01000047144
-3.08138432606
-3.14781641778
-3.20956265649
-3.26678282192
-3.31952616526
-3.36771149683
-3.4110669274
-3.44898037595
-3.48016900141
-3.5021031689
-2.44430278907
-2.50573631783
-2.59383493075
-2.68662095687
-2.7767217003
-2.86211356593
-2.94236938628
-3.01757194942
-3.08795068407
-3.15374213611
-3.2151317145
-3.27222842405
-3.32504879769
-3.37349061374
-3.41727802981
-3.45585647411
-3.48823467082
-3.51283433985
-2.49295849691
-2.54389888164
-2.62171585266
-2.70725109479
-2.79245026384
-2.8744811844
-2.95241061746
-3.02601187513
-3.09531761056
-3.16043795566
-3.22147878057
-3.27850245762
-3.33150382682
-3.38038411913
-3.42491298067
-3.46467853676
-3.49906373504
-3.52727216047
-2.53925789074
-2.58198264422
-2.6506654068
-2.72917839724
-2.80940689495
-2.88795017898
-2.9634353148
-3.03534446342
-3.1035193806
-3.16794630397
-3.22865442952
-3.28566511118
-3.33896301187
-3.3884744686
-3.43404937023
-3.47545661742
-3.51243738141
-3.54474840828
-2.58332159528
-2.61960297387
-2.68031388131
-2.75218647493
-2.82748147852
-2.90246982675
-2.97542661943
-3.04557346662
-3.11257313258
-3.17629372933
-3.23669250813
-3.29375596116
-3.34746866034
-3.39779687511
-3.44468675476
-3.48808731313
-3.52803111843
-3.56461706824
-2.62521245864
-2.65642207159
-2.71027312018
-2.77600024784
-2.84650300231
-2.9179372795
-2.98832470582
-3.05666712733
-3.12246584493
-3.185479872
-3.24560015467
-3.3027842824
-3.35702298772
-3.40832854371
-3.456741425
-3.5023631261
-3.54543278776
-3.58622950322
-2.66167659225
-2.68921294131
-2.73770783962
-2.79831107873
-2.86462490386
-2.93285725852
-3.00088803135
-3.06756075483
-3.13224919148
-3.19462228147
-3.25451630773
-3.31186560164
-3.36666823317
-3.41897491524
-3.46889810641
-3.51664084109
-3.5625573782
-3.60697836558
-2.69611201696
-2.72066750008
-2.76457743134
-2.82057151505
-2.88297164605
-2.94813433402
-3.01386911793
-3.07890126685
-3.14249803534
-3.20424969952
-3.26394326673
-3.32149171821
-3.37689857295
-3.43024558153
-3.48169759153
-3.53152483985
-3.5801418196
-3.62788364772
-2.73294617305
-2.75480102143
-2.79435194088
-2.84574532357
-2.90407966914
-2.96595987291
-3.02919183317
-3.09241583643
-3.15480630852
-3.21587919885
-3.27537210363
-3.33317561238
-3.3892934493
-3.44382789766
-3.49697703436
-3.54904354521
-3.60045509295
-3.65149007027
-2.77122293782
-2.79073276787
-2.82632982085
-2.87335057824
-2.92766067095
-2.98618856801
-3.04680784996
-3.10811751806
-3.16922270967
-3.22957398178
-3.28886331614
-3.34695207547
-3.40383558211
-3.45961556959
-3.51449370929
-3.56876155395
-3.62280768903
-3.67680700821
-2.80933433446
-2.82691137811
-2.85913047442
-2.90225796867
-2.95284534175
-3.00817535724
-3.06624418748
-3.12565610862
-3.1854737794
-3.24509832899
-3.3041747604
-3.36253242344
-3.42013699557
-3.4770672614
-3.53348830165
-3.58964197258
-3.64583096841
-3.70210194081
-2.84465672905
-2.86077137786
-2.89036459043
-2.93036259015
-2.97785698168
-3.03045270233
-3.08629045822
-3.14401114354
-3.2026616732
-3.26160549792
-3.32044625623
-3.37896853255
-3.43709415615
-3.49484800712
-3.55233224231
-3.60970267908
-3.66715769879
-3.724607361
-2.87292204166
-2.88813436978
-2.91607992
-2.95406627671
-2.99951860446
-3.05026224576
-3.10455266284
-3.16107200493
-3.21886532493
-3.27727009702
-3.33585148252
-3.394345575
-3.45261817485
-3.5106262336
-3.56839380662
-3.62598388673
-3.68349315563
-3.74072563759
-2.88702306663
-2.90211157646
-2.92981868446
-2.96748963198
-3.01258880805
-3.06297721046
-3.11693800654
-3.17316782344
-3.23071316735
-3.28889786699
-3.34726124438
-3.40549940839
-3.4634278461
-3.52094031892
-3.57799068857
-3.634562921
-3.69067361532
-3.74606057959
-2.87713391745
-2.89324290158
-2.92276008797
-2.96256110496
-3.00973504604
-3.06192694289
-3.11733775119
-3.17465025769
-3.23293402255
-3.29153228776
-3.35000457559
-3.40804518761
-3.46546532828
-3.52213333834
-3.57798143103
-3.63295574121
-3.68704439921
-3.73996081385
-2.85460490216
-2.87246346918
-2.90502618633
-2.94831990183
-2.99881303933
-3.05384685121
-3.11152654758
-3.17055729503
-3.23005654672
-3.28943586543
-3.34829367062
-3.40636896019
-3.4634808727
-3.51951985211
-3.57440532219
-3.62809701562
-3.68056626241
-3.73155905077
-2.8222994073
-2.84289979708
-2.88000048325
-2.92821862986
-2.98317099663
-3.04188113412
-3.10242876723
-3.16360131545
-3.22463029415
-3.28502251749
-3.34445972633
-3.40273337658
-3.45970520984
-3.51528424617
-3.56940756575
-3.62203728663
-3.67315728528
-3.72252658004
-2.78272646724
-2.8073753413
-2.85068786186
-2.90514826372
-2.9654078677
-3.02829849832
-3.09200931652
-3.15550680795
-3.21818923785
-3.27969857025
-3.3398183404
-3.39841053591
-3.45538938183
-3.51068876198
-3.56426890129
-3.61609019717
-3.66615026011
-3.71421832735
-2.73755633568
-2.76807072458
-2.81946300245
-2.88128880372
-2.9473718948
-3.01463236956
-3.08154860024
-3.14735945001
-3.21167619677
-3.27429911302
-3.33512528371
-3.39409888279
-3.45118480461
-3.50635510783
-3.55957694476
-3.61081771936
-3.66005349985
-3.70705865531
-2.68787149119
-2.7268138201
-2.78824871507
-2.85822705664
-2.93028354221
-3.00182452665
-3.07179444695
-3.13977232996
-3.20560921859
-3.26927438643
-3.33078351334
-3.39016454997
-3.44743917637
-3.50261518076
-3.55567666787
-3.60658056139
-3.65526438853
-3.70145905635
-2.63433230253
-2.68527868667
-2.75858265873
-2.83702670076
-2.91485498597
-2.99037481162
-3.06311403115
-3.13302087797
-3.20018996389
-3.2647561307
-3.32685065531
-3.38658179461
-3.44402845712
-3.49923946718
-3.55222401085
-3.60293334582
-3.65123937349
-3.6967073016
-2.5773031281
-2.64510545273
-2.73160765194
-2.81828089803
-2.90141312815
-2.98051022934
-3.05572273031
-3.12736204369
-3.19575373839
-3.26118544077
-3.32389105424
-3.38405272853
-3.44179816667
-3.49722150865
-3.55037087182
-3.60122159536
-3.64960400362
-3.69483947717
-2.51695693351
-2.60797118914
-2.70807182722
-2.80214435471
-2.88977986445
-2.97177133954
-3.04887042176
-3.12173878752
-3.19092417783
-3.25685888759
-3.31987530429
-3.3802184354
-3.43806620801
-3.49355551409
-3.54678896679
-3.59781782018
-3.64653421009
-3.6919724011
-2.45312282698
-2.57532663495
-2.68887233074
-2.79002344688
-2.88213426697
-2.96709145804
-3.04616820565
-3.12034809977
-3.19039147033
-3.25687450733
-3.32022726058
-3.38076296061
-3.4387111018
-3.4942550466
-3.54755964563
-3.59880389097
-3.64820375878
-3.69537465733
-2.38626004867
-2.5415371269
-2.66488984981
-2.77159350418
-2.86760722433
-2.9554206585
-3.03662267709
-3.11240444412
-3.18366979085
-3.25109608097
-3.31518457192
-3.37630048938
-3.43471412546
-3.49064228972
-3.54428689782
-3.59590067921
-3.64594556729
-3.69600441642
-2.50292349771
-2.5105410835
-2.5173969145
-2.52857717976
-2.55412573829
-2.60233786507
-2.67404450989
-2.76877249003
-2.88593526823
-3.02479307868
-3.1845011209
-3.36413959092
-3.56274010068
-3.77929877455
-4.0127928156
-4.26218553088
-4.52643588433
-4.80449681488
-5.09531861513
-5.39784157659
-5.71099422842
-6.03368152873
-6.3647799366
-6.70312217715
-7.04749027008
-7.39659797364
-7.74908303311
-8.10348777669
-8.45825130273
-8.81168828733
-9.16198111548
-9.50715701146
-9.84508012602
-10.1734257797
-10.4896728227
-10.7910777512
-11.0746680309
-11.3372162797
-11.5752328186
-11.7849391778
-11.9622766483
-12.1028982621
-12.2021786888
-12.2552058062
-12.2568386312
-12.2017590532
-12.0846267604
-11.9002439118
-11.6436350712
-11.3101921288
-10.896216204
-10.3997622614
-9.82107313808
-9.16238091686
-8.42798514876
-7.62419179302
-6.75914867249
-5.84252853264
-4.88514156631
-3.89845808533
-2.89414311323
-1.88358073931
-0.877487272607
0.114427508697
1.08367402166
2.02314021594
2.92712664678
3.79134642701
4.61283094914
5.38982184765
6.12159980044
6.80833021932
7.45087439175
8.05064445721
8.60945036021
9.12940786881
9.61279644749
10.0619332533
10.4791424891
10.8667589108
11.2270027049
11.5619206361
11.8735975465
12.1641004184
12.4346552661
12.6862545712
12.9218415956
13.144332145
13.3516614596
13.5412534074
13.7182061634
13.8888103874
14.049608227
14.1928093897
14.3223260997
14.4498241475
14.5770299764
14.6972045351
14.799777037
14.8841423805
14.9628719885
15.0437927202
15.1219235732
15.1915541948
15.2515739799
15.3025776803
15.3456747609
15.3820239845
15.4126563228
15.4384410303
15.4600825171
15.4781554892
15.493119278
15.5053546661
15.5151697037
15.5228287648
15.5285495217
15.5325261805
15.5349221639
15.535886162
15.5355409419
15.5339988836
15.531356363
15.5277116888
15.5231518979
15.5177651953
15.5116225081
15.5047938542
15.4973327006
15.4892936777
15.4807174417
15.4716473823
15.4621149857
15.4521553113
15.4417935399
15.4310589036
15.4199729209
15.4085612874
15.3968447527
15.3848469356
15.3725873749
15.3600866962
15.3473661992
15.3344512711
15.3213723092
15.3081647365
15.2948511812
15.2814684028
15.2680752013
15.2547034774
15.2413566174
15.2280299288
15.2147169958
15.2014124324
15.1881138661
15.1748256138
15.1615645199
15.1483555462
15.1352250343
15.1222058952
15.1093431929
15.0966969455
15.0843447604
15.0723869899
15.0609532934
15.0502104208
15.0403721773
15.0317115967
15.0245773471
15.0194147864
15.0167952731
15.0174553694
15.0223523711
15.0327416513
15.0502893727
15.0772379562
15.1166609167
15.1728640306
15.2522629727
15.3597758334
-2.46522041517
-2.48403418613
-2.50749735187
-2.52994451259
-2.56439263654
-2.61936940283
-2.69597995164
-2.79452254297
-2.91479774656
-3.05629502544
-3.21830405862
-3.39998179376
-3.60040309563
-3.81859121361
-4.05354332865
-4.30424212017
-4.56966686775
-4.84879370069
-5.1405977417
-5.44404627462
-5.75809519109
-6.08167766557
-6.41369725452
-6.75301373634
-7.09843446257
-7.44869810565
-7.80246528688
-8.15830143082
-8.51466679867
-8.86989777069
-9.22219711348
-9.56961449537
-9.91003552248
-10.2411593675
-10.5604884034
-10.8653051888
-11.1526627897
-11.4193629201
-11.66193781
-11.8766270043
-12.0593910651
-12.2059013642
-12.3115244916
-12.3713193531
-12.3800712554
-12.3323261076
-12.2226736683
-12.0457954635
-11.7963575517
-11.4689439693
-11.0592193583
-10.5650083324
-9.98641704764
-9.32556444476
-8.58673844351
-7.77637446707
-6.9028807716
-5.97630470524
-5.0078977424
-4.0096025035
-2.99353492884
-1.97148542164
-0.954499618065
0.0474596140327
1.02573883482
1.97312988708
2.8839029289
3.75379069911
4.57989497835
5.36054736762
6.09514091721
6.78395887067
7.4280011138
8.02877331632
8.5881485157
9.10833834435
9.59174901131
10.0407153597
10.4575345228
10.8447441944
11.2047276735
11.5390796564
11.8496819808
12.1397000862
12.4105249721
12.6607626605
12.892967561
13.1143630255
13.3243696712
13.5151001853
13.6892675095
13.8580178913
14.0220691898
14.1679167925
14.2943724214
14.4162437423
14.5423131897
14.6645365621
14.7745618208
14.8679998596
14.9500286314
15.0291233429
15.1040556918
15.1716462356
15.2308336191
15.2818437078
15.3254506346
15.3625726305
15.3940946767
15.4207951916
15.4433354708
15.4622639858
15.4780361743
15.4910286381
15.5015572462
15.5098875842
15.516246698
15.5208300897
15.5238088
15.5253313528
15.5255253556
15.5245020174
15.5223619026
15.5192010706
15.5151105554
15.5101747608
15.504467895
15.4980561577
15.4909962727
15.4833396048
15.475130118
15.4664086495
15.4572100502
15.4475676144
15.4375098798
15.4270650865
15.4162579446
15.4051138957
15.3936564234
15.381909249
15.3698937168
15.3576313618
15.3451449518
15.3324620418
15.3196159567
15.3066434654
15.293584338
15.2804676847
15.2673089264
15.2541228711
15.2409196235
15.2277024067
15.2144714507
15.201225629
15.1879651576
15.174695842
15.1614398084
15.1482287163
15.13509005
15.1220567184
15.109174233
15.0965026739
15.0841185675
15.0721207473
15.0606368231
15.0498311149
15.039914177
15.0311550141
15.0238967198
15.0185773121
15.0157577864
15.0161604216
15.0207217713
15.0306670125
15.0476161251
15.0737387464
15.1119859015
15.1664291769
15.2430027513
15.3421227089
-2.43858310379
-2.46469149048
-2.50360642245
-2.55088498241
-2.60993093318
-2.68443593231
-2.77635404099
-2.88685349281
-3.01642404316
-3.16507827621
-3.33250424282
-3.51816951443
-3.72139842928
-3.94142102695
-4.17741081762
-4.42850448035
-4.69381811077
-4.97245082308
-5.2634888459
-5.56600018467
-5.87903194854
-6.20159982413
-6.5326818475
-6.87120516702
-7.21603779026
-7.5659737194
-7.91972408846
-8.27590119701
-8.63300914513
-8.98942674425
-9.34339833573
-9.69301571319
-10.0362070608
-10.3707166238
-10.6940933549
-11.003668375
-11.2965470835
-11.5695823937
-11.8193523446
-12.0421381115
-12.2339387525
-12.3904440276
-12.5069980687
-12.5785980409
-12.5998888885
-12.5651881413
-12.4688682475
-12.3052094381
-12.0682129794
-11.7511745219
-11.3488240218
-10.8584480649
-10.2795473214
-9.6139090904
-8.86579745878
-8.04194713751
-7.15135803728
-6.20489650573
-5.21476489276
-4.19389001261
-3.15531236614
-2.1116199806
-1.07448818262
-0.0543291526754
0.939941354424
1.90099769973
2.82311159197
3.70211275677
4.53528974735
5.32123078484
6.05956198945
6.75081169453
7.39627577061
7.99772442384
8.55710838338
9.07674672748
9.55942385763
10.0076152393
10.4231540397
10.8087442402
11.1680203016
11.5021119665
11.8109671396
12.0992744648
12.3716236491
12.623348603
12.851334667
13.0682073317
13.2806050253
13.4741387788
13.6443583185
13.8065483895
13.9704687418
14.1266484246
14.2653200268
14.3916666495
14.5141193681
14.6304093726
14.7367376062
14.8317410262
14.9176158961
14.9975948339
15.0717362297
15.1388191181
15.1982251094
15.2500556066
15.2948554001
15.3333474541
15.366287337
15.394374343
15.4182320314
15.4383911498
15.4553076764
15.4693616572
15.4808803538
15.4901368241
15.4973700708
15.5027819692
15.5065525965
15.5088333874
15.5097583511
15.5094397231
15.5079838644
15.5054865738
15.5020431653
15.4977353958
15.4926406718
15.4868220718
15.4803395181
15.4732413476
15.4655747232
15.4573776748
15.4486882075
15.4395371756
15.4299561027
15.4199712463
15.4096099321
15.3988963323
15.3878554069
15.3765095494
15.3648801589
15.3529874585
15.3408533177
15.3285034156
15.3159677989
15.3032795027
15.2904732729
15.2775789942
15.2646181094
15.2516077683
15.2385602379
15.2254829451
15.2123805516
15.199258457
15.1861241425
15.1729891287
15.1598624515
15.1467576032
15.1337002298
15.1207214744
15.1078648627
15.0951922889
15.0827789997
15.0707203795
15.0591391031
15.0481923754
15.0380813577
15.0290620989
15.0214602886
15.0156896772
15.0122777259
15.0118988737
15.0154208026
15.0239659236
15.0389965914
15.0624285075
15.0967770978
15.1452886143
15.2118419805
15.294902226
-2.47381527114
-2.51015529849
-2.56170136427
-2.62587005866
-2.70346133906
-2.79552160676
-2.90298558234
-3.02662260095
-3.16690543936
-3.3240142905
-3.49788155054
-3.68824137706
-3.89468098886
-4.11667801683
-4.35363392468
-4.60489262544
-4.86975732536
-5.14749515567
-5.43734284961
-5.73850263409
-6.05014115069
-6.37138053478
-6.70129349841
-7.03889160505
-7.38311863202
-7.73283719128
-8.08682120057
-8.44374165251
-8.80215842344
-9.16050500553
-9.51708059047
-9.87003375932
-10.2173523097
-10.5568443901
-10.886127549
-11.2026066557
-11.5034674418
-11.7856463252
-12.0458029869
-12.280296391
-12.4851993801
-12.6562560119
-12.7888203662
-12.8778386054
-12.9177943424
-12.9027092541
-12.8265841002
-12.6830991027
-12.4653025599
-12.1647459638
-11.7745765953
-11.2910791761
-10.7127682212
-10.0408392718
-9.27947523369
-8.43587533593
-7.51999727646
-6.54403463204
-5.52171879086
-4.46753868687
-3.39597241727
-2.3208079982
-1.25464684017
-0.208524030661
0.808304587316
1.7884316684
2.72620125411
3.61759791744
4.46022809606
5.25314348043
5.99636892568
6.69067626867
7.33778946492
7.9401505209
8.49987169853
9.01889931378
9.50063806703
9.94868899239
10.363735053
10.7469080816
11.1049286307
11.4405396171
11.7488098638
12.0337054482
12.3067654205
12.5646416027
12.7914542855
12.9992498621
13.2069233651
13.4114125405
13.5967474235
13.7651659698
13.9254716623
14.0767134918
14.2162745419
14.3459378899
14.4685090806
14.583534197
14.6895371401
14.7860234204
14.8740299247
14.9549989961
15.0292506715
15.0964410246
15.156351042
15.2091220888
15.2551873031
15.2951406043
15.3296259503
15.3592706773
15.3846494589
15.4062718639
15.4245809661
15.4399585127
15.4527326443
15.4631849842
15.471559035
15.4780653804
15.4828876274
15.4861831374
15.4880881554
15.4887199733
15.4881867101
15.4865884657
15.4840198037
15.4805644267
15.4762981422
15.4712855294
15.4655851864
15.4592467739
15.4523164433
15.4448333599
15.4368348791
15.4283528757
15.4194186047
15.4100592829
15.4003023907
15.3901730196
15.3796960669
15.3688940502
15.3577883012
15.3463990152
15.3347484193
15.3228618546
15.3107682151
15.2984981662
15.2860825788
15.2735484137
15.2609170138
15.2482052653
15.2354259572
15.2225879227
15.2096979089
15.1967626853
15.183791162
15.1707954039
15.1577885925
15.1447866666
15.1318135197
15.1189006547
15.1060869372
15.0934247905
15.0809824484
15.0688483699
15.0571399324
15.046005443
15.0356335328
15.0262628917
15.0181952652
15.0118110923
15.0075911791
15.0061435068
15.0082393035
15.0148570051
15.0272371762
15.0469391142
15.0758754624
15.1162109073
15.1697795234
15.2340057301
-2.59456243234
-2.63510053402
-2.69276062687
-2.76574204889
-2.85378327239
-2.95676714134
-3.07477805128
-3.20797803746
-3.35649020242
-3.52034579592
-3.69946902434
-3.89367698578
-4.10269403078
-4.3261634793
-4.56366400689
-4.81471726679
-5.07879811617
-5.35533532576
-5.64371530845
-5.94327738418
-6.25331291346
-6.57305681674
-6.90168395138
-7.23829862287
-7.58192909944
-7.93151597519
-8.28590605184
-8.64383967829
-9.00394401841
-9.36471961496
-9.72453409293
-10.0816078362
-10.4340053259
-10.7796183863
-11.1161559732
-11.4411234103
-11.7518177712
-12.045296302
-12.3183444499
-12.5674498138
-12.7888151557
-12.9783033453
-13.1313506776
-13.2429195202
-13.3073814484
-13.3184838271
-13.2697806094
-13.1542114512
-12.9636131131
-12.6874280897
-12.3164761396
-11.8452325318
-11.2706183544
-10.5928100958
-9.81576273508
-8.94731064787
-7.99882048597
-6.98444061764
-5.92014066602
-4.82266832119
-3.70852283811
-2.59312147428
-1.49023122776
-0.411664667864
0.632953336404
1.63625588196
2.59288868156
3.49910422864
4.35280135629
5.15372329089
5.90273786817
6.60074220192
7.24952485924
7.85286217516
8.4139010077
8.93308319873
9.41338351723
9.86193787246
10.2788207897
10.6595059836
11.0147174769
11.3541872649
11.665723968
11.9452873076
12.2102547663
12.4711751282
12.7168432669
12.9390137741
13.1470921069
13.3454223516
13.5302903257
13.7022436048
13.8639530697
14.0156841591
14.1570011127
14.2887547482
14.412125915
14.527216493
14.6336166593
14.7312750312
14.820761669
14.902820507
14.9777841882
15.0456754611
15.1065221721
15.1605327809
15.2080918414
15.2497107288
15.2859470986
15.3173655202
15.3444923813
15.3678129699
15.3877527352
15.4046915061
15.4189543685
15.4308299393
15.4405638883
15.4483755033
15.4544501542
15.4589528904
15.4620207533
15.4637791856
15.4643367808
15.4638003459
15.4622620432
15.4598102711
15.4565175067
15.4524527404
15.4476712791
15.4422269917
15.4361628235
15.4295218096
15.4223383229
15.414647685
15.4064785845
15.3978611316
15.3888210696
15.3793852562
15.369577073
15.3594193124
15.3489321603
15.3381358806
15.327052223
15.3157060962
15.3041249441
15.2923377218
15.2803728912
15.268256193
15.2560090806
15.2436492604
15.2311907002
15.2186442938
15.2060189004
15.1933231664
15.180566844
15.16776179
15.1549214674
15.142062631
15.1292082044
15.1163880028
15.1036401547
15.09101195
15.0785636437
15.0663726424
15.0545422804
15.043210103
15.032551205
15.0227849301
15.0141856255
15.007095767
15.0019425662
14.9992584163
14.9997049975
15.0040993871
15.013436317
15.0288895383
15.0517443576
15.0831246884
15.1231753176
15.1681446033
-2.78741814698
-2.82765100954
-2.88615662552
-2.96186249807
-3.05394464207
-3.16174937488
-3.28486312821
-3.42301148942
-3.57598922251
-3.74361277194
-3.92569328091
-4.12201700301
-4.33233895357
-4.5563758692
-4.79380724301
-5.04427108535
-5.30736553824
-5.58264349424
-5.86961255992
-6.16772769106
-6.47638918063
-6.79493389286
-7.12263157985
-7.45867494731
-7.80217517634
-8.15215117133
-8.50752450093
-8.8671082729
-9.22960156367
-9.59357772597
-9.95747962544
-10.3196077421
-10.678113652
-11.0309855452
-11.3760399857
-11.7109035658
-12.0330101031
-12.3395720051
-12.6275459188
-12.8936050194
-13.1341491951
-13.3452457222
-13.5225229244
-13.6610851212
-13.7553257821
-13.7988383226
-13.7847828944
-13.705360589
-13.551102679
-13.309121197
-12.9668750129
-12.5159366636
-11.9506639475
-11.2694631422
-10.4757205945
-9.57808159274
-8.58991882981
-7.52818384863
-6.41200664753
-5.2612557992
-4.09518460581
-2.93128176949
-1.78463477343
-0.667839982475
0.409045282016
1.43882162152
2.41696953767
3.34038028662
4.20679669306
5.01647272784
5.77214266044
6.47533515982
7.12634926887
7.73058028653
8.29442107496
8.81572581739
9.29430947888
9.74337945386
10.1672474098
10.5481506762
10.8937991406
11.2280964336
11.5531473844
11.8532295328
12.1283954059
12.3870953209
12.6298504018
12.8556171089
13.0672924631
13.2666879491
13.4534216612
13.6279964233
13.7915953212
13.9447764178
14.0878142137
14.2213040518
14.3459050564
14.4618836026
14.5692747406
14.6682298318
14.7591484968
14.8425015868
14.9186097928
14.987651132
15.0497984504
15.1053123839
15.1545653782
15.1980135192
15.236158327
15.2695078652
15.2985520034
15.3237452178
15.3455001426
15.3641850978
15.3801259301
15.3936095844
15.4048878627
15.414181527
15.4216822678
15.4275569428
15.4319492584
15.4349871146
15.43678595
15.4374530329
15.437084515
15.4357677045
15.4335781638
15.4305838485
15.426842819
15.4224080542
15.4173247931
15.4116352758
15.4053757112
15.3985807611
15.3912805551
15.3835047929
15.3752803222
15.3666333615
15.3575873142
15.348164199
15.3383838217
15.3282664077
15.3178335732
15.3071097102
15.2961210496
15.2848949533
15.2734579971
15.261834702
15.2500461528
15.2381103263
15.2260418938
15.2138530447
15.2015540776
15.1891549808
15.1766662531
15.1640999629
15.1514697265
15.1387923023
15.1260892165
15.1133881588
15.100723968
15.0881405165
15.0756928173
15.0634501965
15.0515003367
15.0399616512
15.0289925301
15.0187922004
15.0096059615
15.001735573
14.995551045
14.9915045033
14.9901428784
14.9921168103
14.9981735241
15.0091112448
15.0256350292
15.0479794104
15.0750056053
15.1019188789
-3.02604709235
-3.06362221761
-3.11993315624
-3.19460686525
-3.28655885066
-3.39492486599
-3.51904625951
-3.65840166178
-3.81257137428
-3.98120539635
-4.16400135021
-4.36068239041
-4.57098391964
-4.79463806092
-5.03136610595
-5.28086657776
-5.54281048532
-5.81683092027
-6.1025192027
-6.39941500913
-6.70700259864
-7.02470077634
-7.35185893503
-7.68774700384
-8.03155093493
-8.38236266784
-8.73917565172
-9.10087464462
-9.46623115275
-9.8338931584
-10.2023818587
-10.5700821325
-10.9352387413
-11.2959450603
-11.6501372374
-11.9955793526
-12.3298629316
-12.6503863885
-12.9543229149
-13.238593101
-13.4998697346
-13.7345275007
-13.9385322904
-14.1073181816
-14.2355484153
-14.3169629823
-14.344490877
-14.3097935191
-14.2022354965
-14.0069428911
-13.7066595817
-13.2883156941
-12.7422074228
-12.0636055956
-11.2546211102
-10.3248630609
-9.29061335414
-8.17285692187
-6.99506776428
-5.78121499865
-4.55416476713
-3.3341315469
-2.13758253436
-0.977563358853
0.135437140464
1.194041616
2.19510161991
3.13748705663
4.01851420626
4.83726601678
5.60009272909
6.3105880796
6.96486560632
7.57000242998
8.13907105896
8.66727288498
9.14332829621
9.58356076788
10.0082732742
10.4116624607
10.780779628
11.1222672839
11.4439146532
11.7442272888
12.0239570566
12.2859287707
12.5312875292
12.7606689609
12.9756056602
13.1773388279
13.3664062186
13.5434427022
13.7092397949
13.8643973755
14.0093915731
14.1447433535
14.2709546274
14.3883586021
14.4971814636
14.5976747279
14.6901857
14.775085185
14.8526900723
14.9232513087
14.9870222499
15.0442998927
15.0954545493
15.1409079411
15.1811217462
15.2165599113
15.2476809452
15.2749110192
15.2986490314
15.3192503861
15.3370395528
15.3522998342
15.3652874872
15.376222825
15.3853037386
15.3926974175
15.3985554999
15.403007343
15.4061762371
15.4081686564
15.409086406
15.4090146417
15.408034045
15.4062103451
15.40360653
15.4002733399
15.3962605205
15.3916080734
15.3863561329
15.3805372828
15.3741848839
15.3673271434
15.3599929399
15.3522070756
15.3439934737
15.3353728998
15.3263653962
15.316990843
15.3072710247
15.2972295425
15.2868917727
15.2762835053
15.265430033
15.2543546807
15.2430782907
15.2316188135
15.2199916316
15.2082097469
15.1962846955
15.1842273057
15.1720487773
15.1597612015
15.1473782482
15.13491608
15.1223948686
15.1098397609
15.0972821668
15.0847611371
15.0723254314
15.0600357681
15.0479690759
15.0362234537
15.0249316985
15.0142713075
15.0044578032
14.9957505711
14.9884608654
14.9829584628
14.9796750632
14.9790968706
14.9817344048
14.98804002
14.9982154606
15.0117855023
15.0267131308
15.0375677422
-3.28147334178
-3.31547816851
-3.36832401888
-3.44015484778
-3.52979350811
-3.63634278065
-3.75905249965
-3.89728711925
-4.050513224
-4.21828181595
-4.40021337051
-4.59597797298
-4.80528163496
-5.02784857878
-5.26341062851
-5.51169189857
-5.77240082303
-6.04521678502
-6.32978399178
-6.62569939404
-6.93250750076
-7.24968932455
-7.57665749025
-7.91274563995
-8.25720393247
-8.60918881139
-8.96775877826
-9.33186482119
-9.70034655415
-10.0719230096
-10.4451905728
-10.8186158019
-11.1905348461
-11.5591452355
-11.9225037236
-12.2785151171
-12.6249330708
-12.9593532341
-13.2791914498
-13.5816598197
-13.8637637029
-14.1222761526
-14.3536510848
-14.5538795069
-14.718256474
-14.8411427579
-14.9156229462
-14.9333101513
-14.8829679852
-14.7486526138
-14.5071925975
-14.1388059309
-13.6272427142
-12.9621350388
-12.1427918203
-11.1798150376
-10.0937757675
-8.91164445561
-7.6628116748
-6.376350453
-5.07967198
-3.79673650474
-2.54584950483
-1.33948532663
-0.187550994841
0.901280586528
1.92521123873
2.88762954001
3.78495853368
4.61230222705
5.38285330861
6.1062367817
6.76677122293
7.36634842149
7.93134678137
8.47253156194
8.97733343941
9.44039715431
9.87045742011
10.2724799065
10.6459583186
10.9937911848
11.319225414
11.6233400062
11.9074100236
12.1731851036
12.4219907452
12.6549166332
12.8731775258
13.0778340843
13.2696674423
13.4493888005
13.6176972438
13.7752040113
13.9224410781
14.0599154807
14.1880867268
14.3073299955
14.4179564337
14.5202760221
14.6146245382
14.7013466382
14.7807605753
14.8531607039
14.9188414075
14.9781278546
15.031385783
15.0790200386
15.1214583977
15.15913651
15.19248095
15.2218988686
15.2477696249
15.2704413963
15.2902299484
15.3074191697
15.3222626543
15.3349844019
15.3457822002
15.3548289367
15.3622781117
15.3682663553
15.3729184196
15.376345972
15.3786507287
15.3799218588
15.3802398608
15.3796741498
15.3782877265
15.3761345881
15.3732645458
15.369720302
15.3655420504
15.3607645197
15.3554212134
15.3495419629
15.3431554425
15.3362868712
15.3289596739
15.3211944335
15.3130113022
15.304430381
15.295473494
15.2861637271
15.2765256047
15.2665836786
15.2563620872
15.2458831587
15.2351672955
15.224232305
15.2130939085
15.2017656157
15.1902597021
15.1785875153
15.1667605952
15.1547909015
15.1426917701
15.1304784193
15.1181693474
15.1057869646
15.0933589444
15.0809191362
15.0685094805
15.0561816044
15.0440002275
15.0320464699
15.0204263768
15.0092877375
14.9988162524
14.9892286694
14.9807771805
14.9737498399
14.9684655879
14.9652538041
14.964406181
14.966069669
14.9700288209
14.9752739173
14.9791974639
14.9761600683
-3.5263824574
-3.55679059819
-3.6060880844
-3.67465162575
-3.76129054107
-3.86515517771
-3.98547700402
-4.12157590366
-4.27286686244
-4.43885647254
-4.61912971003
-4.81332809077
-5.02113740559
-5.24227136134
-5.47646120723
-5.7234401595
-5.98293447222
-6.2546491025
-6.53826019277
-6.83340214012
-7.13966122099
-7.45656362877
-7.78356988307
-8.12006380886
-8.46534726338
-8.81863004134
-9.17902539714
-9.54554086153
-9.91707472711
-10.2924077587
-10.6702018677
-11.0489947645
-11.4272022326
-11.8031132873
-12.1748914381
-12.5405664091
-12.8980352624