/*--------------------------------*- C++ -*----------------------------------*\
| =========                 |                                                 |
| \\      /  F ield         | OpenFOAM: The Open Source CFD Toolbox           |
|  \\    /   O peration     | Version:  v1806                                 |
|   \\  /    A nd           | Web:      www.OpenFOAM.com                      |
|    \\/     M anipulation  |                                                 |
\*---------------------------------------------------------------------------*/
FoamFile
{
    version     2.0;
    format      ascii;
    class       surfaceScalarField;
    location    "1";
    object      phi;
}
// * * * * * * * * * * * * * * * * * * * * * * * * * * * * * * * * * * * * * //

dimensions      [0 3 -1 0 0 0 0];
oriented        oriented;


internalField   nonuniform List<scalar> 
24170
(
3.06531539265e-06
1.2309225717e-07
2.97808451256e-06
8.72323982385e-08
2.89743267971e-06
8.06533168452e-08
2.82106775972e-06
7.6366290254e-08
2.74866370712e-06
7.24052767647e-08
2.68001558057e-06
6.86492731869e-08
2.61493244725e-06
6.50841602835e-08
2.55322826574e-06
6.17051815053e-08
2.49472128924e-06
5.85078439474e-08
2.43923525758e-06
5.54869118563e-08
2.38659996805e-06
5.26360574948e-08
2.3366530451e-06
4.99477287976e-08
2.28924308825e-06
4.74106848153e-08
2.2442372074e-06
4.50066419593e-08
2.20153559176e-06
4.27024342867e-08
2.16110945012e-06
4.04272328953e-08
2.12288511445e-06
3.82257581368e-08
3.25449773609e-08
2.09034126654e-06
3.42478368272e-06
1.15559476956e-07
3.41883708357e-06
9.3180752818e-08
3.41124485299e-06
8.82471893925e-08
3.40168573612e-06
8.59269304654e-08
3.39044482444e-06
8.36475296401e-08
3.37787427214e-06
8.12210858572e-08
3.36427734769e-06
7.86822089312e-08
3.34990546327e-06
7.60781554567e-08
3.33496566552e-06
7.34486205728e-08
3.3196286793e-06
7.08248736094e-08
3.30403555336e-06
6.82300918858e-08
3.28830445431e-06
6.56797534151e-08
3.27253829248e-06
6.31777560967e-08
3.25683699324e-06
6.07088806546e-08
3.24132066229e-06
5.82198017189e-08
3.22618573054e-06
5.5563399095e-08
3.21222786653e-06
5.21851914646e-08
4.57422541842e-08
3.19903144696e-06
3.67586893325e-06
1.02208555789e-07
3.6789632083e-06
9.00876470106e-08
3.68128966032e-06
8.59218946878e-08
3.68307307588e-06
8.4144545652e-08
3.6842501634e-06
8.24713636455e-08
3.68484996515e-06
8.0622106929e-08
3.6849164816e-06
7.86164382376e-08
3.68449346438e-06
7.65018555452e-08
3.68362226639e-06
7.43204209952e-08
3.68234189405e-06
7.21058120436e-08
3.68068916143e-06
6.98833289367e-08
3.67869970062e-06
6.76696960559e-08
3.6764093213e-06
6.54685702556e-08
3.67385719498e-06
6.32614215382e-08
3.67109142119e-06
6.09860080169e-08
3.66817746402e-06
5.8477875632e-08
3.66506555565e-06
5.52975928539e-08
5.04556075769e-08
3.66035192666e-06
3.93729078433e-06
9.03078781473e-08
3.94187102005e-06
8.55090358273e-08
3.94535069692e-06
8.24437482928e-08
3.9485094657e-06
8.09871633828e-08
3.95137623817e-06
7.96058261943e-08
3.95397475511e-06
7.80247229041e-08
3.95632912283e-06
7.62631010122e-08
3.95845708607e-06
7.43748588867e-08
3.96037068322e-06
7.24077153112e-08
3.96207797672e-06
7.03993731651e-08
3.96358425344e-06
6.83778609334e-08
3.96489307627e-06
6.63616632154e-08
3.96600614505e-06
6.43562698362e-08
3.96692118617e-06
6.23471327626e-08
3.96762248288e-06
6.02854771838e-08
3.9680395538e-06
5.80615768188e-08
3.96785270007e-06
5.54852221582e-08
5.24758370689e-08
3.96583286643e-06
4.21746127817e-06
7.9974592246e-08
4.22267466575e-06
8.02966254205e-08
4.22651942815e-06
7.85999589908e-08
4.22996435834e-06
7.75430743237e-08
4.23313723401e-06
7.64337169731e-08
4.2360801499e-06
7.50824710149e-08
4.23882279783e-06
7.35210704949e-08
4.2413856411e-06
7.1812558847e-08
4.24378174119e-06
7.00121128635e-08
4.24601860446e-06
6.81629526505e-08
4.24809935565e-06
6.62975207992e-08
4.25002320923e-06
6.44381719209e-08
4.25178402967e-06
6.2595779111e-08
4.25336501589e-06
6.07664315259e-08
4.25472303668e-06
5.8927717365e-08
4.2557430763e-06
5.70418091181e-08
4.25611972195e-06
5.51086881658e-08
5.340558113e-08
4.25518951389e-06
4.51808554458e-06
7.09777489438e-08
4.52364260998e-06
7.47410623939e-08
4.52778597986e-06
7.44579635767e-08
4.5314417293e-06
7.38885773253e-08
4.53480587407e-06
7.30706840145e-08
4.53793698592e-06
7.19523749156e-08
4.54086789372e-06
7.05910814495e-08
4.54362006173e-06
6.90612444144e-08
4.5462070976e-06
6.74258566185e-08
4.54863671813e-06
6.57340689981e-08
4.55091167795e-06
6.40232346076e-08
4.5530296795e-06
6.23208212978e-08
4.55498102311e-06
6.06450334284e-08
4.55674222052e-06
5.90057831552e-08
4.55826108221e-06
5.74093408023e-08
4.55942593418e-06
5.58773109875e-08
4.56002396602e-06
5.45109231732e-08
5.36367909865e-08
4.55979298602e-06
4.84060284759e-06
6.30955188295e-08
4.84630452281e-06
6.90401827872e-08
4.85070779992e-06
7.00554753935e-08
4.85457254507e-06
7.00245416175e-08
4.85812635928e-06
6.95174989849e-08
4.8614415039e-06
6.86377920645e-08
4.86455326582e-06
6.74798247064e-08
4.8674832018e-06
6.61317636597e-08
4.87024469702e-06
6.46647673226e-08
4.87284515862e-06
6.31339725902e-08
4.87528682682e-06
6.15818950787e-08
4.87756633497e-06
6.00416028255e-08
4.87967221831e-06
5.85394012292e-08
4.88157930628e-06
5.7098893073e-08
4.88323858176e-06
5.57501813336e-08
4.884564221e-06
5.45517762427e-08
4.88543750784e-06
5.36376565182e-08
5.32730868634e-08
4.88580040687e-06
5.18654032434e-06
5.61374682064e-08
5.19224384887e-06
6.33379307894e-08
5.19685735116e-06
6.54431965209e-08
5.20092608113e-06
6.5956922283e-08
5.20467336842e-06
6.57712264168e-08
5.2081790964e-06
6.51329718023e-08
5.21148014614e-06
6.41796101195e-08
5.2145977542e-06
6.30149034378e-08
5.21754483207e-06
6.17183797276e-08
5.22032844869e-06
6.03509746297e-08
5.22295064489e-06
5.89602576023e-08
5.22540797336e-06
5.75847941164e-08
5.22768952245e-06
5.62583091036e-08
5.22977334541e-06
5.50154414274e-08
5.23162220474e-06
5.39016058562e-08
5.23318397183e-06
5.29901339726e-08
5.2344137267e-06
5.24076776505e-08
5.23379193202e-08
5.23534888762e-06
5.55753754756e-06
4.99377350466e-08
5.56314723428e-06
5.77288771208e-08
5.56791685405e-06
6.06742252793e-08
5.57217756366e-06
6.16968251061e-08
5.57611972667e-06
6.18296255081e-08
5.57982235775e-06
6.14308467906e-08
5.58332206485e-06
6.06803649719e-08
5.58663918916e-06
5.9698192957e-08
5.58978595871e-06
5.85719874239e-08
5.59276923998e-06
5.73680189398e-08
5.59559142387e-06
5.61383793915e-08
5.59825023819e-06
5.49262518297e-08
5.60073775636e-06
5.37710254098e-08
5.60303923917e-06
5.27141357788e-08
5.60513374086e-06
5.1807174425e-08
5.60700174734e-06
5.11221394428e-08
5.60864924037e-06
5.07602208565e-08
5.08330913964e-08
5.6101532687e-06
5.9553563591e-06
4.43586358498e-08
5.96081503159e-06
5.22713734059e-08
5.96568946409e-06
5.58009353422e-08
5.97012493684e-06
5.7262439762e-08
5.97426049325e-06
5.76950725901e-08
5.97816524285e-06
5.75270293409e-08
5.9818727801e-06
5.6973671734e-08
5.98540168966e-06
5.61700665247e-08
5.98876327913e-06
5.52110807092e-08
5.99196440919e-06
5.41675510885e-08
5.99500842874e-06
5.30949140202e-08
5.99789551316e-06
5.20396721833e-08
6.00062271646e-06
5.10442097905e-08
6.00318492103e-06
5.01522478043e-08
6.00557838531e-06
4.94139416364e-08
6.00781039562e-06
4.88902349275e-08
6.00991799119e-06
4.86523478525e-08
4.87590651176e-08
6.01199217798e-06
6.38188774795e-06
3.92833629396e-08
6.38716769158e-06
4.69920201477e-08
6.39210331504e-06
5.08659980613e-08
6.39669388446e-06
5.26725553558e-08
6.40101905846e-06
5.33705796773e-08
6.4051301229e-06
5.34165990883e-08
6.40905445884e-06
5.30499500186e-08
6.41280773239e-06
5.24173443381e-08
6.41640004765e-06
5.16193277668e-08
6.41983834067e-06
5.07297136399e-08
6.42312757386e-06
4.98061410488e-08
6.42627131498e-06
4.88962829608e-08
6.42927292197e-06
4.8042948662e-08
6.43213756106e-06
4.72878578337e-08
6.43487687716e-06
4.66747941196e-08
6.43751744247e-06
4.6249753309e-08
6.44011286224e-06
4.60571935559e-08
4.61183461754e-08
6.44275323306e-06
5.7448024253e-06
3.53163265762e-08
5.74911632191e-06
4.26790346583e-08
5.75330517375e-06
4.66780475388e-08
5.75728725945e-06
4.86913021848e-08
5.76108375852e-06
4.95748729899e-08
5.76471954701e-06
4.97815200532e-08
5.76821023512e-06
4.95599157242e-08
5.7715656108e-06
4.90625561934e-08
5.774792768e-06
4.83926271849e-08
5.77789770401e-06
4.76252240058e-08
5.7808860592e-06
4.68181552545e-08
5.78376392076e-06
4.60186026616e-08
5.78653907397e-06
4.526773877e-08
5.78922319973e-06
4.46037033225e-08
5.79183527678e-06
4.40625537513e-08
5.79440700567e-06
4.36778784302e-08
5.79698783555e-06
4.34758068328e-08
4.34616054508e-08
5.79964458168e-06
7.00241003165e-06
3.10619983142e-08
7.0071981112e-06
3.78915359955e-08
7.01200315734e-06
4.18736252336e-08
7.01666812835e-06
4.40269994905e-08
7.02117087262e-06
4.50727580905e-08
7.02551767793e-06
4.54353512698e-08
7.02971649265e-06
4.53616888633e-08
7.03377397177e-06
4.50055991903e-08
7.03769649971e-06
4.44706115301e-08
7.04149101752e-06
4.38311955433e-08
7.04516569415e-06
4.31436807194e-08
7.04873097036e-06
4.24533456238e-08
7.05220105516e-06
4.17975347768e-08
7.05559604673e-06
4.12083374482e-08
7.05894541033e-06
4.07128042997e-08
7.06229125707e-06
4.03313491065e-08
7.06569192833e-06
4.0074874138e-08
3.993378653e-08
7.06921919806e-06
8.53538414086e-06
2.65254807957e-08
8.54064977913e-06
3.26264319251e-08
8.5461085017e-06
3.64153668573e-08
8.55153228332e-06
3.86035810483e-08
8.55684594168e-06
3.97595607737e-08
8.56202731859e-06
4.02543223636e-08
8.56707055502e-06
4.03188695817e-08
8.57197576751e-06
4.01007114599e-08
8.57674700964e-06
3.9699743904e-08
8.58139161291e-06
3.91866759824e-08
8.58592084027e-06
3.86147430283e-08
8.59034998371e-06
3.80240426976e-08
8.59470047346e-06
3.74468327405e-08
8.59900108213e-06
3.69072855772e-08
8.60329029331e-06
3.64230574537e-08
8.60761794273e-06
3.60031544689e-08
8.61204504597e-06
3.56470349793e-08
3.53381728037e-08
8.61664033313e-06
1.04040545495e-05
2.16902542927e-08
1.04098149928e-05
2.6866343521e-08
1.04159696152e-05
3.02610519107e-08
1.0422232117e-05
3.23414098791e-08
1.04284701203e-05
3.35216909384e-08
1.04346246088e-05
3.4100112235e-08
1.04406686059e-05
3.42749238814e-08
1.04465914979e-05
3.41780000294e-08
1.045239216e-05
3.38989185717e-08
1.04580777062e-05
3.35015035195e-08
1.04636609108e-05
3.30312783445e-08
1.0469162454e-05
3.25227161662e-08
1.04746091176e-05
3.1999793609e-08
1.04800367759e-05
3.14796244399e-08
1.04854885467e-05
3.09707251054e-08
1.04910165364e-05
3.04749243786e-08
1.04966779362e-05
2.99851389371e-08
2.94846356747e-08
1.05025312908e-05
1.26819799499e-05
1.65004927113e-08
1.26882936178e-05
2.05530575027e-08
1.26952177634e-05
2.33371678853e-08
1.27024229645e-05
2.51363764795e-08
1.2709722152e-05
2.62227261217e-08
1.27170135251e-05
2.68087789168e-08
1.27242429736e-05
2.70455930645e-08
1.27313833724e-05
2.70374389797e-08
1.27384257575e-05
2.6856745709e-08
1.27453728261e-05
2.6554191209e-08
1.27522385501e-05
2.61659994455e-08
1.27590440464e-05
2.57170602126e-08
1.27658199757e-05
2.5224349837e-08
1.2772602146e-05
2.46971813219e-08
1.27794341384e-05
2.41391460239e-08
1.27863611081e-05
2.35475188706e-08
1.27934315253e-05
2.29151348854e-08
2.22286937388e-08
1.28006870179e-05
1.54588522622e-05
1.08285085865e-08
1.54658606432e-05
1.35449092417e-08
1.54737042855e-05
1.5493871465e-08
1.54820194815e-05
1.68215102084e-08
1.54905690794e-05
1.76734587493e-08
1.5499207057e-05
1.81710708602e-08
1.55078471026e-05
1.84057828718e-08
1.55164411358e-05
1.84435567522e-08
1.55249667475e-05
1.83312768302e-08
1.55334193535e-05
1.81018741811e-08
1.55418073895e-05
1.77782438056e-08
1.55501493371e-05
1.73755061192e-08
1.55584709876e-05
1.69029663433e-08
1.55668036423e-05
1.63649154974e-08
1.55751809935e-05
1.57619467819e-08
1.5583637484e-05
1.50913864013e-08
1.55922039541e-05
1.43486219804e-08
1.35274119293e-08
1.56009058458e-05
1.88440552182e-05
4.41105251874e-09
1.88520615183e-05
5.53908508686e-09
1.88611325925e-05
6.42343663761e-09
1.88708617174e-05
7.09299588133e-09
1.88809621287e-05
7.57371525032e-09
1.88912438156e-05
7.88999716341e-09
1.89015864659e-05
8.06371010152e-09
1.89119175557e-05
8.11305337406e-09
1.89221967991e-05
8.0525013228e-09
1.89324066544e-05
7.8926787378e-09
1.89425442226e-05
7.64105747803e-09
1.89526182943e-05
7.30215959134e-09
1.89626430742e-05
6.87841004091e-09
1.89726383677e-05
6.37032257782e-09
1.89826227718e-05
5.77743002224e-09
1.89926162959e-05
5.09847642931e-09
1.90026319335e-05
4.33229435528e-09
3.47876052764e-09
1.90126811501e-05
2.29710710066e-05
-3.32205173785e-09
2.2980723384e-05
-4.11225994123e-09
2.29916582043e-05
-4.51042082526e-09
2.30033859862e-05
-4.63368745973e-09
2.30155609914e-05
-4.60028528074e-09
2.30279524811e-05
-4.50042763611e-09
2.30404098079e-05
-4.39269995115e-09
2.30528380292e-05
-4.31408838661e-09
2.30651773729e-05
-4.28610079052e-09
2.30773943626e-05
-4.32317822066e-09
2.30894694926e-05
-4.43355151286e-09
2.31013968547e-05
-4.62392129307e-09
2.31131732889e-05
-4.8977746935e-09
2.31248033534e-05
-5.25844486754e-09
2.31362873357e-05
-5.7067038897e-09
2.3147630443e-05
-6.24326576503e-09
2.31588283706e-05
-6.86646742069e-09
-7.57325804121e-09
2.31698819915e-05
1.68168640993e-05
-9.48018054757e-09
1.6824433553e-05
-1.16804350719e-08
1.68328527317e-05
-1.29285997131e-08
1.68417347124e-05
-1.35139937401e-08
1.68508341993e-05
-1.36991827905e-08
1.68600024094e-05
-1.36665999708e-08
1.68691419882e-05
-1.35321893824e-08
1.68781948012e-05
-1.33646631597e-08
1.68871171417e-05
-1.32088891211e-08
1.68958869127e-05
-1.30906219557e-08
1.69044821829e-05
-1.30296214115e-08
1.69128967051e-05
-1.30360354577e-08
1.69211171223e-05
-1.31194877101e-08
1.6929143878e-05
-1.32828130031e-08
1.69369654755e-05
-1.35300163149e-08
1.69445834848e-05
-1.38591561867e-08
1.69519843241e-05
-1.42697216334e-08
-1.47545021444e-08
1.69591670056e-05
1.46406671162e-05
-1.55777103534e-08
1.46479881284e-05
-1.90003188063e-08
1.46558985677e-05
-2.0837838548e-08
1.46640412594e-05
-2.16555575032e-08
1.46722345425e-05
-2.18907143978e-08
1.46803802959e-05
-2.18114468272e-08
1.4688421294e-05
-2.15710128085e-08
1.46963169241e-05
-2.12600243675e-08
1.47040425993e-05
-2.0932417387e-08
1.47115762661e-05
-2.0624309973e-08
1.47189065597e-05
-2.0357844095e-08
1.4726019432e-05
-2.01493122184e-08
1.4732910082e-05
-2.00080871142e-08
1.47395677667e-05
-1.99413087638e-08
1.47459912181e-05
-1.99516584635e-08
1.47521712506e-05
-2.0040621022e-08
1.47581088075e-05
-2.02058450495e-08
-2.04429469536e-08
1.47637950391e-05
1.2746440508e-05
-2.18853827895e-08
1.27537286238e-05
-2.62876280742e-08
1.27612772832e-05
-2.83853629621e-08
1.27688052364e-05
-2.91823640198e-08
1.27762219418e-05
-2.9306179141e-08
1.27834920649e-05
-2.90800895695e-08
1.2790593407e-05
-2.86712816804e-08
1.27975090509e-05
-2.81741056196e-08
1.28042242794e-05
-2.76466428103e-08
1.28107275194e-05
-2.7126241799e-08
1.28170085404e-05
-2.66377284146e-08
1.2823058442e-05
-2.61982591725e-08
1.2828870013e-05
-2.58184438881e-08
1.28344360096e-05
-2.5506797081e-08
1.28397521373e-05
-2.5266930599e-08
1.2844814293e-05
-2.51027474186e-08
1.28496215859e-05
-2.5013138955e-08
-2.4995488363e-08
1.28541744259e-05
1.10976991154e-05
-2.86548385247e-08
1.110506759e-05
-3.36553745257e-08
1.11122833414e-05
-3.56004880141e-08
1.11192295189e-05
-3.61276527565e-08
1.11259343768e-05
-3.6010110519e-08
1.11324224444e-05
-3.55669584901e-08
1.11387012919e-05
-3.49490611691e-08
1.114477028e-05
-3.42420617331e-08
1.1150625088e-05
-3.35005018218e-08
1.11562605482e-05
-3.27604481422e-08
1.11616697974e-05
-3.2046338062e-08
1.11668475523e-05
-3.13741264335e-08
1.11717851362e-05
-3.07557651218e-08
1.11764785868e-05
-3.01979974618e-08
1.11809192535e-05
-2.97082696181e-08
1.11851082958e-05
-2.92900716666e-08
1.11890430585e-05
-2.89491503427e-08
-2.86850587571e-08
1.11927340307e-05
9.6627099285e-06
-3.61496402595e-08
9.67016793594e-06
-4.1112840503e-08
9.67699057961e-06
-4.24224641348e-08
9.68334054676e-06
-4.24769339561e-08
9.68936978751e-06
-4.20385590478e-08
9.69514529049e-06
-4.13418049467e-08
9.70069290219e-06
-4.04958920671e-08
9.7060222258e-06
-3.95706251735e-08
9.71113602682e-06
-3.86136384632e-08
9.71603374606e-06
-3.76574189353e-08
9.7207124283e-06
-3.67240850161e-08
9.72516739656e-06
-3.58282204423e-08
9.72939284518e-06
-3.49797191904e-08
9.73338090754e-06
-3.41855295521e-08
9.73712493178e-06
-3.34512005426e-08
9.74061924891e-06
-3.27841855289e-08
9.74386526989e-06
-3.21948085395e-08
-3.16932524607e-08
9.74687375009e-06
8.41386563399e-06
-4.46623402275e-08
8.42129939469e-06
-4.85460950189e-08
8.42761224288e-06
-4.87348506739e-08
8.43334264657e-06
-4.82066399023e-08
8.43872900768e-06
-4.74243686003e-08
8.44385336231e-06
-4.64654914916e-08
8.44874777347e-06
-4.53897286615e-08
8.45342724142e-06
-4.42495958722e-08
8.45789901016e-06
-4.30849484788e-08
8.46216587541e-06
-4.19239097446e-08
8.46622767777e-06
-4.07851979949e-08
8.47008146425e-06
-3.9681262339e-08
8.47372230542e-06
-3.8619658127e-08
8.47714211453e-06
-3.76045781367e-08
8.480330299e-06
-3.66388248145e-08
8.48327495476e-06
-3.5728700329e-08
8.48597251975e-06
-3.48911096568e-08
-3.4162089594e-08
8.488441196e-06
7.32713884254e-06
-5.45163956815e-08
7.33429140317e-06
-5.56981943553e-08
7.3399673912e-06
-5.44102636477e-08
7.34507477114e-06
-5.33134831292e-08
7.34985921813e-06
-5.22081976613e-08
7.35439073173e-06
-5.0996597098e-08
7.35870011624e-06
-4.96986544509e-08
7.36280438073e-06
-4.83534865874e-08
7.36671320444e-06
-4.69935132832e-08
7.37043179026e-06
-4.56419837241e-08
7.37396179217e-06
-4.43148298225e-08
7.37730216101e-06
-4.30209735638e-08
7.38044966094e-06
-4.17666318443e-08
7.38339701621e-06
-4.0551466458e-08
7.38613054763e-06
-3.9372029083e-08
7.38862739126e-06
-3.82252758311e-08
7.39085891934e-06
-3.71218570538e-08
-3.61187787395e-08
7.39281681478e-06
6.38160006017e-06
-6.6050087732e-08
6.38806265076e-06
-6.21603594791e-08
6.3930112554e-06
-5.93584985824e-08
6.39751737541e-06
-5.78184855161e-08
6.40173916908e-06
-5.6429939542e-08
6.40572084935e-06
-5.49779526988e-08
6.40948857878e-06
-5.34660549914e-08
6.41305909116e-06
-5.19237400875e-08
6.41644261365e-06
-5.03767781542e-08
6.41964502008e-06
-4.88442796373e-08
6.42266947079e-06
-4.7338102361e-08
6.42551558814e-06
-4.58672387105e-08
6.42818324101e-06
-4.44339544669e-08
6.4306679061e-06
-4.30358402584e-08
6.43295755219e-06
-4.16615457023e-08
6.43502206623e-06
-4.02895318503e-08
6.43679849988e-06
-3.88979204862e-08
-3.75464660422e-08
6.43822809648e-06
5.55891329364e-06
-7.9498466547e-08
5.56401975579e-06
-6.72664434935e-08
5.56802405557e-06
-6.33621465484e-08
5.57167886616e-06
-6.14723393306e-08
5.57499705338e-06
-5.97478638717e-08
5.57800187852e-06
-5.79826399404e-08
5.58071909932e-06
-5.61830095305e-08
5.58316887165e-06
-5.43733017862e-08
5.58536647306e-06
-5.25743164724e-08
5.58732421503e-06
-5.08011841881e-08
5.58905140616e-06
-4.9064740723e-08
5.59055593432e-06
-4.73716497276e-08
5.59184598656e-06
-4.57240549186e-08
5.59292854485e-06
-4.41182466867e-08
5.59380635376e-06
-4.25393112628e-08
5.59446259661e-06
-4.09459025731e-08
5.59479717262e-06
-3.92311298837e-08
-3.71987433388e-08
5.59445008406e-06
4.83965217484e-06
-9.15429491761e-08
4.83929592787e-06
-6.69097371728e-08
4.8379543432e-06
-6.20198284497e-08
4.83554174013e-06
-5.90586747977e-08
4.83213220962e-06
-5.63380321705e-08
4.82789027753e-06
-5.37405373508e-08
4.8229653853e-06
-5.12578406817e-08
4.817482227e-06
-4.88899426315e-08
4.81154422989e-06
-4.66360349124e-08
4.8052375569e-06
-4.44937413141e-08
4.79863366372e-06
-4.24601339948e-08
4.79179292341e-06
-4.05308917957e-08
4.78476831944e-06
-3.86994955608e-08
4.77760786434e-06
-3.69576971873e-08
4.77036010141e-06
-3.52916117524e-08
4.76308227622e-06
-3.36677556248e-08
4.7558292541e-06
-3.19774242814e-08
-2.94578330919e-08
4.74808966421e-06
4.11113331691e-06
4.04422363477e-06
3.98220390781e-06
3.923145264e-06
3.86680724762e-06
3.81306674173e-06
3.7618089277e-06
3.71291901145e-06
3.66628308037e-06
3.62178946595e-06
3.57932934179e-06
3.5387984334e-06
3.50009895751e-06
3.46314125737e-06
3.42784966339e-06
3.39418207009e-06
3.36220496686e-06
3.33274704266e-06
7.63669964814e-08
-7.63052841388e-08
8.81580020763e-08
-1.17225884031e-08
3.72897800811e-08
5.09241159889e-08
-8.99105411752e-08
1.27242397051e-07
-2.49400524085e-07
1.59512615832e-07
-4.17051614691e-07
1.67670336744e-07
-5.87270785713e-07
1.70231203761e-07
-7.58031783385e-07
1.70773908184e-07
-9.28295177717e-07
1.70272154847e-07
-1.09742856557e-06
1.69143505425e-07
-1.26502287027e-06
1.67601332517e-07
-1.43078108507e-06
1.65766614664e-07
-1.59448953537e-06
1.63714295972e-07
-1.75597802041e-06
1.61495518164e-07
-1.91512059784e-06
1.59147507735e-07
-2.07181372811e-06
1.56699093288e-07
-2.22598223032e-06
1.5417272807e-07
-2.37756311323e-06
1.51586161264e-07
-2.52651181877e-06
1.48952713436e-07
-2.67278878809e-06
1.46282113802e-07
-2.81636520871e-06
1.43580497505e-07
-2.95721083844e-06
1.40851104753e-07
-3.09530037134e-06
1.38094173613e-07
-3.23060196313e-06
1.353076876e-07
-3.36308402744e-06
1.3248724769e-07
-3.49270409876e-06
1.29626720076e-07
-3.61941657552e-06
1.26718005336e-07
-3.74316133671e-06
1.23751762381e-07
-3.86387252121e-06
1.20716922625e-07
-3.98146677724e-06
1.17601368036e-07
-4.09585275723e-06
1.14391476059e-07
-4.20691874632e-06
1.1107292081e-07
-4.3145433791e-06
1.07629895048e-07
-4.41858250828e-06
1.04045708079e-07
-4.51887979779e-06
1.00301951918e-07
-4.61525295285e-06
9.637939152e-08
-4.70750570364e-06
9.22571151961e-08
-4.79541261162e-06
8.79129665639e-08
-4.87873013329e-06
8.33216381077e-08
-4.95717935832e-06
7.84551008345e-08
-5.03045919138e-06
7.32836416564e-08
-5.09823189164e-06
6.77782105676e-08
-5.16013570982e-06
6.19071954884e-08
-5.21576560501e-06
5.56348817366e-08
-5.26467964539e-06
4.8916865458e-08
-5.30636440985e-06
4.16892237398e-08
-5.34026912876e-06
3.39072586758e-08
-5.36579931429e-06
2.55343937747e-08
-5.38231148095e-06
1.65146381488e-08
-5.38897715738e-06
6.67018131644e-09
-5.38491257603e-06
-4.06159885443e-09
-5.36939475333e-06
-1.55125410375e-08
-5.34183821043e-06
-2.75526795987e-08
-5.3017983379e-06
-4.00338371619e-08
-5.24901614453e-06
-5.27778052398e-08
-5.18343451133e-06
-6.55746458343e-08
-5.10523526317e-06
-7.81937750039e-08
-5.01483232211e-06
-9.03948295997e-08
-4.9128809962e-06
-1.01945193605e-07
-4.80024000697e-06
-1.12631647649e-07
-4.677957004e-06
-1.22275679954e-07
-4.54720837079e-06
-1.30738368747e-07
-4.40927271163e-06
-1.37928164323e-07
-4.26546474039e-06
-1.43797015811e-07
-4.11711461368e-06
-1.48342062354e-07
-3.96550621853e-06
-1.51596534635e-07
-3.81187129214e-06
-1.53626242233e-07
-3.65733677313e-06
-1.5452214342e-07
-3.50292756327e-06
-1.54400485136e-07
-3.34952947003e-06
-1.53385941034e-07
-3.19791037765e-06
-1.51610610672e-07
-3.04868935461e-06
-1.4920898948e-07
-2.90236052447e-06
-1.46320007326e-07
-2.75929223575e-06
-1.43054892032e-07
-2.61978500966e-06
-1.39496062137e-07
-2.48402438614e-06
-1.35743624544e-07
-2.35211192094e-06
-1.31896892473e-07
-2.22411975539e-06
-1.2797128092e-07
-2.10010389542e-06
-1.23997123247e-07
-1.9798893353e-06
-1.2018973261e-07
-1.86318713341e-06
-1.1667901388e-07
-1.75009491763e-06
-1.13062949947e-07
-1.64084988746e-06
-1.09217938594e-07
-1.53441556403e-06
-1.06398066966e-07
-1.42957809934e-06
-1.04801890416e-07
-1.32877336056e-06
-1.00759732456e-07
-1.23500009639e-06
-9.37328858631e-08
-1.14405809802e-06
-9.08966615739e-08
-1.04951322931e-06
-9.45047787338e-08
-9.55140724334e-07
-9.43268781586e-08
-8.68206571688e-07
-8.68730698014e-08
-7.83650587283e-07
-8.4469952341e-08
-6.86004021152e-07
-9.75424039395e-08
-5.87291186806e-07
-9.857026771e-08
-5.15956050829e-07
-7.11680182363e-08
-4.57624406996e-07
-5.8156735379e-08
-3.92323285132e-07
-6.51094289043e-08
-3.18260321988e-07
-7.38306563037e-08
-2.25380198918e-07
-9.25626964928e-08
-8.92540315397e-08
-1.35779519626e-07
8.12495481301e-08
-1.70229121754e-07
2.45045084566e-07
-1.63575594951e-07
3.90143259058e-07
-1.44908774984e-07
5.20287673238e-07
-1.29971489151e-07
6.39638523841e-07
-1.19204937288e-07
7.51222972591e-07
-1.11454891182e-07
8.57057239324e-07
-1.05734346357e-07
9.58485930565e-07
-1.01342386328e-07
1.0563732438e-06
-9.78265997291e-08
1.15129862905e-06
-9.4872180748e-08
1.24361354959e-06
-9.22816425522e-08
1.3335505318e-06
-8.99062219107e-08
1.42122233665e-06
-8.76567189968e-08
1.50669493077e-06
-8.5457164041e-08
1.58996489692e-06
-8.32669701321e-08
1.67101533726e-06
-8.10448636471e-08
1.74978524345e-06
-7.87738051538e-08
1.82621488963e-06
-7.6431268079e-08
1.90021943485e-06
-7.40123432688e-08
1.97172535841e-06
-7.15051276058e-08
2.04064134745e-06
-6.89105042363e-08
2.10688466079e-06
-6.6223839519e-08
2.17035633317e-06
-6.34524419745e-08
2.23097625463e-06
-6.05967376366e-08
2.28865812006e-06
-5.76693746549e-08
2.34334305644e-06
-5.46732296649e-08
2.39496711328e-06
-5.16234540603e-08
2.44349389478e-06
-4.85259695884e-08
2.4888840257e-06
-4.53983896901e-08
2.53112677816e-06
-4.22497101357e-08
2.57021188112e-06
-3.90994975913e-08
2.6061586296e-06
-3.59594070925e-08
2.63899003498e-06
-3.28503761253e-08
2.66875877074e-06
-2.97861877624e-08
2.69552409814e-06
-2.67884150804e-08
2.71937402358e-06
-2.38722272134e-08
2.74040545335e-06
-2.10588174872e-08
2.75874133975e-06
-1.83638328303e-08
2.77451605061e-06
-1.58066347556e-08
2.787886253e-06
-1.34014361614e-08
2.79901973707e-06
-1.11633149969e-08
2.80809805569e-06
-9.10399365073e-09
2.81530997207e-06
-7.23360104778e-09
2.82085207372e-06
-5.56016077584e-09
2.82492598137e-06
-4.08944501551e-09
2.82773098268e-06
-2.81839224878e-09
2.82948015226e-06
-1.7611768033e-09
2.83034716079e-06
-8.77765216831e-10
2.83039550613e-06
-5.84338238016e-11
2.8296303104e-06
7.55793184884e-10
2.82804699535e-06
1.57414652935e-09
2.82564061422e-06
2.39757912877e-09
2.82240725173e-06
3.22460050869e-09
2.81834355786e-06
4.05516779958e-09
2.81344501835e-06
4.89003694846e-09
2.80770480497e-06
5.73193716241e-09
2.80112149797e-06
6.575138947e-09
2.79369920018e-06
7.41439912418e-09
2.78543676746e-06
8.2547551827e-09
2.77632645623e-06
9.10294362572e-09
2.76635503976e-06
9.96436780038e-09
2.75550262832e-06
1.08456831774e-08
2.74373913901e-06
1.17571459345e-08
2.73102131432e-06
1.2711776301e-08
2.71728943737e-06
1.37262466618e-08
2.70246266228e-06
1.48213848434e-08
2.68643337766e-06
1.6024316456e-08
2.66905863472e-06
1.73699398085e-08
2.65014924758e-06
1.89049824537e-08
2.62945321009e-06
2.06917063336e-08
2.60663360907e-06
2.28156184911e-08
2.58123505865e-06
2.5394550231e-08
2.55263571453e-06
2.85956604157e-08
2.51997209616e-06
3.26598894265e-08
2.48202180067e-06
3.7946970318e-08
2.43700606964e-06
4.5012470406e-08
2.38224078181e-06
5.47625356502e-08
2.31341068527e-06
6.88267985116e-08
2.22301767173e-06
9.03883502e-08
1.39723897191e-07
2.08328504947e-06
-1.41293311702e-07
6.50208183293e-08
-3.08191436168e-07
1.55196996416e-07
-4.58699700801e-07
2.01446591504e-07
-5.74736035307e-07
2.43291450409e-07
-6.89399237561e-07
2.74185723469e-07
-8.14824889933e-07
2.93106227251e-07
-9.49516196178e-07
3.04930660702e-07
-1.09077553257e-06
3.12042036129e-07
-1.23637013053e-06
3.15873721653e-07
-1.38457925476e-06
3.1736040858e-07
-1.5341057109e-06
3.1713392649e-07
-1.68396712717e-06
3.15634885598e-07
-1.8334265124e-06
3.13179037393e-07
-1.9819231989e-06
3.0999816419e-07
-2.1290364867e-06
3.0626543721e-07
-2.27444408773e-06
3.02111869775e-07
-2.41790426818e-06
2.9763697389e-07
-2.55922960799e-06
2.92916142177e-07
-2.69827875176e-06
2.88005671495e-07
-2.83493870042e-06
2.82946577852e-07
-2.96912162683e-06
2.77767346074e-07
-3.10075191002e-06
2.72486165622e-07
-3.22976602155e-06
2.67112643793e-07
-3.35610224772e-06
2.61649319602e-07
-3.47970277195e-06
2.56092708198e-07
-3.60050459477e-06
2.50434411129e-07
-3.718442954e-06
2.44661758756e-07
-3.83344326562e-06
2.38758464521e-07
-3.94542560989e-06
2.32704960632e-07
-4.05429663712e-06
2.26478914441e-07
-4.15995479209e-06
2.20055363469e-07
-4.26228231559e-06
2.13406988398e-07
-4.3611508331e-06
2.06503966545e-07
-4.45641287363e-06
1.99313997397e-07
-4.54790754769e-06
1.91801894523e-07
-4.63545198731e-06
1.8392982389e-07
-4.71884723791e-06
1.75657395052e-07
-4.7978682634e-06
1.66939809879e-07
-4.87226997919e-06
1.5772819283e-07
-4.94177745697e-06
1.47968140296e-07
-5.00609112604e-06
1.37601847582e-07
-5.06487545083e-06
1.2656768018e-07
-5.11776432948e-06
1.14800163215e-07
-5.16435072394e-06
1.02225862904e-07
-5.20419124381e-06
8.87609312093e-08
-5.2367867998e-06
7.42887767238e-08
-5.26159328418e-06
5.87168835763e-08
-5.27799681747e-06
4.1941688365e-08
-5.28534912019e-06
2.38699623072e-08
-5.28269094443e-06
4.01578386872e-09
-5.26924910831e-06
-1.74999764824e-08
-5.24438702724e-06
-4.0370135609e-08
-5.20751288631e-06
-6.44227406021e-08
-5.15815627726e-06
-8.938542676e-08
-5.09603401337e-06
-1.14895201323e-07
-5.0210883008e-06
-1.40514210925e-07
-4.93352006156e-06
-1.65756069535e-07
-4.83379022028e-06
-1.90117499879e-07
-4.72261494753e-06
-2.13113289879e-07
-4.60093009153e-06
-2.34307875958e-07
-4.46985732921e-06
-2.53340001307e-07
-4.33064651351e-06
-2.69939560836e-07
-4.18463119314e-06
-2.83934210891e-07
-4.03317193068e-06
-2.95245774354e-07
-3.87761584667e-06
-3.0388795236e-07
-3.71925306466e-06
-3.09947923491e-07
-3.55929923194e-06
-3.13569152676e-07
-3.39886183985e-06
-3.14947769843e-07
-3.23892811341e-06
-3.14323311969e-07
-3.08033824416e-06
-3.11964424258e-07
-2.92380674774e-06
-3.08131600276e-07
-2.76991829611e-06
-3.03086138595e-07
-2.61911324963e-06
-2.97114128117e-07
-2.47170993125e-06
-2.9044569688e-07
-2.32798249069e-06
-2.8320998037e-07
-2.18811542939e-06
-2.75594222104e-07
-2.05206813804e-06
-2.67926415857e-07
-1.91979738682e-06
-2.60221445386e-07
-1.79160122309e-06
-2.52171064926e-07
-1.66770618342e-06
-2.44058853364e-07
-1.54719570676e-06
-2.37161786391e-07
-1.42945419503e-06
-2.30772967275e-07
-1.31598679291e-06
-2.22650352194e-07
-1.206675229e-06
-2.1566853033e-07
-1.09704737719e-06
-2.14384049204e-07
-9.85901665959e-07
-2.11853463211e-07
-8.81197248108e-07
-1.98383333331e-07
-7.84711529972e-07
-1.8733056857e-07
-6.86100411234e-07
-1.93063593852e-07