/*--------------------------------*- C++ -*----------------------------------*\
| =========                 |                                                 |
| \\      /  F ield         | OpenFOAM: The Open Source CFD Toolbox           |
|  \\    /   O peration     | Version:  v1806                                 |
|   \\  /    A nd           | Web:      www.OpenFOAM.com                      |
|    \\/     M anipulation  |                                                 |
\*---------------------------------------------------------------------------*/
FoamFile
{
    version     2.0;
    format      ascii;
    class       volScalarField;
    location    "1";
    object      rho;
}
// * * * * * * * * * * * * * * * * * * * * * * * * * * * * * * * * * * * * * //

dimensions      [0 0 0 0 0 0 0];


internalField   nonuniform List<scalar> 
12225
(
0.58897445287
0.582329316147
0.577283430476
0.577922763707
0.568961742408
0.565500447913
0.560526983429
0.556510165561
0.554072565167
0.554037806912
0.557387196074
0.56297991487
0.56578871283
0.569393991509
0.580986096334
0.592093303027
0.604110670411
0.623210429862
0.587247477948
0.604280358172
0.584356060985
0.588687874656
0.582786344167
0.581378653597
0.578685068708
0.576384818741
0.574304972485
0.572536114962
0.571853965858
0.572403173722
0.571339902845
0.570126166667
0.573302532274
0.576781792485
0.581901686509
0.58778306539
0.577664818609
0.600850326621
0.583698896375
0.588026303136
0.581312358993
0.579294306804
0.576144301881
0.573532925064
0.571250269966
0.569304790873
0.568016439893
0.567466949867
0.566623570796
0.566419369831
0.568700894225
0.571084243649
0.57383174775
0.574277771849
0.570408892633
0.600289397137
0.582191673474
0.587659511197
0.581563002941
0.580424701991
0.578170329701
0.57634910654
0.574707324321
0.57325658655
0.572137145941
0.571419043612
0.570808634745
0.570878192448
0.572283280564
0.573676802233
0.574744790437
0.573334856701
0.565930977417
0.60031039689
0.581726297139
0.587974777422
0.582206140024
0.581570106854
0.579816393283
0.578540326389
0.577513332548
0.576709412264
0.576165498849
0.57588023743
0.575795351681
0.576199413061
0.577184746497
0.577883147326
0.577799779628
0.575658508133
0.562999716312
0.60040414664
0.581644664414
0.588536839122
0.583087640285
0.582896943181
0.581547861135
0.580689270073
0.580115281615
0.579771891723
0.57966061539
0.579737721261
0.579991695085
0.580536381491
0.581227722499
0.581419612295
0.580645497804
0.578219698004
0.561217986696
0.600489538612
0.581796938002
0.589201378059
0.584058470865
0.584240841566
0.583206850589
0.582657072867
0.582392857819
0.582345563239
0.582506073296
0.582811832295
0.583225914966
0.583765380723
0.584202607176
0.584033048334
0.58285892907
0.580317527953
0.560220033016
0.600487244245
0.582045226443
0.589839175755
0.584997756209
0.585500569373
0.584723916939
0.584409248351
0.584337345474
0.584447798589
0.584745310455
0.585156480872
0.585607753547
0.586062490737
0.586263128544
0.585816265735
0.584388984077
0.581829881218
0.559718886955
0.600345691788
0.582282352227
0.590354331383
0.585810011103
0.586602362325
0.58604700553
0.585903127507
0.585932709651
0.586105697804
0.586447094211
0.586865219925
0.58725875284
0.587560227161
0.587529332139
0.586832350889
0.585231242691
0.582683345753
0.559471919991
0.600030361571
0.582372724889
0.590614538824
0.586325806597
0.587357778959
0.58696039036
0.586914557319
0.586989416192
0.587183167941
0.587512384623
0.587860005315
0.588110190761
0.588199238528
0.58792185439
0.587005041187
0.585290126877
0.582818523913
0.558847316404
0.599646530764
0.582087502392
0.590469688819
0.586292162504
0.587420402382
0.587035863221
0.586993368729
0.587057813534
0.587213996229
0.587462822868
0.587698512769
0.58781847963
0.587773919026
0.587385950022
0.586434553705
0.584824029051
0.582612232403
0.556248797383
0.599174960952
0.580835231518
0.589458873012
0.585190758643
0.586309937578
0.585912463339
0.585869805575
0.585887615708
0.585987951
0.586251511769
0.58656035095
0.58679175968
0.586873692565
0.586646449553
0.585927980035
0.584632174972
0.582818003454
0.554588847911
0.598561460849
0.579935531956
0.588747193494
0.584672863993
0.58591947047
0.585622697621
0.585683490163
0.585863349918
0.586167980383
0.586621277925
0.58709570663
0.587433286342
0.587582892541
0.587391257581
0.586726401931
0.585550643463
0.583919022937
0.552549636756
0.597834596481
0.579027169164
0.588121140001
0.584331159355
0.585913977358
0.585969842019
0.586324051451
0.586732258396
0.587204291605
0.587755462927
0.588237641355
0.588496548556
0.588508626448
0.588195058092
0.587455244147
0.58632622686
0.584800550186
0.54978984835
0.597004393675
0.577864550549
0.587361170284
0.583895441524
0.585879424826
0.586334880616
0.587024205179
0.587681511382
0.588282831959
0.588863850027
0.589256951893
0.589338061355
0.589163813401
0.588692982779
0.587879048227
0.58677279298
0.585382114223
0.546848212435
0.596169012995
0.576541144377
0.586430880659
0.583214595871
0.585554376948
0.586339435106
0.587304972028
0.588142606791
0.588840555678
0.58939932536
0.589701206228
0.589629714642
0.589319196241
0.58874503303
0.587903517763
0.586844702186
0.585558500246
0.544083990775
0.595468022507
0.57520876605
0.585417875341
0.582331895559
0.584914032249
0.58590495292
0.587036745856
0.587975284606
0.588695731002
0.589235986634
0.589464698342
0.589308792069
0.588920814555
0.588315954862
0.587474432057
0.586482665406
0.585272028675
0.541572811449
0.595019990205
0.573978161371
0.584441967391
0.581362043074
0.584063141272
0.585129148896
0.586334339184
0.58730700707
0.588025267517
0.588536709164
0.588716021084
0.588509774817
0.588091950384
0.587481478958
0.586657558484
0.585714323515
0.584574601255
0.540139860804
0.595100938099
0.57338381515
0.58397034391
0.580776257
0.583429716715
0.584402792468
0.585527296862
0.586407146022
0.587024534281
0.587435598809
0.587527306985
0.587253025298
0.586796775993
0.586171447266
0.585349164866
0.584425988158
0.583326389624
0.542948163801
0.595883146395
0.574274932306
0.584471294499
0.580837356881
0.582991923812
0.583452020652
0.584051192366
0.584449276374
0.584636503454
0.584687972511
0.58450620718
0.58403821759
0.583454459006
0.582763071382
0.581931944025
0.581047045792
0.580049685631
0.545049548559
0.596794767469
0.57529580263
0.585184537795
0.581199295058
0.58293881692
0.582984932098
0.583193204505
0.583221665634
0.583099557568
0.582902631972
0.582547717297
0.581954819368
0.581307145683
0.580588302375
0.579774870139
0.578927058542
0.578004337482
0.546721640118
0.597687567997
0.576247923836
0.585854318013
0.581564425345
0.582927341228
0.582622694077
0.582485831861
0.582213770429
0.581839671024
0.581437752305
0.580940423158
0.580254682162
0.579546593583
0.578806902622
0.577995429627
0.577178265501
0.576289797455
0.548373519737
0.598609961167
0.577139241675
0.586479396718
0.581885829338
0.582875739159
0.582226710957
0.581763933351
0.581209834603
0.580588960531
0.580004291955
0.579358297556
0.57856940438
0.577783311786
0.577008164699
0.576176645682
0.575365561378
0.574513873197
0.550060726046
0.599543005837
0.578026181786
0.587047699872
0.582127663006
0.58275557033
0.581775647225
0.581000414772
0.580180612358
0.579341856881
0.578568650143
0.577784201346
0.576888366355
0.576027693077
0.575181633348
0.574307548303
0.573465098633
0.572623547241
0.551942995616
0.600434887149
0.578910918742
0.587563924567
0.582369685937
0.58264122139
0.581352195846
0.580302298272
0.579240156912
0.578189161636
0.57723798956
0.576319360102
0.575313477988
0.574359900637
0.573445183079
0.572503600842
0.571603828414
0.57074542765
0.554561593272
0.601350477452
0.580044865595
0.588223688554
0.582798533574
0.582761999287
0.581218133951
0.579922888097
0.578645405135
0.577394416835
0.576266621459
0.575213135059
0.574111635593
0.573062959833
0.572055754175
0.571034218144
0.570046315087
0.569132469301
0.55875917429
0.602295306196
0.581582937327
0.589157219602
0.583654519679
0.583387754839
0.581667692477
0.580220589048
0.578788177331
0.577367711961
0.57605778625
0.574878865692
0.573666101465
0.572487565421
0.571370424676
0.570228259218
0.569132278756
0.568089090335
0.566803814581
0.604134837701
0.585208291244
0.591843673408
0.586248666774
0.585665740546
0.583725052114
0.582093756679
0.580518738531
0.578959517986
0.577552810378
0.576306958927
0.5750460463
0.573848926806
0.572725869541
0.571566746495
0.570402238463
0.569564949454
0.583478454034
0.611994154306
0.589455867057
0.596151830347
0.591336045701
0.590851025023
0.58909327829
0.587472816717
0.585688849731
0.583698994411
0.58163879963
0.579742556099
0.577814438978
0.575789291897
0.573716186647
0.571569112167
0.569423132145
0.567267226897
0.599279812509
0.591834302754
0.587718971397
0.592121611871
0.585791675874
0.585739020525
0.584576985709
0.58365602188
0.582879965081
0.582345468844
0.582215930378
0.582182609333
0.582073274602
0.582288193566
0.582795838731
0.583256672196
0.583592212888
0.583343695958
0.500111153922
0.499774905079
0.499626094827
0.499707065502
0.499937817038
0.50027002645
0.500670348397
0.50111503719
0.501586295788
0.502071396848
0.502561571336
0.503051042576
0.503535992474
0.504014424272
0.504485057851
0.504947905851
0.50540286918
0.505851101119
0.5062929608
0.506729155278
0.507160158528
0.507586477179
0.508008517412
0.508425532887
0.508837615094
0.509243338254
0.509642925022
0.510035421888
0.51042068429
0.510797336013
0.511165235017
0.511523566767
0.51187219225
0.512209933493
0.51253679847
0.512852767983
0.513157866164
0.513451373053
0.51373363174
0.514004485412
0.514264250783
0.514513189997
0.514751634598
0.514980246897
0.515199310994
0.515409756483
0.515611978928
0.515806701413
0.515994419474
0.516175596999
0.516350938794
0.516520263919
0.516684039609
0.516841787877
0.516993815129
0.517139873008
0.51727999137
0.517413721582
0.517541022077
0.517661685335
0.517775752654
0.517882883544
0.51798334351
0.518077755372
0.518166657041
0.518250202273
0.518329095583
0.518403853775
0.518474767767
0.518542405117
0.518606903166
0.51866867073
0.518727780163
0.518784452972
0.51883889256
0.518891311657
0.518941502676
0.518988914691
0.519033411229
0.519075101904
0.519113913379
0.519149237896
0.51918065548
0.519207266539
0.519230349019
0.51924965674
0.519267358236
0.519285846566
0.519303309142
0.519328954853
0.519365077814
0.519405084505
0.519446509761
0.519485388239
0.519520944316
0.51955308337
0.51958172561
0.519606903475
0.519628509698
0.51964622686
0.519658637295
0.51966376106
0.519660432495
0.519648164848
0.519629183526
0.519605116038
0.519578425492
0.519550437034
0.519521896419
0.519493069462
0.519464236752
0.519435555107
0.51940729148
0.519379474448
0.519352099919
0.519325160417
0.519299152319
0.519275223679
0.519252871967
0.519230395973
0.519204378143
0.519173130482
0.519137172129
0.519096821518
0.519054279733
0.51901055647
0.518966354561
0.518922023362
0.518877921148
0.518834278282
0.518791494443
0.518749810633
0.518709490151
0.518670440766
0.518632655392
0.518596014194
0.518560504419
0.518526408522
0.518493551224
0.518462171094
0.518431407607
0.518402435652
0.518374807119
0.518347498659
0.51831967906
0.518290649599
0.518260490804
0.518229507889
0.518198124563
0.51816664528
0.518135325912
0.518104322437
0.518073741912
0.518043573346
0.518013719644
0.517983919597
0.517953627449
0.517921924022
0.517886936173
0.51784607925
0.517794263597
0.517725491646
0.517630726849
0.517497067965
0.517306403169
0.51703792352
0.516665694613
0.516166643323
0.515521903505
0.514699829642
0.51367972842
0.512458751483
0.51105185679
0.509503539063
0.50787260316
0.506135774971
0.504344436153
0.502597636199
0.500997823128
0.499801176845
0.500102067927
0.499839198563
0.499858573198
0.500098597042
0.500439107992
0.500819062244
0.501218466754
0.501629025768
0.502047963176
0.502473980093
0.502906161936
0.503343302661
0.503784470119
0.504228584193
0.504674683507
0.50512203936
0.50556995029
0.506018209225
0.506466531704
0.506914589823
0.507362224006
0.507808933514
0.508254759878
0.508698522819
0.509139695206
0.509576783008
0.51000969491
0.510437044054
0.51085817467
0.511271754029
0.511677531826
0.512074372435
0.512461609464
0.512838382639
0.513204704747
0.513559903656
0.513903930303
0.514236424829
0.514557278545
0.514866257471
0.515163515854
0.515449228899
0.515723609397
0.515987133907
0.516240110028
0.516483232502
0.516717015187
0.516942073484
0.517159071001
0.517368463242
0.517571009579
0.517766939855
0.51795663761
0.518139943958
0.518317312566
0.518488694627
0.518654080505
0.51881325114
0.518966214036
0.519112727107
0.519252682849
0.519386119654
0.519513373523
0.519634581442
0.519750061445
0.519860192407
0.519965133616
0.520065242298
0.520160786272
0.520252206129
0.520339790127
0.520423865716
0.520504632837
0.520582485477
0.520657734373
0.520730408694
0.5208004237
0.520867496466
0.520931440973
0.520992216717
0.521049592065
0.521103172588
0.521152454307
0.521196519917
0.521236002822
0.52127154918
0.521304520064
0.521335274483
0.52136700642
0.52140315898
0.521448297419
0.521501373476
0.521555615536
0.521608695807
0.521659468021
0.521707824747
0.521753868297
0.521797810497
0.521839630098
0.521878979966
0.521914325282
0.521943735743
0.521965249266
0.521978949095
0.521985799715
0.521987581277
0.52198607321
0.521982323618
0.521977012707
0.521970501759
0.521963070795
0.521955015641
0.521946664684
0.521938293474
0.521930207721
0.521922748667
0.521916846517
0.521913736572
0.52191368288
0.521914485475
0.521912950035
0.521907432268
0.521897331029
0.521883530435
0.521867319655
0.521849506902
0.521830708188
0.521811354515
0.521791735768
0.521772093851
0.521752610573
0.521733441372
0.52171458153
0.521695929245
0.521677416321
0.521659098757
0.521641259661
0.521624501017
0.521609455121
0.52159622603
0.521584811433
0.52157591732
0.521569254623
0.521563950179
0.521558787756
0.521552953705
0.521546262715
0.521538922528
0.521531215096
0.521523425271
0.521515740481
0.521508335495
0.52150128162
0.521494658039
0.521488442854
0.521482588737
0.52147691193
0.5214712935
0.521465435895
0.521459540207
0.521453829353
0.521448711399
0.521445079743
0.521445046106
0.521451358623
0.521467578888
0.521503184088
0.521555595756
0.521626950494
0.52172149483
0.521839002765
0.521973512801
0.522116931409
0.522266504671
0.522336366256
0.522409648259
0.522478118819
0.522536976573
0.522584876561
0.52255645668
0.500356224134
0.500240717801
0.500346230841
0.500592939405
0.500887911141
0.501189161222
0.501496293984
0.501812909713
0.502143126364
0.502488802279
0.502850457245
0.503227177435
0.503617380364
0.504019186416
0.504430610949
0.504849908495
0.505275426058
0.5057059247
0.506140395065
0.50657792467
0.507017722754
0.507458863503
0.507901024068
0.508342838692
0.508783651626
0.509222109994
0.509657608026
0.510088716217
0.510514723172
0.510934294164
0.511346754199
0.511750892414
0.512146272463
0.512531856705
0.512907290416
0.513272089741
0.513626109104
0.513968702883
0.514299872645
0.514619414997
0.51492733855
0.515223785971
0.515508892901
0.515783035814
0.516046469149
0.516299715502
0.516543255556
0.516777613182
0.517003323821
0.517220885591
0.517431058723
0.517634026592
0.517830239629
0.518019803916
0.518202979446
0.518379800851
0.518550433605
0.518714752417
0.518872750718
0.519024181665
0.519169074313
0.519307278953
0.519438852611
0.51956404873
0.519683127738
0.519796329758
0.519904021879
0.52000662293
0.520104382396
0.520197744659
0.52028699505
0.52037250911
0.520454582743
0.520533422139
0.52060936173
0.520682603338
0.520753067531
0.520820547452
0.520885042133
0.520946510855
0.521005161658
0.521060809717
0.521112977388
0.521161369562
0.521206378848
0.52124870067
0.521288644535
0.521326384745
0.521361178707
0.521399023879
0.521445150671
0.521497169144
0.521552332236
0.521606644967
0.521658910845
0.521708765659
0.521756225171
0.521801289108
0.521843930807
0.521883657567
0.521919205749
0.521949035945
0.521972077368
0.521988926751
0.522000527178
0.522008460443
0.522013504874
0.522016253915
0.522017076979
0.522016351886
0.522014425667
0.522011704444
0.522008545987
0.522005231712
0.522001998744
0.521999139406
0.521997474712
0.52199769188
0.521999555587
0.522000751909
0.521999002724
0.521993456806
0.521984539244
0.521973448676
0.52196062676
0.521946420705
0.521931125691
0.521915083968
0.521898605805
0.521882010169
0.521865607298
0.521849649149
0.521834223482
0.521819289489
0.521804793544
0.521790774881
0.521777454486
0.52176500153
0.521753614075
0.521742837433
0.521732943903
0.521724658416
0.521718553865
0.521714084852
0.521710048178
0.521705650594
0.521700589746
0.521695005389
0.521689060714
0.521682975194
0.521676853497
0.521670830736
0.521664927721
0.521659188728
0.521653537025
0.521647869223
0.521641898661
0.52163531518
0.521627512964
0.521617899168
0.521605956221
0.521590976705
0.521572185606
0.521549344714
0.521522401545
0.521492224723
0.521462670027
0.521436689217
0.521415415162
0.521403697159
0.521407715835
0.521433740822
0.52148970089
0.521575321373
0.521676797235
0.521785972332
0.521911630164
0.522052860586
0.522205329831
0.522374730956
0.500565087778
0.500737701307
0.500910501189
0.501131210096
0.501362665422
0.501584760035
0.501813466615
0.502058179009
0.502324883661
0.502616089952
0.502931605887
0.503269699999
0.50362800783
0.504003845509
0.5043945354
0.504797615223
0.505210858838
0.505632395955
0.506060632357
0.50649406226
0.506931782371
0.507372493159
0.50781532417
0.508259059612
0.508702878232
0.509145202643
0.509585267541
0.510021691809
0.510453503036
0.510879313065
0.511298335949
0.511709389494
0.51211168118
0.512504261377
0.512886906499
0.513258705475
0.513619512965
0.513968873392
0.514306660492
0.514632560019
0.514946645661
0.515248956032
0.515539645288
0.515818992852
0.516087244874
0.516344827806
0.5165921529
0.516829683454
0.517058061982
0.517277713626
0.517489197786
0.517693014855
0.517889662186
0.518079217262
0.518262004832
0.518438153603
0.518607849456
0.518771076585
0.518927901225
0.519078110817
0.519221574734
0.519358272474
0.519488439753
0.519612020756
0.519729262099
0.519840590184
0.519946254976
0.520046625332
0.520142002277
0.520232782746
0.520319292605
0.520401867582
0.520480773824
0.520556415084
0.520629094749
0.520698936077
0.520766114818
0.520830595068
0.520892402727
0.520951673862
0.521008749329
0.521063634188
0.5211159776
0.521165395574
0.521212124154
0.521256544563
0.521298496406
0.521336229853
0.521369914859
0.521403423017
0.521442568429
0.521489247191
0.521538750905
0.521587960905
0.521635512042
0.521680940676
0.521724092785
0.52176489351
0.52180323145
0.521838597038
0.521870058289
0.521896433814
0.521917590536
0.521934086319
0.521947249131
0.52195780281
0.521965995267
0.521971920769
0.521975762604
0.521977812931
0.521978450884
0.521978088255
0.521977078323
0.521975688558
0.521974090044
0.521972618262
0.521971804086
0.521972106402
0.521972708514
0.521971686604
0.521967402133
0.521959879716
0.521950556093
0.521940202143
0.521928847587
0.521916381246
0.521902865005
0.521888511408
0.521873624135
0.521858564146
0.521843708908
0.521829349896
0.521815612583
0.521802469133
0.521789858973
0.521777817198
0.52176639829
0.521755522624
0.521744811812
0.521733755886
0.521722529393
0.521712373709
0.521704382255
0.521698215049
0.521692857011
0.521687473034
0.521681742367
0.521675680402
0.521669397543
0.521663008465
0.521656579489
0.521650169537
0.521643783745
0.521637415334
0.521630994608
0.521624393115
0.521617371973
0.521609655243
0.52160080696
0.521590420204
0.521578247378
0.521563893581
0.521547105902
0.521528190897
0.521507756476
0.521487128621
0.521469423528
0.521457014007
0.521451644115
0.52145746645
0.521478488598
0.521518080466
0.521580877333
0.521665467597
0.52176472166
0.521875102927
0.522000546776
0.522143813653
0.522313378221
0.522532660897
0.500804041972
0.501335683753
0.50155731813
0.501742130532
0.501917430856
0.502076282458
0.502244758063
0.502434364885
0.502651432685
0.502897646878
0.503172451196
0.503473874875
0.503799257865
0.504145705767
0.504510397029
0.504890610704
0.505283966368
0.505688180875
0.506101546811
0.506522378105
0.506949287232
0.507380830622
0.507816160912
0.508253695386
0.508692446017
0.509131107089
0.509568561219
0.510003314959
0.51043432254
0.510860208174
0.511279927521
0.511692195251
0.512096353149
0.512491314702
0.512876550814
0.513251357513
0.513615544176
0.5139683512
0.514309765072
0.514639420828
0.514957344674
0.515263472796
0.515557964051
0.515840974129
0.516112761517
0.516373598346
0.516623915664
0.51686413622
0.517094721005
0.517316161523
0.517529121847
0.517733918765
0.517931055258
0.518120965002
0.518303814053
0.518479697014
0.518648883346
0.518811465522
0.518967507924
0.519116885979
0.519259560397
0.51939542009
0.519524617818
0.51964729062
0.519763611105
0.519873755188
0.519978109082
0.520077019282
0.520170759697
0.520259711614
0.52034415408
0.520424495608
0.520501102032
0.520574251487
0.5206442767
0.52071152527
0.520776153016
0.520838232277
0.520897935237
0.520955495033
0.521011414616
0.521065805375
0.521118260989
0.521168434429
0.521216372441
0.52126216502
0.521305025179
0.521342949658
0.521374573646
0.521404756295
0.521440371171
0.521482567815
0.521527869503
0.521572963948
0.521616536777
0.521658114547
0.521697464984
0.521734522064
0.521769101172
0.521800750275
0.521828798419
0.521852699212
0.521872710041
0.521889682081
0.521904689751
0.521917935602
0.521929236875
0.521938366783
0.521945355814
0.52195040129
0.521953871598
0.521956135814
0.521957528298
0.521958253377
0.521958464326
0.521958498861
0.521958712814
0.521959151421
0.521958735169
0.521955870613
0.521949696416
0.521941146492
0.521931909807
0.521922474606
0.521912564912
0.521901803224
0.521890084558
0.521877514271
0.521864371063
0.521851033556
0.521837916046
0.521825332642
0.521813434366
0.52180218822
0.521791546918
0.521781536852
0.521772054545
0.521762735645
0.521752678395
0.521741346289
0.521728958227
0.521717282596
0.521707666078
0.521699978767
0.521693359811
0.521687010411
0.521680619305
0.521674110808
0.52166753772
0.521660910311
0.521654251457
0.521647547315
0.521640791067
0.521633936941
0.521626927091
0.521619624385
0.521611829605
0.521603299054
0.521593691245
0.521582684863
0.521570143778
0.521555829065
0.521539672835
0.521522156472
0.521504042938
0.521486697806
0.521472946614
0.521465055077
0.521464925554
0.52147657644
0.521503483443
0.521548587946
0.521616023449
0.521705283923
0.52181076141
0.521931398415
0.522070493877
0.522231820323
0.52242741199
0.522679170039
0.501142019243
0.502062780666
0.502308731452
0.502447218533
0.50257115737
0.502675689063
0.502793605903
0.502935811517
0.503108050564
0.503311880064
0.503546586338
0.503809987806
0.504099675995
0.504412769397
0.504746624127
0.505098484683
0.505466013787
0.505846900929
0.506239250628
0.506641078819
0.507051146568
0.507467818673
0.507889791921
0.508315745227
0.508744572912
0.509174607626
0.509604735552
0.510033500085
0.510459634913
0.510881689003
0.511298557514
0.511708960219
0.512111925153
0.512506382591
0.512891906365
0.513267476684
0.513632809776
0.51398727402
0.51433070765
0.51466259887
0.514983013969
0.515291750952
0.515588979628
0.515874727328
0.516149248836
0.516412729514
0.51666552099
0.516907935225
0.517140552663
0.517363749827
0.517577958329
0.517783748683
0.517981591237
0.518171798299
0.518354710078
0.518530472598
0.518699202526
0.518861131012
0.519016379863
0.519164936209
0.519306721323
0.519441582246
0.51956980078
0.519691406151
0.519806587356
0.519915490453
0.520018443222
0.520115727279
0.520207675141
0.520294627141
0.52037694614
0.520455005492
0.520529117049
0.520599744018
0.520667220955
0.520731818725
0.520793858008
0.52085353537
0.52091103839
0.520966718945
0.521021129217
0.521074442135
0.521126245957
0.521176107431
0.52122394299
0.521269531609
0.521311881821
0.521348603004
0.521378768906
0.521406739574
0.521439627848
0.521478910058
0.521520818703
0.521562354818
0.521602280406
0.521640143736
0.521675806601
0.52170918677
0.52174014132
0.52176832368
0.521793272961
0.521814993739
0.52183395412
0.521851199072
0.521867355738
0.521882386837
0.521895823233
0.521907303904
0.521916708639
0.521924164275
0.521929943935
0.5219343651
0.521937690188
0.521940070726
0.521941671875
0.521942772088
0.521943649395
0.521943936419
0.521942601739
0.521938326548
0.521930920465
0.521921965263
0.521912939261
0.521904192313
0.521895314324
0.521885848694
0.52187556771
0.521864508897
0.521852909062
0.521841148213
0.521829628991
0.521818670335
0.521808401946
0.52179880083
0.521789829875
0.521781495096
0.521773585276
0.521765341073
0.521755734909
0.521744018529
0.521730795444
0.521718026124
0.521707093134
0.521698081549
0.521690249552
0.521682939091
0.52167581429
0.521668788728
0.521661831152
0.52165490617
0.521647962019
0.521640951187
0.52163382524
0.521626532452
0.521619005251
0.521611128617
0.521602727702
0.521593615146
0.521583526097
0.521572242673
0.521559736747
0.521545932688
0.521530936762
0.521515396335
0.521500223684
0.521486813681
0.521477762895
0.521475224339
0.5214811105
0.521499184088
0.521532425546
0.521583253176
0.521655259628
0.52174868071
0.521859813577
0.521988713587
0.52213814076
0.522312570645
0.522525242567
0.522794598665
0.501611364451
0.502935284027
0.503184917405
0.503266402579
0.50333997784
0.503393602757
0.503464070543
0.503560977867
0.503689862452
0.503851387971
0.50404499677
0.504268696872
0.504520297177
0.504797087972
0.505096653186
0.505416314058
0.505753850146
0.50610684261
0.506473485392
0.506851885808
0.507240379985
0.507637309876
0.508041576217
0.508451447352
0.508865653641
0.509282805658
0.509701533746
0.51012022001
0.510537606053
0.510952170394
0.511362671875
0.51176768997
0.512166356705
0.51255748539
0.512940339677
0.513314057645
0.513678278829
0.514032098988
0.514375380261
0.514707577254
0.515028655343
0.51533833059
0.515636743147
0.515923816606
0.516199798079
0.516464755803
0.516719047066
0.516962939175
0.517196817977
0.517421090516
0.517636319362
0.517842826637
0.518041021522
0.518231441635
0.518414352416
0.518589899041
0.518758157868
0.518919377885
0.519073714281
0.51922121848
0.519361952983
0.519495724147
0.519622650854
0.519742953218
0.519856876739
0.5199643371
0.520065683718
0.520161209581
0.520251236639
0.520336113702
0.520416178927
0.520491858118
0.520563569259
0.520631655954
0.52069648652
0.520758508535
0.520817989266
0.520875180251
0.52093036044
0.520983927267
0.521036447187
0.521088099177
0.521138457619
0.521187028312
0.521233624461
0.521277872989
0.521318648923
0.521353677945
0.521382069926
0.521408587149
0.521439958355
0.521477104542
0.521516454881
0.52155513307
0.521592017485
0.521626706271
0.521659164677
0.5216893499
0.521717156486
0.521742353068
0.521764743019
0.52178458659
0.521802660241
0.52181981659
0.521836440652
0.521852358488
0.521867018875
0.521879981116
0.521891049932
0.521900260192
0.521907779758
0.521913842527
0.521918614215
0.521922211889
0.521924821765
0.521926732966
0.521928031238
0.521928198638
0.521926175082
0.521921048589
0.52191322659
0.5219043174
0.52189562282
0.521887386393
0.521879207936
0.521870636244
0.521861413726
0.521851534865
0.521841203636
0.521830766901
0.521820600394
0.521810993924
0.521802053954
0.521793769596
0.521786139373
0.521779157286
0.52177247389
0.521765088646
0.52175581094
0.521743904742
0.521730285072
0.521716871145
0.521705079182
0.521695043819
0.521686175075
0.521677951247
0.52167008787
0.5216625126
0.521655139936
0.521647899337
0.521640668109
0.521633375642
0.521625929922
0.521618284454
0.521610360401
0.521602073012
0.521593272139
0.521583827244
0.521573547945
0.521562310055
0.521550193676
0.521537262336
0.521523783147
0.521510525275
0.521498530042
0.521489179212
0.521484911596
0.521487736069
0.521499521076
0.521523702454
0.521562914064
0.521619108373
0.521695540813
0.52179301555
0.52190928955
0.522045177226
0.522203254474
0.522388307535
0.5226135721
0.522894182838
0.502227610861
0.503963701252
0.504202615761
0.504217168454
0.504239020477
0.50424069824
0.504263084134
0.504313687528
0.504397346342
0.504514729471
0.504665390809
0.504847186314
0.505058321319
0.505296143177
0.505558500899
0.505842778955
0.506146885655
0.506468522709
0.506805800235
0.507156594669
0.507519544395
0.507892904204
0.508275132348
0.508664796962
0.509060615276
0.50946077359
0.509864006477
0.51026873801
0.510673556401
0.511076854583
0.51147738968
0.511873746423
0.512264805612
0.512649343414
0.513026740747
0.51339584724
0.513756162598
0.514106920016
0.514447789903
0.514778102683
0.515097815783
0.515406546736
0.515704394299
0.515991204568
0.516267180306
0.516532345536
0.516786968722
0.517031198992
0.517265519267
0.517490247042
0.517705700908
0.517912383097
0.518110675483
0.518300875144
0.51848336634
0.518658439762
0.518826049679
0.518986341513
0.519139557571
0.51928582864
0.519425227586
0.519557684611
0.519683235055
0.519801996728
0.519914281772
0.520020175545
0.520119781086
0.520213376766
0.520301341557
0.520383997369
0.520461762317
0.520535033005
0.520604171776
0.520669673518
0.520731919462
0.520791251463
0.520848056331
0.520902650617
0.52095530037
0.521006445056
0.521056645516
0.521106070085
0.521154287029
0.521200781718
0.521245303112
0.521287411117
0.521325996098
0.521358983234
0.521385820287
0.521411259214
0.521441527494
0.521477173222
0.521514550693
0.521550958485
0.521585336723
0.52161740349
0.521647180496
0.521674700917
0.521699889991
0.521722630924
0.521742927735
0.521761198826
0.521778335619
0.52179502263
0.521811503058
0.521827544636
0.521842636718
0.521856307005
0.521868333649
0.521878640144
0.521887306561
0.521894448967
0.521900166509
0.521904551131
0.521907831036
0.521910294056
0.521911864578
0.52191196399
0.521909610575
0.521904228216
0.521896526131
0.521887975655
0.521879644593
0.521871745214
0.521863985109
0.521855977349
0.521847489674
0.521838493726
0.521829164818
0.521819797224
0.521810721729
0.521802163732
0.521794213438
0.521786863428
0.521780186355
0.521774163578
0.521768287687
0.521761455863
0.521752367878
0.521740508524
0.521726892927
0.521713322051
0.52170108695
0.521690339045
0.521680676542
0.521671681807
0.521663171871
0.521655068072
0.521647292216
0.521639724354
0.521632217984
0.521624659862
0.521616945643
0.521609016528
0.521600805562
0.521592246044
0.521583226602