/*--------------------------------*- C++ -*----------------------------------*\
| =========                 |                                                 |
| \\      /  F ield         | OpenFOAM: The Open Source CFD Toolbox           |
|  \\    /   O peration     | Version:  v1806                                 |
|   \\  /    A nd           | Web:      www.OpenFOAM.com                      |
|    \\/     M anipulation  |                                                 |
\*---------------------------------------------------------------------------*/
FoamFile
{
    version     2.0;
    format      ascii;
    class       volScalarField;
    location    "13";
    object      alpha;
}
// * * * * * * * * * * * * * * * * * * * * * * * * * * * * * * * * * * * * * //

dimensions      [0 0 -1 0 0 0 0];


internalField   nonuniform List<scalar> 
12225
(
0.39316345973
0.333583780425
0.352615936017
0.352764556225
0.36431557231
0.368579417321
0.374426570463
0.378452307839
0.380652528972
0.379873775014
0.374647098376
0.366279480972
0.359460701704
0.347817598728
0.32499477103
0.295951409948
0.259312017392
0.228107313906
0.232589366406
0.285990735194
0.318253842397
0.313611006091
0.3226830741
0.325150206
0.328998843904
0.33148874447
0.332984990366
0.332803578314
0.329597395662
0.323555356442
0.317139053931
0.307558273548
0.290700339548
0.269487039089
0.246690417105
0.24424351995
0.367036951215
0.305578640481
0.321469582865
0.320403118086
0.329703025916
0.333074603291
0.337531249559
0.340593123963
0.342736478921
0.343463789135
0.342066676877
0.338379555505
0.332877802987
0.324085965801
0.309981244686
0.292830794477
0.277418741824
0.282178731052
0.31829014077
0.291507416074
0.31834855342
0.312426409637
0.321117414142
0.322872826821
0.326088114015
0.328081332347
0.329474649146
0.329845631467
0.32884425773
0.326266540379
0.321966370725
0.315110361787
0.305022200328
0.293889843934
0.286902211983
0.295798604904
0.337467637078
0.292887642263
0.316338638172
0.309866608794
0.317551189124
0.318400879387
0.320708477029
0.321785333577
0.322246501619
0.321768471158
0.320196240274
0.317413626031
0.31320361068
0.30720920734
0.299619407932
0.29267688339
0.290877287879
0.300546332175
0.332922657696
0.289128314274
0.313462424093
0.305546102668
0.312706210832
0.312824530298
0.314571404549
0.315117148003
0.315097988214
0.314250840024
0.312509304873
0.30982108411
0.306049214822
0.301159245145
0.295793785812
0.292064300334
0.293293219927
0.302460397874
0.333050798556
0.2875424456
0.310970557989
0.30216939227
0.308698004185
0.308176458673
0.309422042034
0.309528106074
0.309154045108
0.30808410242
0.306306978141
0.303822633829
0.300622718224
0.29688278949
0.293427120731
0.292044731447
0.294948035663
0.303346474164
0.331969258978
0.286195840632
0.308867755302
0.299333124876
0.305310550237
0.304260028633
0.305109517468
0.304891761968
0.304311376631
0.303171341192
0.301488175983
0.299309627587
0.296744142955
0.29409284065
0.292204138911
0.292465817694
0.296253505296
0.303864051047
0.331035389224
0.285402543241
0.307190206314
0.297115232987
0.302582450947
0.301079368307
0.30160095634
0.301154545325
0.300481704398
0.299379827544
0.297880582783
0.296082885148
0.294177831384
0.292524478138
0.291880885922
0.293280788329
0.297492936355
0.304431797477
0.330346425902
0.285072173005
0.30605188289
0.295583534185
0.300619282463
0.298743671878
0.299022505664
0.298438663285
0.297744515356
0.296731496295
0.295468135179
0.29410110151
0.292864503797
0.292105770921
0.292444106318
0.29460619615
0.298977388243
0.305284098189
0.330548638294
0.284990425325
0.305739218867
0.294911021088
0.29969971717
0.297607462452
0.297798357476
0.297177730053
0.296521738508
0.295650426915
0.294669803105
0.293730596525
0.293064244687
0.292970276614
0.293932852745
0.296439563637
0.300638922512
0.306235454909
0.334561699813
0.285103864607
0.307214621624
0.295803307993
0.300651545053
0.298457264523
0.298624303186
0.29799524287
0.297422348573
0.296698034835
0.295873187001
0.29511799189
0.29467115224
0.294815703232
0.295921791148
0.298324716399
0.302085077287
0.306914412634
0.337867225837
0.285769375468
0.308694937229
0.296868976207
0.301544144904
0.299176576467
0.299239286871
0.298527089559
0.297858252237
0.297047387731
0.296203635656
0.295500887708
0.295208849945
0.295531065003
0.296771619032
0.299130284421
0.302575759643
0.306854164125
0.341866863966
0.286601150953
0.310376985383
0.298013947072
0.302479379822
0.299760144178
0.299517499118
0.298582224879
0.297797001747
0.296974397646
0.296230157998
0.295751978102
0.295773165038
0.296434038044
0.297894052492
0.300273591121
0.303434858175
0.307237160723
0.347059725298
0.287513070644
0.312486061569
0.299402778937
0.303651375713
0.300517346066
0.299928180432
0.298730485964
0.297811101069
0.297016959243
0.296430304828
0.296247129691
0.296639696196
0.297627464481
0.299287686181
0.301643971802
0.304545542577
0.30785849367
0.352516288852
0.288494479727
0.314893063883
0.30110046676
0.305234618039
0.301743132511
0.300894921518
0.299502857178
0.29852216883
0.297767132381
0.29736208443
0.297418831358
0.298093036743
0.299281190639
0.301023417712
0.303269377286
0.305888541119
0.308788739264
0.357437692299
0.289394014577
0.317331181558
0.302963669532
0.307129283653
0.303422623645
0.302463206516
0.301007201455
0.300045259942
0.299396669744
0.299128963583
0.299364577955
0.300183659054
0.301455879333
0.303152637752
0.305244396791
0.307567875832
0.310129876487
0.3620797036
0.290087436301
0.319653093738
0.304819170232
0.30915620853
0.305378383401
0.30445171176
0.303029014273
0.302148225028
0.301607993296
0.30145747859
0.3018009448
0.302684839551
0.303947821347
0.305549936966
0.307466190364
0.309538237898
0.311803516752
0.364633125274
0.290191976619
0.320882947668
0.305868066428
0.310485961505
0.3068451602
0.306134252341
0.304906573326
0.304230726313
0.303885157845
0.303903969036
0.304369892986
0.305315792253
0.306565973949
0.308087114808
0.30986586595
0.311754667289
0.313799349353
0.359287189081
0.289546795293
0.319319758064
0.305146125147
0.310227944878
0.307239828369
0.307150410925
0.306558060706
0.306454294277
0.306617766908
0.30705293293
0.307825847292
0.308973419654
0.310333494608
0.311877456888
0.313601654323
0.315373462686
0.317229051968
0.355148128097
0.288527612357
0.317470866838
0.303909947516
0.309348812024
0.306881446437
0.307283639956
0.307151239118
0.307485293474
0.30800931424
0.308735457731
0.309706865663
0.310993369027
0.312409307362
0.313964317384
0.315635644956
0.31733277795
0.319066767471
0.351891467247
0.287456010496
0.315689359487
0.302649195438
0.308367798199
0.306355102265
0.307157112421
0.307424787014
0.3081008162
0.308914295384
0.30987693822
0.311008733285
0.3123924308
0.31386478778
0.315423318744
0.317069129731
0.318706005578
0.320376545032
0.347994233753
0.286182810906
0.313896722172
0.3013459849
0.30734652821
0.305775168937
0.306961279308
0.307594338302
0.308588317828
0.309682163171
0.310844859014
0.312140291807
0.313632658271
0.315179961395
0.316757104309
0.318412954422
0.320028666371
0.321662904512
0.345352292939
0.285217256155
0.311879150369
0.29994837593
0.306213067297
0.305070290966
0.30661816162
0.307603747405
0.308888025634
0.310214004554
0.311572274828
0.313002606112
0.314589963537
0.316187057699
0.317811301224
0.319474555937
0.321093380322
0.322663322038
0.337484699078
0.28312578386
0.310368031886
0.29891034233
0.305463116094
0.304752522525
0.306646410609
0.307935681048
0.309488353389
0.311048532309
0.312603499572
0.314171880659
0.315869856688
0.317555946144
0.319238552114
0.320972476164
0.322677684299
0.324362415467
0.347259042915
0.284396840544
0.306848465057
0.296803212216
0.303308155997
0.302999578181
0.305108185999
0.306641945304
0.308397084912
0.310145966995
0.311845454078
0.313521730626
0.315282364719
0.317022742112
0.318747097428
0.320495640602
0.322200996425
0.323710900197
0.29900028063
0.277128547884
0.306132524655
0.295909850013
0.302997546253
0.303136278003
0.305643427969
0.307529435576
0.309622051559
0.311708812437
0.313766422201
0.315663494395
0.317575661717
0.319466638042
0.321290375945
0.323141436982
0.325014349804
0.327078308111
0.394891536055
0.288311416302
0.296027483293
0.290649525902
0.296668943306
0.297181927433
0.299474455552
0.301171480398
0.302986355814
0.304793781297
0.306458275208
0.308006324855
0.30962483884
0.311232936877
0.31282277714
0.314539980962
0.316355152711
0.317773289944
0.170411362996
0.264060243535
0.291551803758
0.284334664062
0.290823216284
0.291752421122
0.294701760072
0.29731149349
0.300298519618
0.303524273302
0.30688487972
0.310030049652
0.313215438096
0.316531145586
0.319891949321
0.323308805311
0.326821589262
0.330238807727
0.330394874329
0.301319430724
0.30491357675
0.303476683363
0.310868502351
0.311788923196
0.314285198217
0.316202579849
0.318151412671
0.31985614611
0.321220745202
0.322492994518
0.323829348199
0.324848485843
0.325551981628
0.326133437436
0.326416549953
0.327138944316
0.476036550424
0.476394166599
0.47657708546
0.476559729012
0.476351534719
0.475991717034
0.475570857606
0.475128020329
0.474688612728
0.47426981846
0.473882904447
0.473534661166
0.47322867208
0.472966165784
0.4727467049
0.472568472637
0.472429009936
0.472324912111
0.472252989382
0.472210084386
0.472192742716
0.472198577633
0.472224145127
0.472268620391
0.472329947185
0.47240850479
0.472502565302
0.472612400398
0.47273727649
0.472878019607
0.473034301788
0.473206660293
0.473394645945
0.473599056631
0.473819642025
0.474056244236
0.474307708225
0.474574709365
0.474856035364
0.475151536207
0.475459802562
0.475779966632
0.476110308739
0.476449063229
0.476794099172
0.477142799826
0.477492572681
0.477840296233
0.478182752788
0.47851704281
0.478840381119
0.479151514248
0.479447346521
0.479723831566
0.479975707233
0.480198010905
0.480385447283
0.4805328066
0.480634697258
0.480686040774
0.480682917278
0.480624334466
0.480509638179
0.48033665945
0.48010524232
0.479818043354
0.479476916372
0.479083855488
0.478642127157
0.478154577167
0.477625559376
0.477059079664
0.476460054254
0.475832890563
0.47518244513
0.474512898678
0.473828446196
0.473133809637
0.472432958463
0.471728667746
0.471023144377
0.470319771479
0.469620660999
0.468928476743
0.468242378952
0.467564899849
0.466895915875
0.466229034291
0.465567775836
0.464908423295
0.464250242887
0.463593142005
0.462935525266
0.462304663581
0.461716139637
0.461132987422
0.460524241452
0.459905376114
0.459279409383
0.458653136804
0.457921386277
0.45710519259
0.457024275088
0.457046410778
0.456909530789
0.456556857364
0.456017648342
0.455769861339
0.455459267831
0.455157496677
0.454895570996
0.454667750186
0.454464882245
0.454281253799
0.454112541541
0.453955858229
0.453808255133
0.453666541659
0.453529867411
0.453399293343
0.45327824788
0.453168025928
0.453067332684
0.452975062662
0.452888362321
0.452805978104
0.45272714597
0.452651335056
0.452578124026
0.452507067137
0.452437736359
0.452369906594
0.452303406103
0.452238272824
0.452174512295
0.45211229235
0.452051699971
0.451992427815
0.451935033045
0.451879824465
0.451828774117
0.451780634114
0.451736277068
0.451697178358
0.451664988521
0.451641487821
0.451627767219
0.451624622982
0.451632751524
0.451652697344
0.451685548783
0.451732840318
0.451796306979
0.451877596776
0.45197848316
0.452100778153
0.452246521009
0.45241793163
0.452617921641
0.452850028101
0.453119561224
0.45343220093
0.453795976246
0.454222151613
0.454726114241
0.455324757674
0.456038879376
0.456884865584
0.457875740992
0.459034047307
0.460372529258
0.461887730683
0.463561909252
0.465354948083
0.467208694742
0.469179211435
0.471215203115
0.473239787366
0.475144065135
0.476634401159
0.476138175031
0.476374667253
0.476276435779
0.475988270217
0.475638857495
0.475282322076
0.474939809689
0.474620843539
0.474328952372
0.474065684703
0.473831258203
0.473626513926
0.473450992422
0.473304697182
0.473186615392
0.473095865995
0.473030800135
0.472989693433
0.47297011278
0.472970540785
0.472988387198
0.473022162827
0.473069405712
0.473129803929
0.473201794739
0.473286086565
0.473381610672
0.473489035852
0.473608317508
0.473740578474
0.473885735764
0.474044593249
0.474217511095
0.474405502599
0.474608073456
0.4748258123
0.475058314771
0.475305785027
0.475567685931
0.475844117546
0.476134135919
0.47643699309
0.476751295576
0.477075373723
0.477407115322
0.477743893419
0.478082524274
0.47841958716
0.478750672515
0.479070882159
0.47937285417
0.47965182204
0.479905127321
0.4801300863
0.480323052252
0.480480454421
0.480598725347
0.480672433219
0.480695884456
0.480667238776
0.480585245809
0.480447755801
0.480254978137
0.480010046615
0.47971225624
0.479360579803
0.478955808147
0.478498910094
0.477991325204
0.477434491753
0.47683065732
0.476182172959
0.475492485992
0.474765183038
0.474004329636
0.4732144763
0.472400611788
0.471567924422
0.470721855214
0.469866468194
0.469005083927
0.468141920316
0.467281732915
0.46642710407
0.465577206668
0.464738102162
0.463917101063
0.463104912962
0.462280520621
0.461461290542
0.460676194124
0.459890154158
0.459061342237
0.458217823362
0.457442716831
0.456740184491
0.456001615567
0.455408659346
0.454818843922
0.454193419056
0.453592407896
0.452858863597
0.452339237983
0.451775206094
0.45125637587
0.450761278771
0.450509250983
0.450342861711
0.450194714556
0.450009174911
0.449801996858
0.449589728926
0.44937558679
0.449161656256
0.448948151129
0.44873497829
0.448520810584
0.448303928577
0.448083801873
0.447863311718
0.447646435782
0.447435127418
0.447229544202
0.447028059814
0.446828809941
0.446630924707
0.446433775122
0.446237008337
0.44604023412
0.445843361272
0.445646360275
0.445449210359
0.445251840943
0.44505427875
0.444856367679
0.444657860029
0.444458121194
0.444256319131
0.444051805253
0.443845056889
0.443636510424
0.443425083013
0.443210431078
0.4429928235
0.442773107386
0.442551712549
0.442328263137
0.442101810904
0.441871179013
0.441635406771
0.441393441929
0.441144144546
0.440886361171
0.440619456942
0.440343613872
0.440059693929
0.43976968023
0.439476148155
0.439182632276
0.438892369277
0.438610295093
0.438341892369
0.438092498769
0.43786610977
0.437666387903
0.437496274213
0.437352082913
0.437241359631
0.437163131331
0.437115693918
0.437100598798
0.437125008112
0.43719927289
0.437328045868
0.437579927479
0.437863956563
0.438200324411
0.438579832946
0.438958055567
0.439356029703
0.475774794266
0.47584640961
0.475806281882
0.475682976397
0.475551195735
0.475441078418
0.475343648563
0.475251234155
0.475159004847
0.475066612305
0.474975066349
0.474886628474
0.474803552919
0.474728145576
0.474662087393
0.474606738013
0.474562692295
0.474530314707
0.474509219382
0.474498962422
0.474498616057
0.474508148396
0.474525981199
0.474552463063
0.474587152833
0.474630770508
0.474683063974
0.474745252926
0.474817686297
0.474901660841
0.474997656463
0.475107056496
0.475230138339
0.475367879585
0.475520541736
0.475688596333
0.475871557041
0.476069960453
0.476283234041
0.476511092841
0.476752647992
0.477006903499
0.477272355934
0.477547172042
0.477829101162
0.478115520259
0.478403270985
0.478688913827
0.478968560497
0.479238035565
0.479491336651
0.479722229171
0.479923925498
0.480092067228
0.480223271661
0.480314861697
0.480364600348
0.480372665068
0.48034002568
0.480265248022
0.480145755865
0.479979505279
0.479761720479
0.4794885851
0.479160314882
0.478775149891
0.47833152027
0.477829037486
0.477268964565
0.476653483447
0.475986157677
0.475271358006
0.474514226423
0.473720293676
0.47289528222
0.472045004988
0.471175138183
0.470291386603
0.469399217909
0.468503994413
0.467608604917
0.466716835935
0.465834058068
0.464964098031
0.464104279214
0.463254151282
0.462429006195
0.461632769413
0.460842354415
0.460048211853
0.459283793051
0.458576208204
0.457849466994
0.457126087402
0.456439932676
0.45578769621
0.455193480859
0.454752509922
0.454234899311
0.453525727617
0.452743927966
0.452204297986
0.45194560821
0.451665807927
0.451533206619
0.451365819402
0.451046501013
0.450562700453
0.450087775594
0.449669086776
0.449295878862
0.448956987676
0.448641856654
0.448344508067
0.448060759485
0.447787711762
0.447522530515
0.44726295426
0.447008310262
0.446760916405
0.446523230904
0.446295860543
0.446077481944
0.445865859914
0.445659880864
0.445458874247
0.445262443302
0.445070311682
0.444882252258
0.444697874712
0.44451659924
0.44433783282
0.444161153508
0.443986270531
0.443812827853
0.443640346677
0.443468201101
0.443296018605
0.443123785461
0.442952878522
0.442783591984
0.442615074394
0.44244612687
0.442276988302
0.442109039454
0.441943340601
0.441780313181
0.441619872058
0.441462045512
0.441306896821
0.441154526605
0.441004843045
0.440857907526
0.440713646673
0.440571779588
0.440431769033
0.440292879658
0.440153963396
0.440013868551
0.439870961099
0.439723617208
0.439570241775
0.439409260937
0.439238965497
0.439058152474
0.438865341116
0.438657938697
0.438435444951
0.43820091562
0.437957167358
0.437709181413
0.437467232986
0.437244289913
0.437066323395
0.436959983814
0.436943117619
0.437033192994
0.437232771361
0.437492353963
0.437661257
0.475316435277
0.475420763494
0.475660388084
0.475781805541
0.475840962909
0.475886665206
0.475912221615
0.475915070118
0.475895312764
0.475855539462
0.475799409837
0.475731545384
0.475655811886
0.475576060079
0.475495242877
0.475415971197
0.475340032097
0.475268835786
0.475202916104
0.47514330394
0.475089647789
0.475042273647
0.475001003057
0.474966474385
0.474938288032
0.474917822446
0.474905358897
0.474902177103
0.474909016402
0.474927479091
0.474958393799
0.475003061974
0.475062296964
0.475137423029
0.475228364642
0.475336055857
0.475460437643
0.475601669323
0.475759206168
0.475932809134
0.476121349851
0.47632362991
0.476537818043
0.476761707078
0.476992628507
0.477227461449
0.477462527463
0.477694065607
0.477917691464
0.478128688464
0.478322470257
0.478495546757
0.478642263547
0.478757794788
0.478837654176
0.478878086788
0.478875624794
0.478828573181
0.478738270686
0.478607389223
0.478436480552
0.478224337518
0.477967866823
0.477662640973
0.477303413949
0.47688685341
0.476411146901
0.475875465739
0.475280282876
0.474627548077
0.47392061558
0.473164378297
0.472365073441
0.471529289629
0.47066403545
0.469777223357
0.468875876154
0.467965311124
0.467052451733
0.46614394968
0.465242105739
0.464346456434
0.463465428478
0.462608836202
0.461769137041
0.460939282435
0.460134135391
0.459387621909
0.458654139455
0.457923496483
0.457229857889
0.45659027148
0.455992823127
0.455416278551
0.454890690729
0.454364819918
0.453777183789
0.453133707565
0.452386306027
0.45167748038
0.451197886851
0.451016969423
0.450893715365
0.450727806763
0.450583556424
0.450297520541
0.44981312766
0.449197678048
0.448600725694
0.448082686149
0.447638209472
0.447250718946
0.44690451928
0.446589109045
0.446297186801
0.446023459598
0.445763686619
0.445514577773
0.445275181447
0.445046623942
0.444830044549
0.444624466043
0.444426932499
0.444235225282
0.444048278592
0.443865563474
0.443686623147
0.44351099812
0.443338162928
0.443167603482
0.442998555217
0.442830496539
0.442663216723
0.442496365352
0.442329544002
0.44216218258
0.441993834129
0.441824535164
0.441655239419
0.441487530705
0.441321968279
0.441157068054
0.440990977492
0.440823686107
0.440656281886
0.440489661999
0.440324075028
0.440159346549
0.439995210784
0.439831370329
0.439667603788
0.439503687196
0.439339727439
0.439175824429
0.439012070518
0.438848587857
0.438685652418
0.438523772385
0.438363600959
0.438205851356
0.438050959894
0.437899428939
0.4377517183
0.43760769785
0.437466794878
0.437327660728
0.437186893841
0.437042187036
0.436891518002
0.436731614168
0.436560727293
0.436380710072
0.436195623297
0.436014453088
0.435856088599
0.435728003937
0.435642416408
0.435595905264
0.435531877247
0.435322952407
0.474793606503
0.475383537693
0.475999206955
0.476228955963
0.476307325187
0.476358493591
0.476388049732
0.476396164591
0.476380908234
0.476343844818
0.476286966619
0.476213595539
0.476126983272
0.476030816518
0.475928007794
0.475821566927
0.475713463084
0.475605920645
0.475500042435
0.475396931503
0.475297079434
0.475201683265
0.475110397006
0.475024399482
0.474944132538
0.474870639675
0.474804507531
0.474747395851
0.474700203827
0.474664550207
0.474641429593
0.474632569587
0.474638605716
0.474660717909
0.474699471534
0.474755630939
0.474828919254
0.474919938926
0.475028151076
0.475153237992
0.475294169123
0.475449850648
0.475618509245
0.475798127129
0.475986133189
0.47617973709
0.476375508635
0.476569850497
0.476758884691
0.476938140298
0.477101614438
0.477245095384
0.477363351176
0.477451322445
0.477505012674
0.477520955048
0.47749533185
0.477425625886
0.477311363955
0.477151081122
0.476943615252
0.476688502505
0.476384989718
0.476032448284
0.47562903374
0.475171650829
0.474657636508
0.474085190195
0.473454417202
0.472766670594
0.472025034736
0.471234192192
0.470401382807
0.469532769161
0.468635370811
0.467718052747
0.466789776058
0.465854221454
0.464915406562
0.463986417975
0.463073930544
0.462168387985
0.461276724045
0.460417863649
0.459580970052
0.458752561785
0.457953482379
0.457203660221
0.456511631753
0.45584254837
0.455179274217
0.454573659857
0.453986583726
0.453433625777
0.452860121163
0.452180173914
0.451443687185
0.450728213704
0.450116879971
0.449740586998
0.449609340192
0.449599234247
0.449518670648
0.449349583436
0.449105297761
0.448724330983
0.448225724765
0.447673782208
0.447146702416
0.446677698749
0.446268235836
0.445909113205
0.445588867597
0.445298339131
0.445030503436
0.444779996762
0.444542583843
0.444315414506
0.444097880574
0.443890889727
0.443694911808
0.443508109779
0.44332748189
0.443151291807
0.442979022424
0.44281060213
0.442645948042
0.442484868726
0.442327030022
0.44217204586
0.442019594474
0.441869353482
0.44172090138
0.441573851553
0.441427622398
0.441281517721
0.441135201149
0.440989130366
0.44084504459
0.440704546207
0.440568048154
0.440433146124
0.440297526415
0.440160717504
0.440023385259
0.439886315098
0.439749735505
0.439613556872
0.439477528899
0.439341364171
0.439204879541
0.439067926259
0.438930345075
0.438792036139
0.438652916477
0.43851303991
0.438372437847
0.438231133582
0.43808927983
0.437947058523
0.437804380086
0.437661191864
0.43751737716
0.437372456013
0.437225963779
0.437076945092
0.436923151857
0.436763485368
0.436597534571
0.436423715069
0.436242534966
0.436057017158
0.435870424624
0.435689453834
0.435524868904
0.435379456843
0.435251784589
0.435123225935
0.434927451505
0.434553079824
0.474314066273
0.475946422274
0.476789133701
0.476819304081
0.476732051652
0.47669088461
0.476670372561
0.47665173745
0.476621512793
0.476574350598
0.476508270412
0.47642521504
0.476327010245
0.476217001323
0.476097559864
0.475971727603
0.475841422435
0.475708891001
0.475575243399
0.475442419439
0.475310733346
0.475181297183
0.475054772934
0.47493224695
0.474813926004
0.474701535263
0.47459585753
0.474498461799
0.47441047063
0.474333682365
0.474269256676
0.47421870475
0.474183040883
0.474163683228
0.474160781678
0.474175319668
0.474207321447
0.474256973592
0.474323667199
0.47440709752
0.4745059687
0.474619082207
0.474744448391
0.474879966041
0.47502296034
0.475170663948
0.475319672375
0.475466764094
0.475608130201
0.475739380899
0.475854692895
0.475949851064
0.476019099587
0.476057168912
0.476059308539
0.476021278299
0.475939175204
0.475813547503
0.475645748117
0.475436536694
0.475185698347
0.474892898704
0.47455646397
0.474175175769
0.473744600396
0.473261114424
0.472720974518
0.472121673636
0.471463159718
0.470747915919
0.469977988303
0.4691589186
0.468299407574
0.467407856321
0.466488251773
0.46555039532
0.464608034595
0.463666747311
0.462722918985
0.461786147858
0.460881294423
0.459973635501
0.459080465167
0.458216006059
0.457392604117
0.456615458662
0.455863141942
0.455142653155
0.454454087294
0.453779058386
0.453158917832
0.45254909465
0.451873323197
0.451190018652
0.450492474444
0.449812998117
0.449217260262
0.44874757554
0.448425441117
0.44828374277
0.448253812203
0.448211780627
0.44807234959
0.447843751925
0.44753230565
0.447133638055
0.446679870107
0.446210638264
0.445762259269
0.445351218879
0.444981304979
0.444649448897
0.4443496625
0.444075999426
0.443823285802
0.443587193604
0.443364170355
0.443152181041
0.442950886045
0.442761087822
0.442582612253
0.442413002361
0.442249534288
0.442090681254
0.441936034238
0.44178555072
0.441639192753
0.441496761944
0.441357908887
0.441222165987
0.441089005196
0.440957711259
0.440827695575
0.44069839482
0.440569105859
0.44043911533
0.440308288012
0.440177746728
0.440049560217
0.439925756482
0.439806260661
0.439688536766
0.439570296527
0.43945084545
0.43933071683
0.439210522929
0.439090537482
0.438970738663
0.438850969129
0.438731215482
0.438611384971
0.438491401949
0.438371181287
0.438250568151
0.438129478525
0.438007810892
0.437885515196
0.437762524964
0.437638866173
0.437514526461
0.437389281438
0.437262935757
0.43713513762
0.437005194161
0.436872258381
0.436735138816
0.436591644587
0.436440579024
0.436281243714
0.436112042056
0.435933654136
0.435748869055
0.435560106857
0.435372255582
0.43519389216
0.435025444435
0.434861674608
0.434679612584
0.434416176858
0.433985330394
0.474036499023
0.477152174922
0.477800967916
0.477319433062
0.477009579198
0.476870927309
0.476797657189
0.476742018553
0.476678926094
0.476601308188
0.476505830419
0.47639407054
0.476267296333
0.47612870147
0.475980129684
0.475824570786
0.475663504507
0.475499432404
0.475333342686
0.475166694984
0.475000264129
0.474835602175
0.474672727757
0.474513137134
0.474357557535
0.474207189353
0.474062886152
0.473926430017
0.473798858232
0.473681902508
0.473576676245
0.473484935728
0.473407420424
0.4733453111
0.47329922191
0.473269848043
0.473256943573
0.473260940292
0.473281129196
0.473317013198
0.473367292337
0.47343075426
0.47350544253
0.473589439514
0.473680306217
0.473775834972
0.473873146477
0.473969649966
0.47406258863
0.474148609866
0.47422117154
0.474276705321
0.474308780887
0.474310053802
0.474273977921
0.474194508457
0.474068284091
0.473898413887
0.473686532318
0.473434440827
0.473143087777
0.472814715659
0.472448731594
0.472042940664
0.471589937875
0.47108563162
0.470524478914
0.469902163755
0.469219019216
0.468479086892
0.467685419477
0.466840774517
0.465957828505
0.46505055676
0.464121834241
0.463177481308
0.462232425834
0.461292489243
0.460348161469
0.459416716022
0.458507094168
0.457633763792
0.456800893285
0.455983407381
0.455192108671
0.454439046445
0.453726329593
0.453053911328
0.452384899121
0.451694718772
0.451025536016
0.450343119088
0.449657172698
0.449012270174
0.448412013073
0.447901797583
0.447507428256
0.447234570712
0.447061475233
0.446974211034
0.446900137823
0.446769745206
0.446560761952
0.446288317683
0.44596098431
0.445588769632
0.445193151138
0.444794863922
0.444411582174
0.44405289739
0.443722971059
0.443421722274
0.443146654811
0.442894322712
0.442661179936
0.442443754344
0.442239253807
0.442046097582
0.441864180554
0.441693944383
0.44153455165
0.441383559837
0.44123845239
0.44109787405
0.440961362548
0.440828827715
0.440700171223
0.440575177795
0.440453468584
0.44033454376
0.440217866863
0.440102936063
0.439989302871
0.439876360752
0.439763343886
0.439649533242
0.439535038017
0.439421374909
0.439310872932
0.439205496232
0.439104642409
0.439005809162
0.438906712096
0.438806663583
0.438706012637
0.438605152983
0.438504218873
0.438403061901
0.438301639463
0.43819985327
0.438097682268
0.43799505351
0.43789189847
0.437788161317
0.437683738756
0.437578502875
0.437472376729
0.437365278768
0.437257197159
0.437148024799
0.437037469599
0.436925219873
0.43681086562
0.436693543537
0.436572261991
0.436445779369
0.436312047421
0.43616984528
0.436018371948
0.435856117551
0.435683582912
0.435503139741
0.435316195711
0.435125848747
0.434937984382
0.434750913098
0.43455641431
0.43432966934
0.434014491651
0.433547249725
0.47407277609
0.478824116181
0.478722817797
0.477596741601
0.47715127681
0.476947740805
0.476820700882
0.476710011967
0.476591794306
0.476461368541
0.476315599454
0.476157044085
0.475986008771
0.475805595335
0.475616769784
0.475422312024
0.475223202688
0.475021632944
0.474818178698
0.47461480463
0.474411730045
0.474210325636
0.474011259853
0.473815621071
0.473623645447
0.473437027395
0.473256412621
0.473083260674
0.472918537936
0.472763885835
0.472620254531
0.472488975738
0.47237088353
0.47226713035
0.472177792701
0.472103643055
0.472044564969
0.472000552225
0.47197089249
0.471955137088
0.471951907012
0.471960072581
0.471977870247
0.472003715608
0.472035780836
0.472072580399
0.472112554904
0.472154415043
0.472196675281
0.472237597115
0.472271910428
0.472293443149
0.472294071991
0.472262065172
0.472185608089
0.472054339733
0.471867784786
0.471632671011
0.471353201353
0.47103450419
0.470683572952
0.470307967912
0.469912829023
0.469488278455
0.469025653743
0.468517027652
0.467954591384
0.467329416829
0.466638209806
0.465889109153
0.465089703533
0.464239249699
0.463348047871
0.462442482327
0.461507995567
0.460558491382
0.459616458217
0.458689562481
0.457789335205
0.456920634647
0.456062550783
0.455227406903
0.454427522669
0.45366303021
0.452938014898
0.452248451348
0.451572696649
0.450891098926
0.450200764362
0.44951673215
0.448869727797
0.448237771414
0.447657363101
0.44714090918
0.44668986831
0.446326122522
0.446052330877
0.445861353435
0.44572339999
0.445609714527
0.445468624905
0.445274543872
0.44503088785
0.444750859104
0.444441960454
0.444112142096
0.443772343516
0.44343317579
0.443104375428
0.442792534917
0.442501489472
0.442232411203
0.441984591162
0.441756217921
0.441544856048
0.441347832546
0.441163007266
0.440989262355
0.440826629797
0.440675304977
0.440534166943
0.440400941715
0.440273480493
0.440150545292
0.440031621607
0.439916551595
0.439805211296
0.439697399997
0.439592774766
0.439490894109
0.439391268834
0.439293429642
0.439196825888
0.43910077344
0.43900437331
0.438906982512
0.438809006536
0.438712195314
0.438619039156
0.438531068264
0.438447440797
0.438365771795
0.438284021717
0.438201574954
0.438118611569
0.438035392702
0.437951884584
0.437867981684
0.43778357264
0.437698612886
0.437613121834
0.437527064412
0.437440399917
0.437353039419
0.437264866456
0.437175726157
0.437085495019