/*--------------------------------*- C++ -*----------------------------------*\
| =========                 |                                                 |
| \\      /  F ield         | OpenFOAM: The Open Source CFD Toolbox           |
|  \\    /   O peration     | Version:  v1806                                 |
|   \\  /    A nd           | Web:      www.OpenFOAM.com                      |
|    \\/     M anipulation  |                                                 |
\*---------------------------------------------------------------------------*/
FoamFile
{
    version     2.0;
    format      ascii;
    class       volScalarField;
    location    "13";
    object      pa;
}
// * * * * * * * * * * * * * * * * * * * * * * * * * * * * * * * * * * * * * //

dimensions      [0 2 -2 0 0 0 0];


internalField   nonuniform List<scalar> 
12225
(
2.07911510478
0.213136997657
0.759203645799
0.65477095168
1.0188566572
1.47052488459
2.19990121343
3.13456046075
4.18175069637
5.0716482242
5.53820653811
5.37416562937
4.59165826256
3.90269083009
5.39018146451
12.2144205469
24.3825811491
27.7467318834
16.3299527876
10.0848128727
10.2012179134
10.3928948488
11.0468249028
11.8825975579
12.9542604433
14.1563766836
15.3568254566
16.3419425317
16.9652947893
17.1615465968
17.1044137663
17.6832489764
20.7514479766
28.1517815177
37.1000120102
33.3897404055
-2.54850115282
4.97657980055
5.26065479167
5.08235771353
5.41638676617
5.85413813965
6.49271743831
7.18117296079
7.78873900397
8.12125996792
8.06979381621
7.6374860821
7.1329773658
7.51789636465
10.4601701418
17.0497863103
24.0505265923
21.9101572665
19.2444616539
8.89967449731
8.18485798949
8.47458106787
8.91430850772
9.52706476155
10.2870807132
11.0701143683
11.727236985
12.0686762211
11.9647052236
11.4017888995
10.6820798454
10.6192017852
12.386088775
16.2386733743
19.2419513878
16.3445439392
0.670700046176
5.68588452661
6.16206705891
6.23703336581
6.64465716476
7.19036615977
7.90636038421
8.68567581701
9.4120629443
9.94289865361
10.1810169001
10.137663771
10.0918674306
10.6551314588
12.4561787112
15.0961608501
16.2059586971
13.4625246016
9.23512521229
6.90705493822
7.29578517155
7.35449641594
7.64448980798
8.01173624227
8.49177560232
8.99444485695
9.43450744364
9.71852304283
9.80258697333
9.75027362953
9.83308321655
10.4943280995
11.9807237197
13.6396419732
13.8152580987
11.5823556914
6.18964359475
6.60899159904
7.0968840576
7.28923234654
7.61126365605
7.9883573368
8.43086805021
8.86673347215
9.22564479446
9.44357612758
9.50863469623
9.5089693837
9.67727996345
10.2956211515
11.3721326882
12.2709952999
11.9783162641
10.2139280351
6.68366744679
6.71465377097
7.20712476676
7.41750363892
7.70848973579
8.0310974994
8.3928415305
8.73749573691
9.01108272781
9.17265371646
9.23076881362
9.27581669848
9.48164404745
9.99196466351
10.6898297603
11.0684264597
10.567090222
9.1613104148
6.66658233855
6.8627017248
7.2939908213
7.53109789882
7.7945684007
8.07060090432
8.36035658908
8.62418244319
8.82371657177
8.93702045104
8.9854163856
9.04853925853
9.240784292
9.60826397215
9.99415866792
10.0415531969
9.46701197703
8.32444152556
6.73419108357
7.01926356191
7.38769221952
7.62951935321
7.86351837585
8.09517329869
8.32155604933
8.51636210477
8.65452101925
8.72777657997
8.76209539496
8.8191866998
8.96297729829
9.18251036697
9.33062570471
9.17773524389
8.59384039441
7.64544223338
6.81948049509
7.17378008233
7.47326642667
7.70392459309
7.90645306605
8.09704374502
8.2690920101
8.40665909566
8.49502064441
8.53459671385
8.54975807464
8.58254761219
8.66018103754
8.74607176352
8.72326291994
8.45460078763
7.88935236782
7.08622359173
6.91666691119
7.29649849974
7.52221166041
7.73216001628
7.90453275593
8.06070845856
8.19091949713
8.28593357302
8.33788212835
8.35083846265
8.34453397946
8.34506238931
8.35915574788
8.34431263228
8.21554583193
7.89038675712
7.35407677978
6.65479757407
7.01427399109
7.390597902
7.54492721896
7.7283672749
7.87160372331
7.9966090007
8.0917537317
8.15189074085
8.17385306845
8.16280333038
8.13330594878
8.0995280121
8.05504535578
7.96312852618
7.76241136211
7.40905757711
6.90458464357
6.2904899165
7.11613401741
7.46219185643
7.5527103739
7.69981150555
7.80942964415
7.89984950139
7.95908475134
7.98468855196
7.97621029135
7.938570443
7.88107379968
7.80893664846
7.71112123236
7.55675738368
7.30861618441
6.94401259522
6.47773448337
5.94089171528
7.208976529
7.5081666904
7.5506514873
7.65487430944
7.7276903497
7.77885820707
7.80037736499
7.78927243121
7.74826282815
7.67929282816
7.59045386182
7.4791819035
7.3367202725
7.13909387454
6.86563342279
6.5071768806
6.08259660107
5.61814378805
7.2697644203
7.51690959908
7.52738692649
7.59063692257
7.62755999397
7.64018497709
7.62430648124
7.57768676457
7.50262743208
7.40315876626
7.28084217159
7.13695321828
6.95990416293
6.73850943834
6.45735841019
6.11900878212
5.73819336489
5.33994625613
7.27029930248
7.46551898742
7.4599129117
7.48613960385
7.49121172701
7.46888161753
7.42000005504
7.3413599176
7.23717697669
7.10923750969
6.96109461457
6.79120905542
6.594735912
6.36267213405
6.0893187119
5.77676661988
5.44175140056
5.10101272151
7.26012107537
7.38076614556
7.35986736031
7.35182585057
7.32964263256
7.27738637522
7.2014633981
7.09738037243
6.97066113852
6.82255975499
6.65686342919
6.47276429713
6.26846329142
6.03831315672
5.78008714957
5.49685402487
5.20358868754
4.91335399979
7.24365353237
7.28944981667
7.25443205219
7.21692716311
7.17249393278
7.09702848967
7.00125989598
6.87912627491
6.73786447568
6.57779537193
6.40386867119
6.21530624788
6.01284433063
5.79200426382
5.55265391593
5.29752044446
5.04016339339
4.79152827023
7.16792845003
7.21680219409
7.16756354238
7.1175456827
7.06186741
6.97275839411
6.86726993359
6.73385154819
6.58719246578
6.4209056582
6.24603068414
6.05767622543
5.86106506771
5.64930798432
5.42530267369
5.18879600187
4.95498957273
4.73013140377
7.32848843664
7.32674551086
7.26811028954
7.2155569945
7.15170697775
7.05999951415
6.94682619657
6.8137119892
6.6624387012
6.49903518071
6.32352030937
6.14082737039
5.94878361663
5.74777425797
5.53442996902
5.31460534867
5.09654505992
4.89569188557
6.52751140891
6.93561582034
6.88983939627
6.85062514727
6.77492641351
6.6723125302
6.54740137574
6.40375859106
6.24669292605
6.07716177162
5.89951244094
5.71591367462
5.52736034495
5.33169952345
5.12818728636
4.91800290378
4.71091808716
4.50136227421
9.30919737356
8.31969955884
8.22903728467
8.19541615645
8.13624256014
8.04515889821
7.93510513995
7.80554687009
7.66196546118
7.50580997063
7.34030908649
7.16706114624
6.98817894082
6.80259957844
6.60776067455
6.40744552336
6.21043778234
6.06359674582
1.28985120581
5.26868939279
5.49301523958
5.48063385549
5.36296193507
5.23067548701
5.07670157633
4.9131810311
4.74143211549
4.56305185457
4.38139224893
4.19950730933
4.01682081513
3.83279444882
3.64688530512
3.46015266487
3.27578331365
3.01673358362
19.2186076124
10.7572509526
10.1450905398
10.1001550306
10.0241923237
9.91337054613
9.7933019454
9.66331707311
9.5268466412
9.38292084165
9.23055345715
9.07007020212
8.90400067672
8.73148368572
8.55377509991
8.37222193768
8.19413325876
8.15021510494
-13.8788228125
3.7806834688
5.36627541801
5.29900830091
5.18877969947
5.08043465531
4.95465930471
4.82218452447
4.67599873015
4.51210609412
4.32524138665
4.11303760897
3.87702620432
3.62414204462
3.36416329942
3.11350296958
2.89523580469
2.56113981435
35.0895048255
12.7870248824
9.88602981112
10.108474582
9.88734231247
9.72291969959
9.54056595719
9.3628317655
9.18896198473
9.01801688694
8.85031484885
8.68946934971
8.54372546621
8.42347251188
8.34247913948
8.30127613827
8.26732871738
8.33945450962
-17.6187839314
3.33910272698
5.08727512303
4.82853088416
4.68872856669
4.52053560883
4.36996172259
4.21002905363
4.04896857004
3.88489781257
3.71722381825
3.55108983359
3.38867176193
3.22927686603
3.07324428694
2.91490047902
2.74158681479
2.36915053727
22.6707917526
13.0852591889
13.168853973
12.9965391431
12.8306644441
12.6478856581
12.466901872
12.2894829609
12.1135406457
11.9397115865
11.7639423207
11.5837296824
11.3912483914
11.171726407
10.9128660806
10.6051772606
10.2149898945
9.93583365752
-1.52437568352
-0.541886175954
-0.917730579202
-0.739129561332
-0.779897056667
-0.777251705342
-0.803094647454
-0.823608421177
-0.840185264478
-0.846963433274
-0.843260040364
-0.831685798405
-0.820491611633
-0.827472719976
-0.867592937457
-0.916799712567
-0.873378115273
-0.746714155344
-2.28040572572
-2.28608211015
-2.30435921275
-2.32656241324
-2.34196440917
-2.35071221292
-2.3526185489
-2.34264853712
-2.31755790328
-2.28080455125
-2.23665600971
-2.1915775858
-2.148424426
-2.11077613121
-2.07815732944
-2.05134507313
-2.02812984392
-2.00793620156
-1.98845354319
-1.96874077914
-1.94703345969
-1.92244472837
-1.89399815769
-1.86094080991
-1.82304853666
-1.77989986659
-1.7317303933
-1.67849510893
-1.62088151946
-1.55931025061
-1.49458807862
-1.42751550333
-1.35886721852
-1.28965839409
-1.22041656451
-1.15230879169
-1.08549814747
-1.02102029897
-0.958916491989
-0.900060939531
-0.844273647118
-0.792260614784
-0.743770425585
-0.699335986375
-0.658693695705
-0.622208390646
-0.589574372501
-0.561020314165
-0.536107857239
-0.515094994862
-0.497439159252
-0.483392122318
-0.472353202239
-0.464673247196
-0.459844011581
-0.458398839839
-0.460027678276
-0.465044087705
-0.473335702552
-0.484888209213
-0.499682648374
-0.517098471065
-0.536510910206
-0.555024433703
-0.568260217004
-0.575839797947
-0.579494692854
-0.580957453681
-0.581193716246
-0.581844421884
-0.58288768522
-0.58594950537
-0.590323106396
-0.597661018627
-0.606858879938
-0.619279396536
-0.633780154769
-0.651432476791
-0.671531718882
-0.695090348292
-0.721654645336
-0.75191564422
-0.785652405227
-0.823042707823
-0.864261650359
-0.908767193935
-0.95678081363
-1.00759328987
-1.06081301786
-1.11830174605
-1.18056339659
-1.25257504037
-1.33839536963
-1.44065026907
-1.55823130848
-1.68877612798
-1.82821640672
-1.9714966853
-2.10813561669
-2.22984913252
-2.33779917494
-2.44240372986
-2.550835116
-2.66089189377
-2.79221988953
-2.94375809462
-3.1183044922
-3.30953062708
-3.49775151506
-3.66747818276
-3.81551443023
-3.94686585768
-4.0634711021
-4.16712048443
-4.25924334152
-4.34128102016
-4.41430101124
-4.47950199717
-4.53785843924
-4.59058922505
-4.63863405656
-4.68284569669
-4.7236844484
-4.76172601653
-4.79743661955
-4.83157214272
-4.86458608039
-4.89692195219
-4.92849166279
-4.95911290001
-4.98832371716
-5.01595542188
-5.04166990996
-5.06539364968
-5.08709250371
-5.10680470493
-5.1245147541
-5.1402285667
-5.15387377576
-5.16546320788
-5.17509096242
-5.18327594986
-5.19030151781
-5.1966307407
-5.20227441699
-5.20749507094
-5.21223929353
-5.21672482289
-5.22079193732
-5.22452629452
-5.22766828717
-5.2302390545
-5.23194192048
-5.23277649612
-5.23245279412
-5.23096647811
-5.22809307504
-5.22385096992
-5.21806656649
-5.21061317102
-5.20117352832
-5.18968604651
-5.17617113812
-5.16069338748
-5.14358701325
-5.12548417346
-5.10741121796
-5.09044012398
-5.07553795559
-5.06258808377
-5.05042189908
-5.03538048028
-5.01186227066
-4.97196175989
-4.91030679213
-4.82285533954
-4.71247111853
-4.5887920564
-4.46458583508
-4.34367101892
-2.26153892692
-2.27714163166
-2.30023249394
-2.34171535876
-2.39197679269
-2.43239356002
-2.4499995209
-2.44407341334
-2.42000979033
-2.38612945756
-2.34808515595
-2.31084116617
-2.27589438888
-2.24493423839
-2.21728552445
-2.19329973865
-2.17183893289
-2.15286768634
-2.13546441552
-2.11948608628
-2.10442822848
-2.09002233223
-2.07610312058
-2.06245839637
-2.04920614122
-2.03618372416
-2.02378582691
-2.01203765233
-2.00151512278
-1.99255134051
-1.98581180784
-1.98188369435
-1.98135085779
-1.98505300059
-1.993447631
-2.00732806872
-2.02699026406
-2.05319528278
-2.08602754289
-2.12612162211
-2.17343728512
-2.22838599197
-2.29080336788
-2.36088298064
-2.43834664618
-2.52317201414
-2.61491787937
-2.71335236009
-2.81785838194
-2.92803932338
-3.04311387007
-3.16274374823
-3.28616920308
-3.41311188881
-3.54278620161
-3.67476582595
-3.80818336666
-3.94249050393
-4.0768018551
-4.21051948037
-4.34302396655
-4.4739868824
-4.60422746808
-4.73749801384
-4.8775179223
-5.01946078875
-5.15911869168
-5.2938514292
-5.42137630412
-5.54049297454
-5.64985090082
-5.7493605052
-5.83849404147
-5.91791684973
-5.9877277129
-6.04881194503
-6.10143652189
-6.14632358526
-6.18367543459
-6.21365201551
-6.23584991084
-6.24949905855
-6.25353099194
-6.24641652994
-6.22685463513
-6.19307547638
-6.14402960691
-6.07827519872
-5.99562799219
-5.8959122411
-5.78266960522
-5.65881365038
-5.52872958082
-5.39650689985
-5.26479656329
-5.13152288957
-4.99421326073
-4.85082857717
-4.69650631616
-4.52554930906
-4.34601261735
-4.16737076346
-3.98487180052
-3.7871941456
-3.61074709047
-3.49828075224
-3.42068409138
-3.33904593028
-3.28910386425
-3.30151102393
-3.32528569498
-3.35453136414
-3.38620395808
-3.41897381199
-3.45226264816
-3.48569450216
-3.51910964533
-3.55237743439
-3.58559132282
-3.6189987514
-3.65283309852
-3.68711101634
-3.72161846496
-3.75611035655
-3.79042428087
-3.82442075005
-3.85783589306
-3.89034773255
-3.92151336929
-3.95101703569
-3.97893360256
-4.00534670654
-4.03076408971
-4.05575802653
-4.08042822291
-4.10489564198
-4.12924463026
-4.15358586915
-4.17795217587
-4.20239775357
-4.22718261368
-4.25277831483
-4.27954354941
-4.30771081468
-4.33722220757
-4.36802623723
-4.39989578488
-4.43262829416
-4.46591566961
-4.49955326475
-4.53316431956
-4.56646207132
-4.59898935005
-4.63040486325
-4.66022864743
-4.68817460797
-4.71388637831
-4.73714805776
-4.75756546021
-4.77491458656
-4.78898499123
-4.7997032022
-4.80696606898
-4.81091196837
-4.81171814077
-4.80962745938
-4.80508348799
-4.79832227614
-4.78935257631
-4.77738748965
-4.76081773289
-4.73594291415
-4.69806554196
-4.64307608868
-4.56898939899
-4.47720710689
-4.37620490381
-4.27790123197
-4.18573097275
-4.05294196311
-2.20399662025
-2.24858197772
-2.34472154142
-2.4722254798
-2.59220944484
-2.67576515104
-2.71371575078
-2.7160163051
-2.69785957538
-2.67288871737
-2.6484153032
-2.62844848154
-2.61311257996
-2.60256248885
-2.59528650066
-2.59097422437
-2.58829018157
-2.58701263978
-2.58616862009
-2.58550047441
-2.58422864694
-2.58202314885
-2.57831368632
-2.57263173831
-2.56467338418
-2.55404780758
-2.54065380096
-2.52428082861
-2.50511991674
-2.48323585503
-2.45901006393
-2.43279732683
-2.40512862281
-2.37652327088
-2.34748069318
-2.31871847553
-2.29059544656
-2.26379692196
-2.23866096107
-2.21579316841
-2.19538516308
-2.17791031095
-2.16344016737
-2.15225905211
-2.1443171277
-2.13969605288
-2.13820961888
-2.13974951674
-2.14394737975
-2.15061835263
-2.15932225105
-2.16973879893
-2.18149893389
-2.19444144758
-2.20822030966
-2.22258736997
-2.23721156974
-2.25184848155
-2.2663498758
-2.28048156252
-2.29422014668
-2.3073238437
-2.31895594623
-2.32614630608
-2.33201897023
-2.34149007808
-2.35586040527
-2.37560939892
-2.40087686709
-2.43209175436
-2.46905385563
-2.51178492813
-2.55960854451
-2.61219708378
-2.66866193494
-2.72854255452
-2.79113735948
-2.85621737458
-2.92358155652
-2.99327755705
-3.06535831905
-3.13974178013
-3.21626824785
-3.29429379103
-3.37298744756
-3.450831373
-3.52625865844
-3.59739758807
-3.66197851432
-3.72050610224
-3.77422561039
-3.82528687699
-3.87532812212
-3.9262038039
-3.97950973988
-4.03195555663
-4.07926994018
-4.12167415181
-4.15445849135
-4.16893079269
-4.16660650116
-4.14114482141
-4.07354531264
-3.98501826936
-3.93051548696
-3.8988238965
-3.8052695862
-3.66139087927
-3.55953902294
-3.55063709356
-3.58587343962
-3.64004523249
-3.69968799529
-3.75841049383
-3.81327930013
-3.86303918365
-3.90738964904
-3.94642621794
-3.98072770143
-4.0110458327
-4.03825209116
-4.06292168931
-4.08548494541
-4.10614489818
-4.12518271801
-4.14273472633
-4.15912286227
-4.17457430458
-4.18960877457
-4.20468153307
-4.22014572875
-4.2360104855
-4.25245996533
-4.26913893414
-4.28609516573
-4.30337498398
-4.32104170167
-4.33901631389
-4.35719522058
-4.37549119037
-4.39414015266
-4.41347990355
-4.43397754816
-4.45576865404
-4.47893748541
-4.5031573439
-4.52818632053
-4.55366657887
-4.57952157488
-4.6055510425
-4.63164730601
-4.65750952338
-4.68301814673
-4.70788986439
-4.73197241866
-4.75502273712
-4.77704320032
-4.79786462764
-4.81739566136
-4.83538090273
-4.85194291642
-4.86683371842
-4.88001046176
-4.89135089466
-4.90105069063
-4.90912038076
-4.91602723163
-4.9216609202
-4.92577739533
-4.92680092169
-4.92172409083
-4.90500531104
-4.87017034477
-4.81208532385
-4.72694251278
-4.61692382871
-4.49419494231
-4.37775434232
-4.27453183883
-4.14022348919
-2.15588166573
-2.35377905291
-2.55441173247
-2.72155979062
-2.85338395143
-2.93392526646
-2.95951732297
-2.94626275153
-2.91414960783
-2.87822323717
-2.84551384208
-2.81902664557
-2.79835508893
-2.78312362042
-2.77184913289
-2.76410294913
-2.75873932049
-2.75559065604
-2.75379478583
-2.75324881825
-2.75331752546
-2.75379108248
-2.75415727018
-2.7542301902
-2.75364524671
-2.75219859371
-2.74981855161
-2.74640331981
-2.74211169591
-2.73702164463
-2.73153404795
-2.72590143671
-2.72057912685
-2.71603379261
-2.71274003155
-2.71114793856
-2.71170277935
-2.71493575459
-2.72109935051
-2.73071356586
-2.74393141008
-2.76116729853
-2.78243580806
-2.80801414642
-2.83777102436
-2.87183190409
-2.90990114332
-2.95196410487
-2.9976257165
-3.04673448566
-3.09882725095
-3.15381540241
-3.21120295697
-3.27088444024
-3.33259017213
-3.3962229483
-3.46154644383
-3.52846183376
-3.59685921261
-3.66655299604
-3.73721206927
-3.80833406884
-3.87954843193
-3.95072929846
-4.01568075253
-4.07227707997
-4.12069500521
-4.16147630365
-4.19516241453
-4.22262111659
-4.24466470538
-4.26235123789
-4.27640040151
-4.28755924356
-4.29611713221
-4.30226020792
-4.30581494178
-4.30651305237
-4.3039211825
-4.29753665694
-4.28685436009
-4.27128027776
-4.25038443033
-4.22365088991
-4.19076774089
-4.15133888374
-4.10538912644
-4.05305503544
-3.9952750333
-3.93467556345
-3.87572128776
-3.82284785483
-3.77860075961
-3.74462595688
-3.72413088035
-3.71843403142
-3.7271686544
-3.75325999483
-3.78914228068
-3.82491564954
-3.85793721111
-3.88212274666
-3.90513358415
-3.97195229872
-4.07989667462
-4.12110231862
-4.0261865179
-3.87126836597
-3.75059183385
-3.69819656623
-3.68631009807
-3.69470680072
-3.71148107333
-3.73103991358
-3.75099511452
-3.770623625
-3.78985796825
-3.80894655435
-3.8283562553
-3.84863215667
-3.8702409193
-3.89331488463
-3.91771745947
-3.94313429516
-3.96922050639
-3.99555954441
-4.02181210051
-4.04771150742
-4.07317190755
-4.09806631496
-4.12211359364
-4.14569252157
-4.16899388511
-4.19217665532
-4.21535700545
-4.23856953209
-4.261804871
-4.28489979247
-4.30762858014
-4.32986556134
-4.35176958354
-4.37379370741
-4.39653549333
-4.42044141485
-4.44571081344
-4.47220805582
-4.49971447591
-4.52798863877
-4.55680815805
-4.58588096208
-4.61495671277
-4.64370656271
-4.67186488814
-4.69917686693
-4.72552516619
-4.75064366457
-4.77432530376
-4.79643312429
-4.81690853411
-4.83566987919
-4.85266918326
-4.86771250298
-4.88065478744
-4.89127154937
-4.89960128205
-4.90572082653
-4.91011389145
-4.91302374027
-4.91437850891
-4.91269191255
-4.90453123775
-4.88413683157
-4.84487380091
-4.78074363853
-4.68732146222
-4.56549465086
-4.4265659058
-4.28844262134
-4.15476733994
-3.99699880502
-2.21127788468
-2.66876016614
-2.88974251679
-2.99034699399
-3.07287186705
-3.12427565295
-3.13274492257
-3.11148355439
-3.07761344733
-3.04250984982
-3.01084560273
-2.98415676509
-2.96198428853
-2.94398195058
-2.92919412453
-2.91737260483
-2.90776493586
-2.90029916505
-2.89439402485
-2.89001541072
-2.88658743211
-2.88408429017
-2.88199999589
-2.88016930122
-2.87822347431
-2.87600111354
-2.87323850588
-2.86980347068
-2.86567051791
-2.86078587965
-2.85530376449
-2.84928028784
-2.84306056467
-2.83672669327
-2.83063354863
-2.82503525127
-2.8201836568
-2.81634300173
-2.8137523055
-2.81269215287
-2.81326489275
-2.81573646708
-2.82008377033
-2.82649335239
-2.83480611096
-2.84509711221
-2.85708061684
-2.8707193381
-2.88558082313
-2.901594156
-2.91830457388
-2.9355172504
-2.95287802962
-2.97028667137
-2.98746530941
-3.00437350476
-3.02084167784
-3.03676828336
-3.05198842383
-3.06637738389
-3.07992843018
-3.09278952602
-3.1054280358
-3.12000236588
-3.14068984062
-3.16813621723
-3.20157213522
-3.23989611321
-3.28178373911
-3.32609945655
-3.37174857674
-3.41810503671
-3.46469879217
-3.51156195823
-3.5588612106
-3.60715183605
-3.65700296277
-3.70915102232
-3.76416282502
-3.82237136754
-3.88364688452
-3.94715110676
-4.01130896236
-4.07355076284
-4.13051002099
-4.17805146746
-4.21212242513
-4.22895819624
-4.22618863202
-4.20356837125
-4.16438455256
-4.10928074881
-4.04258475886
-3.96980214525
-3.89914893275
-3.83605186711
-3.78656140833
-3.75943498993
-3.75468139161
-3.77458288203
-3.82827463764
-3.91188990025
-4.03214178514
-4.18648665568
-4.29901399512
-4.28693295517
-4.16542721306
-4.01706596034
-3.89970021801
-3.83148710038
-3.80053622743
-3.79461817
-3.80442282682
-3.82393786493
-3.84936663702
-3.87832555471
-3.90911884119
-3.94068880897
-3.97230512323
-4.00369937018
-4.03456936781
-4.06465218245
-4.09348739698
-4.12080683573
-4.14627218895
-4.1697900566
-4.19124739102
-4.21082714292
-4.22870892732
-4.24544376538
-4.26189511081
-4.27854842655
-4.29520699055
-4.31203940047
-4.32912890055
-4.34656137691
-4.36424350017
-4.38200657516
-4.3995214196
-4.41657538218
-4.43315621816
-4.44971863048
-4.46668235012
-4.48446612455
-4.50314012099
-4.52283867203
-4.54344067131
-4.56491350863
-4.58698925716
-4.60952292078
-4.63218963113
-4.6548228517
-4.67702774309
-4.69863109539
-4.71946461839
-4.73948505161
-4.75842810191
-4.77613427219
-4.79241373689
-4.80731777992
-4.82065765831
-4.83238889706
-4.84235121794
-4.85054752454
-4.85698687956
-4.86186297315
-4.86552016866
-4.8684131142
-4.87051378421
-4.87050597653
-4.86515699794
-4.8495043987
-4.81769954322
-4.76399318602
-4.68383014723
-4.57736619685
-4.4525854025
-4.32135127337
-4.18203983384
-4.02010804592
-2.38908190801
-3.16465997259
-3.271409683
-3.217696385
-3.23141093565
-3.25520743697
-3.25465979689
-3.23522400834
-3.20829827132
-3.18043569549
-3.15397556331
-3.12967923443
-3.10752662872
-3.08756840664
-3.06957512183
-3.05362773602
-3.03949875164
-3.027341232
-3.01689081519
-3.00831822336
-3.00137866127
-2.99615670106
-2.99236109063
-2.99007610163
-2.98897697286
-2.98903705926
-2.99005752579
-2.99197062789
-2.99468633271
-2.99814250339
-3.00242007821
-3.00748022199
-3.01345501563
-3.02040549093
-3.02851263136
-3.03778839577
-3.04842612166
-3.06052544761
-3.07414175715
-3.08941685699
-3.10633585275
-3.12502886616
-3.14537339753
-3.16745800615
-3.19104508088
-3.21615719505
-3.24243464103
-3.26982448221
-3.29791884626
-3.32655525477
-3.35529431847
-3.38404811248
-3.41242690752
-3.44036899756
-3.46772160226
-3.49448709028
-3.520595892
-3.5461045801
-3.57114560614
-3.59598904998
-3.62102578948
-3.64669857347
-3.67309411966
-3.69848388478
-3.7217809362
-3.74307285836
-3.76261436642
-3.78066405041
-3.79731777467
-3.81258725033
-3.82628166242
-3.8382095423
-3.8480593234
-3.85569075872
-3.86098003682
-3.86416797278
-3.86575573413
-3.86676849299
-3.86863654875
-3.87330154114
-3.88296871821
-3.89987574283
-3.92587166736
-3.96189115531
-4.00748342908
-4.06022755249
-4.11598567293
-4.16890614219
-4.21122360238
-4.23943396518
-4.25031871564
-4.24063793724
-4.21152863409
-4.16709037671
-4.11662089421
-4.06937325709
-4.03539821158
-4.02323313805
-4.03818495008
-4.08635116008
-4.16815965227
-4.26873483171
-4.37682766345
-4.45713981968
-4.45095845058
-4.34481821552
-4.1861884119
-4.03142442588
-3.90836575745
-3.82387073257
-3.77140231702
-3.74278699255
-3.7305547409
-3.72895916076
-3.73398727548
-3.74288335267
-3.75386229434
-3.76586684373
-3.77846636266
-3.79166424642
-3.80560083167
-3.82036816487
-3.83602192697
-3.85263822356
-3.87028610036
-3.8890873757
-3.90916960651
-3.9306628028
-3.95365213401
-3.97821987474
-4.00397641265
-4.03023616041
-4.056856062
-4.08381873674
-4.11117475899
-4.13899163611
-4.16719299734
-4.19556439461
-4.22377655077
-4.25157024073
-4.27900345997
-4.306399845
-4.3340453808
-4.36206873261
-4.39045507485
-4.41917651121
-4.44815680505
-4.47732054495
-4.50651464669
-4.53560041647
-4.56436707229
-4.59264332528
-4.62016958905
-4.64671256056
-4.67197690317
-4.6958279148
-4.71807512789
-4.73852871959
-4.75692285313
-4.77310718029
-4.7868150515
-4.79783019545
-4.80585974371
-4.81073658804
-4.81233717494
-4.8107991495
-4.80629043899
-4.7990368599
-4.78882898427
-4.77453384401
-4.75345633766
-4.72170355167
-4.67470504537
-4.60813623338
-4.51902599143
-4.40866616047
-4.28362595167
-4.15190732382
-4.01139446815
-3.85499736817
-2.67568467863
-3.76989485129
-3.61736510373
-3.38310268904
-3.35648576923
-3.369306046
-3.36847614624
-3.35464770341
-3.33501200854
-3.31327499602
-3.29096763252
-3.26869877703
-3.24697597706
-3.22609087709
-3.20632683921
-3.18790876723
-3.17097619472
-3.15572580567
-3.14220543466
-3.13059747738
-3.1208079398
-3.11303713398
-3.10712167108
-3.10312014254
-3.10084173507
-3.10029580292
-3.10124722354
-3.10365018007
-3.10735363792
-3.11228415374
-3.11836454457
-3.12552695014
-3.13382025918
-3.14313786724
-3.15353997322
-3.16502102846
-3.17758251884
-3.19122202003
-3.20594659321
-3.22178757621
-3.23867041473
-3.25665573504
-3.27559539171
-3.29554141875
-3.3162687305
-3.33778762409
-3.35980652712
-3.382271088
-3.40479633686
-3.42729958967
-3.44938676151
-3.47087735595
-3.49149825753
-3.51119660271
-3.52984836763
-3.54756342967
-3.56433544466
-3.58028895333
-3.59559605203
-3.61060440859
-3.62585265207
-3.64212023141
-3.66039650582
-3.68140195041
-3.70476824032
-3.72984642247
-3.75588628945
-3.7821077379
-3.80781637849
-3.83246093589
-3.85559619891
-3.87690224634
-3.89606135771
-3.91280702165
-3.9267878589
-3.93769564501
-3.94516504973
-3.9491077814
-3.94965493218
-3.94753067788
-3.94408832684
-3.94151696557
-3.94269189734
-3.95086967184
-3.96902875463
-3.99889992976
-4.04011121609
-4.09007633681
-4.14437818961
-4.19814154829
-4.2489883757
-4.29036311807
-4.32254063733
-4.34462794454
-4.35882641718
-4.36975031499
-4.38616399092
-4.41301090492
-4.44563991294
-4.4895278725
-4.54300320211
-4.58610576514
-4.60360258338
-4.57038537935
-4.46957940355
-4.3201007007
-4.16027441638
-4.01990625396
-3.91087695678
-3.83525433595
-3.78855936257
-3.765054473
-3.75887459585
-3.76519719773
-3.78025891536
-3.80123310235
-3.82613514352
-3.85355136215
-3.88276348459
-3.91329242224
-3.94488004949
-3.9770875618
-4.00957548536
-4.04190100771
-4.07381307249
-4.10494896569
-4.13509315568
-4.16393736308
-4.19135636264
-4.21712306196
-4.24132342586
-4.26450009417
-4.28718181941
-4.30964338874
-4.33204781198
-4.35439798094
-4.37664902848
-4.39855189781
-4.41984799013
-4.4403621383
-4.46030308993
-4.48003817619
-4.50000867133
-4.52038196544
-4.54128545878
-4.5626624337
-4.58453039004
-4.60675233405
-4.62926899741
-4.65187138226
-4.67445940001
-4.6968011221
-4.71881665787
-4.74028646118
-4.76103918415
-4.78083581204
-4.79958743398
-4.81710866718
-4.83327695402
-4.84777570634
-4.86036536702
-4.87061991432
-4.8782148061
-4.88271545557
-4.88395645454
-4.88174052645
-4.87610312225
-4.8667777676
-4.85322265075
-4.83389322986
-4.80628709356
-4.76673797922
-4.71119069064
-4.63579133021
-4.53824571574
-4.41958471837
-4.28415018234
-4.13585431722
-3.97254198262
-3.78998280489
-3.04579938478
-4.39200353316
-3.8804370942
-3.5133451476
-3.49125030996
-3.49811167112
-3.49422208581
-3.47833991109
-3.4575372386
-3.43487942563
-3.41163651996
-3.3883791996
-3.36572933838
-3.34389606613
-3.32330441846
-3.30410147486
-3.28655619069
-3.270806557
-3.25696406199
-3.24516861266
-3.2354639192
-3.22792727874
-3.22246915119
-3.21916335488
-3.21781271017
-3.21840532718
-3.22075979853
-3.22481586234
-3.23040069682
-3.23742919249
-3.24580057427
-3.25542211166
-3.26620604504
-3.27811011063
-3.29108436484
-3.30504771564
-3.3199735068
-3.33583529905
-3.35253973375
-3.37009560943
-3.38838502942
-3.40743383229
-3.42708182339
-3.44735455805
-3.4680443122
-3.48914810335
-3.51039401648
-3.53171610822
-3.55280792307
-3.57346269448
-3.59327455196
-3.61201106246
-3.62930148755
-3.64494989636
-3.65889193987
-3.67127481003
-3.68218929726
-3.69173777176
-3.69988900236
-3.70667846199
-3.71264656497
-3.71874854687
-3.72643936868
-3.7370675763
-3.75109825955
-3.76832317321
-3.78804894099
-3.80934390379
-3.83121332674
-3.8527690687
-3.87334256572
-3.89246943348
-3.90991253694
-3.92557904142
-3.93941524574
-3.95132291954
-3.96109799972
-3.96847329051
-3.97313579216
-3.97486772789
-3.97375519764
-3.97050806079
-3.9667228542
-3.96499134216
-3.96880422241
-3.98209831473
-4.00760603383
-4.0478783378
-4.10332486377
-4.17461283375
-4.25744394882
-4.34333648012
-4.42696359286
-4.49926924504
-4.55738589948
-4.60139246499
-4.63219981787
-4.65835154261
-4.68686456924
-4.71627863255
-4.73084951236
-4.71398327006
-4.66157458353
-4.56886843739
-4.44163447417
-4.29962910559
-4.16404671197
-4.04828985836
-3.95778076201
-3.89325620412
-3.85194185824
-3.82972988916
-3.82217095421
-3.82531132401
-3.83581901688
-3.85108936758
-3.86917338054
-3.88882605142
-3.90939072959
-3.93060869167
-3.95232590737
-3.97438860838
-3.99666229649
-4.01906180158
-4.04156524953
-4.06416125276
-4.08686871701
-4.10966163676
-4.13253286691
-4.15544293613
-4.17849531343
-4.20177754055
-4.22527728297
-4.2489324026
-4.27282562654
-4.29698358503
-4.32132597656
-4.34563194007
-4.3696124013
-4.39312307837
-4.41628218589
-4.43942701976
-4.46289219757
-4.48687792581
-4.51145002461
-4.53657428206
-4.56217914784
-4.58813203825
-4.61428547815
-4.64043851031
-4.66640498571
-4.69194739266
-4.71688647138
-4.74102335987
-4.76419378902
-4.78622110456
-4.80697008049
-4.82628257173
-4.84403324839
-4.85998499593
-4.873910349
-4.88546593191
-4.89435599775
-4.90023363193
-4.90290543144
-4.9021244661
-4.89780827286
-4.88955021917
-4.87658386483
-4.85726485585
-4.82920305864
-4.78905239374
-4.73311128899
-4.65794780001
-4.56160133265
-4.44436184461
-4.30822252364
-4.15365864451
-3.97793913035
-3.77794302163
-3.46267786736
-4.94632711217
-4.06918423657
-3.6583420799
-3.66146186043
-3.64828555776