/*--------------------------------*- C++ -*----------------------------------*\
| =========                 |                                                 |
| \\      /  F ield         | OpenFOAM: The Open Source CFD Toolbox           |
|  \\    /   O peration     | Version:  v1806                                 |
|   \\  /    A nd           | Web:      www.OpenFOAM.com                      |
|    \\/     M anipulation  |                                                 |
\*---------------------------------------------------------------------------*/
FoamFile
{
    version     2.0;
    format      ascii;
    class       surfaceScalarField;
    location    "13";
    object      phi;
}
// * * * * * * * * * * * * * * * * * * * * * * * * * * * * * * * * * * * * * //

dimensions      [0 3 -1 0 0 0 0];
oriented        oriented;


internalField   nonuniform List<scalar> 
24170
(
3.07353423929e-06
1.14872521473e-07
2.98670013009e-06
8.683475886e-08
2.90682788631e-06
7.98735342378e-08
2.83001144069e-06
7.68185926162e-08
2.75640831203e-06
7.36048535068e-08
2.68614379271e-06
7.02665089542e-08
2.61909577359e-06
6.70497963533e-08
2.55506013163e-06
6.40374888322e-08
2.4938137591e-06
6.12481440998e-08
2.43512436054e-06
5.8691110929e-08
2.37874596217e-06
5.63800897379e-08
2.3244111254e-06
5.43364053845e-08
2.27181915604e-06
5.25935405357e-08
2.22061271089e-06
5.12079275661e-08
2.17032709089e-06
5.02870936789e-08
2.12024734382e-06
5.00810416911e-08
2.06880666896e-06
5.14417322781e-08
5.67738613809e-08
2.01203380658e-06
3.43164501803e-06
1.00476541214e-07
3.42668855381e-06
9.17914086697e-08
3.41992647344e-06
8.66365161992e-08
3.41024420771e-06
8.65026255432e-08
3.39808225129e-06
8.57683101394e-08
3.38408882868e-06
8.42616678748e-08
3.36864495055e-06
8.24952118324e-08
3.35198285304e-06
8.07011816034e-08
3.3342640733e-06
7.89684127163e-08
3.31559874691e-06
7.73578756197e-08
3.29604519422e-06
7.59349916221e-08
3.2756049261e-06
7.47779288362e-08
3.25421282361e-06
7.39868439222e-08
3.2317154941e-06
7.37063941804e-08
3.20782374512e-06
7.41799206369e-08
3.18202479274e-06
7.58809751766e-08
3.15359698247e-06
7.98702836804e-08
8.72020029053e-08
3.12316968908e-06
3.68006808355e-06
8.29261528917e-08
3.68458036118e-06
8.72800189551e-08
3.68740623567e-06
8.38120159985e-08
3.68917867365e-06
8.4732032899e-08
3.68967489944e-06
8.52736394467e-08
3.68909965853e-06
8.48385702341e-08
3.68759148938e-06
8.40048916654e-08
3.68519933922e-06
8.30948408014e-08
3.68193609958e-06
8.22330886557e-08
3.67779668702e-06
8.14986657853e-08
3.67275646826e-06
8.09765444549e-08
3.66676515887e-06
8.07704948554e-08
3.65973843553e-06
8.10147909747e-08
3.65154629292e-06
8.18997069004e-08
3.64200241736e-06
8.3724921669e-08
3.63089186336e-06
8.69925198676e-08
3.61819774081e-06
9.25652585431e-08
1.00708577461e-07
3.60469211208e-06
3.93976718247e-06
6.85472184016e-08
3.94595058111e-06
8.10968855595e-08
3.94961231943e-06
8.01511519218e-08
3.95261415878e-06
8.1731668431e-08
3.9547760989e-06
8.31130939105e-08
3.95618315845e-06
8.34330340496e-08
3.95695561675e-06
8.32338487846e-08
3.95713676638e-06
8.29151106391e-08
3.95672422681e-06
8.26469690671e-08
3.95569475829e-06
8.25294146618e-08
3.95400956858e-06
8.26629363851e-08
3.95161323047e-06
8.31679542712e-08
3.94843164703e-06
8.41974415999e-08
3.94437277054e-06
8.5959592853e-08
3.93934111317e-06
8.87575222565e-08
3.93329762946e-06
9.30368678413e-08
3.92644119906e-06
9.94224022973e-08
1.08059427907e-07
3.9190910942e-06
4.21859245935e-06
5.70827863524e-08
4.22524806919e-06
7.44423588242e-08
4.22903803363e-06
7.6362646052e-08
4.23212821907e-06
7.86432136948e-08
4.23452192173e-06
8.07209277847e-08
4.23621899554e-06
8.17375405129e-08
4.2373166231e-06
8.21376890446e-08
4.2378671003e-06
8.23660821209e-08
4.23787676111e-06
8.26386869517e-08
4.23732916397e-06
8.30783473054e-08
4.23619447585e-06
8.37988993674e-08
4.23443186947e-06
8.4931795394e-08
4.23199200582e-06
8.66384889168e-08
4.22882541147e-06
8.91273376946e-08
4.22490725721e-06
9.26767657443e-08
4.22029571242e-06
9.76493760768e-08
4.21524716095e-06
1.0447181349e-07
1.13265319557e-07
4.21004220847e-06
4.51820347384e-06
4.79664189035e-08
4.52487414527e-06
6.77720475969e-08
4.52882624533e-06
7.24114228805e-08
4.53195848576e-06
7.55122033158e-08
4.53446052887e-06
7.82201509883e-08
4.53628698895e-06
7.99124073931e-08
4.5374998402e-06
8.09261303904e-08
4.53815286324e-06
8.17143336169e-08
4.53826102959e-06
8.2531749073e-08
4.53781605867e-06
8.35244893075e-08
4.5367981512e-06
8.48179427939e-08
4.53518158425e-06
8.65494146539e-08
4.53294086761e-06
8.88802222971e-08
4.53006350996e-06
9.20056424645e-08
4.52657732577e-06
9.61638372131e-08
4.5225990525e-06
1.01628447532e-07
4.51840558513e-06
1.08665966475e-07
1.17321105077e-07
4.51435034559e-06
4.83996773677e-06
4.0719710592e-08
4.8463633358e-06
6.13777104393e-08
4.85045726448e-06
6.83190194456e-08
4.85363304207e-06
7.23380369449e-08
4.85620923723e-06
7.56454755712e-08
4.85814003784e-06
7.7983093467e-08
4.85945479872e-06
7.96127989082e-08
4.86020218287e-06
8.09683323659e-08
4.86040337303e-06
8.23318904736e-08
4.86005770333e-06
8.38714484398e-08
4.85915509422e-06
8.57217812612e-08
4.85768464375e-06
8.80210602105e-08
4.85564354761e-06
9.09224497083e-08
4.85305185291e-06
9.45984342117e-08
4.84997767917e-06
9.92390234603e-08
4.84657334315e-06
1.05033664466e-07
4.84311344835e-06
1.12126545383e-07
1.20485074854e-07
4.83995068406e-06
5.18536219894e-06
3.4938630295e-08
5.19130783308e-06
5.54326306364e-08
5.19548309039e-06
6.41445929926e-08
5.19871538024e-06
6.91067944946e-08
5.20136572955e-06
7.29961916087e-08
5.20341102598e-06
7.59389374441e-08
5.20485439526e-06
7.81705464493e-08
5.20573308905e-06
8.00907805847e-08
5.20607106981e-06
8.19950225517e-08
5.2058752074e-06
8.406842322e-08
5.20514626602e-06
8.64518177297e-08
5.20388925899e-06
8.92791113398e-08
5.20212390215e-06
9.26888091811e-08
5.1998990817e-06
9.68241766959e-08
5.19731352692e-06
1.01825436774e-07
5.19453976442e-06
1.07808121564e-07
5.19184181859e-06
1.14825325629e-07
1.22780694692e-07
5.18954679437e-06
5.55597800126e-06
3.02993929366e-08
5.56139004136e-06
5.00219650439e-08
5.56557239905e-06
5.99637452681e-08
5.56886665792e-06
6.58140258453e-08
5.57159652997e-06
7.02677437119e-08
5.57376454149e-06
7.37722936265e-08
5.57535721016e-06
7.65792168747e-08
5.57639862885e-06
7.90506556546e-08
5.57691379519e-06
8.14811233306e-08
5.57691787953e-06
8.40655743847e-08
5.57642405046e-06
8.69468358647e-08
5.57545405095e-06
9.02502513816e-08
5.5740488141e-06
9.40951194967e-08
5.57228117454e-06
9.85928404604e-08
5.57027075741e-06
1.03836751743e-07
5.56819722201e-06
1.09882448037e-07
5.56630267575e-06
1.16720503739e-07
1.24221982114e-07
5.56486268906e-06
5.95353700432e-06
2.65387995495e-08
5.95839919394e-06
4.51603900009e-08
5.96251980474e-06
5.58439042192e-08
5.96587304315e-06
6.24616555925e-08
5.9686929983e-06
6.74486804824e-08
5.97099803793e-06
7.14682117792e-08
5.97276696676e-06
7.48112465898e-08
5.97401207667e-06
7.78065606835e-08
5.97475788752e-06
8.07363134113e-08
5.97502739661e-06
8.37971080565e-08
5.97484606212e-06
8.7129160195e-08
5.97425128851e-06
9.08460367001e-08
5.97330203531e-06
9.50453212e-08
5.97208886419e-06
9.98069030334e-08
5.97074321227e-06
1.05183178444e-07
5.96944244154e-06
1.111838463e-07
5.96840506549e-06
1.17758798797e-07
1.24762121084e-07
5.96786555192e-06
6.37989889077e-06
2.34535580067e-08
6.38424075052e-06
4.08200357288e-08
6.38824950538e-06
5.18366447935e-08
6.39165563302e-06
5.90569493809e-08
6.39458141208e-06
6.4524254693e-08
6.397045334e-06
6.90055793733e-08
6.39902359262e-06
7.28342734641e-08
6.40051918788e-06
7.63121885169e-08
6.4015550395e-06
7.9701697202e-08
6.40216058903e-06
8.31927093028e-08
6.40237249888e-06
8.69184256692e-08
6.40224175884e-06
9.09778499381e-08
6.4018415462e-06
9.54465893202e-08
6.40127397034e-06
1.00375411943e-07
6.4006745719e-06
1.05783411403e-07
6.40021139086e-06
1.11647737652e-07
6.4000751935e-06
1.1789549759e-07
1.24384404276e-07
6.40045417039e-06
5.74304842828e-06
2.12403313324e-08
5.74635817233e-06
3.7511423741e-08
5.74963788428e-06
4.85581129865e-08
5.75255384867e-06
5.6142198291e-08
5.75512378064e-06
6.19554852757e-08
5.75735170685e-06
6.67788593009e-08
5.75921639217e-06
7.09707307349e-08
5.76071524378e-06
7.48145344875e-08
5.76186574927e-06
7.85523198021e-08
5.76269644472e-06
8.23631831422e-08
5.76324526677e-06
8.63706164723e-08
5.7635635989e-06
9.06607194954e-08
5.76372062452e-06
9.5290738447e-08
5.76380692831e-06
1.0029029054e-07
5.76393521721e-06
1.0565610881e-07
5.76423721555e-06
1.11346681363e-07
5.76485552802e-06
1.17278439834e-07
1.23311255807e-07
5.76592963953e-06
7.00033950265e-06
1.90578158288e-08
7.00377191199e-06
3.40803921355e-08
7.00739674557e-06
4.49346077225e-08
7.01077530849e-06
5.27648588265e-08
7.01384408612e-06
5.88879222955e-08
7.01658578973e-06
6.40382687515e-08
7.01897356336e-06
6.85841019773e-08
7.02100038082e-06
7.27887753522e-08
7.02268445468e-06
7.68693239511e-08
7.0240612858e-06
8.09872496631e-08
7.02518066458e-06
8.52524154795e-08
7.02610819913e-06
8.97342938793e-08
7.02692853172e-06
9.44717623961e-08
7.02774635685e-06
9.94737091902e-08
7.02868518967e-06
1.04718696318e-07
7.02988136625e-06
1.10151783526e-07
7.03147454132e-06
1.15686656378e-07
1.21195847535e-07
7.03359117732e-06
8.53299234509e-06
1.69136870132e-08
8.53652577725e-06
3.05482791941e-08
8.54050168142e-06
4.0960059592e-08
8.54440998957e-06
4.88579780435e-08
8.54809791206e-06
5.52012332273e-08
8.55151291688e-06
6.06245957502e-08
8.55461778586e-06
6.54803796546e-08
8.55740011914e-06
7.00076638215e-08
8.55987746059e-06
7.43930039461e-08
8.56209151117e-06
7.87744929272e-08
8.56410258864e-06
8.32422833316e-08
8.56598970888e-06
8.78486121112e-08
8.56784971812e-06
9.26130126617e-08
8.56979729611e-06
9.7527777692e-08
8.57195982586e-06
1.02557526842e-07
8.57447145462e-06
1.07641854388e-07
8.57746172793e-06
1.12697759087e-07
1.17615659593e-07
8.58104371401e-06
1.04013501754e-05
1.4783856916e-08
1.04050101319e-05
2.68897616454e-08
1.04093815356e-05
3.65901113215e-08
1.04139243328e-05
4.43165265503e-08
1.04184042337e-05
5.07228665934e-08
1.04227219714e-05
5.6308150038e-08
1.04268233982e-05
6.13804366309e-08
1.04306879608e-05
6.61443552548e-08
1.04343308028e-05
7.07517077611e-08
1.04377959475e-05
7.53103295511e-08
1.04411516447e-05
7.98881481202e-08
1.04444842836e-05
8.45170771636e-08
1.04478978479e-05
8.92010686627e-08
1.0451507998e-05
9.39189587874e-08
1.0455438203e-05
9.86289433449e-08
1.04598104368e-05
1.03271091354e-07
1.04647373939e-05
1.07772326695e-07
1.12043425885e-07
1.0470310677e-05
1.26789819682e-05
1.25933120219e-08
1.2682877428e-05
2.29957027102e-08
1.26877796888e-05
3.16893308131e-08
1.2693151887e-05
3.89458555371e-08
1.26986957473e-05
4.51804292427e-08
1.27042609279e-05
5.07445181392e-08
1.27097675884e-05
5.58752057493e-08
1.27151827448e-05
6.07308137421e-08
1.27205135356e-05
6.54221711443e-08
1.27258017132e-05
7.00237688404e-08
1.27311138328e-05
7.45771067299e-08
1.27365366672e-05
7.90957311321e-08
1.27421692641e-05
8.35697059896e-08
1.27481188403e-05
8.79707932039e-08
1.27544929761e-05
9.22562619619e-08
1.27613923988e-05
9.63728207998e-08
1.27689047821e-05
1.0026153196e-07
1.03854766258e-07
1.2777094049e-05
1.54555822095e-05
1.01925649373e-08
1.54599560683e-05
1.86234981525e-08
1.54656879015e-05
2.59589147086e-08
1.54722520568e-05
3.23831732321e-08
1.54793023763e-05
3.81314742444e-08
1.54866375591e-05
4.34108023364e-08
1.54941446187e-05
4.83695274859e-08
1.5501769658e-05
5.31072598029e-08
1.55095043487e-05
5.76888812186e-08
1.55173768766e-05
6.21525715861e-08
1.55254418516e-05
6.65134115662e-08
1.553377166e-05
7.07672669243e-08
1.55424481448e-05
7.48945236963e-08
1.55515561617e-05
7.88642527972e-08
1.55611759633e-05
8.26377337549e-08
1.55713781926e-05
8.6172086345e-08
1.55822170215e-05
8.94237445661e-08
9.23464581819e-08
1.55937266341e-05
1.88405118639e-05
7.31974435784e-09
1.88458174821e-05
1.33192943333e-08
1.88529445786e-05
1.8833188809e-08
1.88613435249e-05
2.39854540911e-08
1.88706167653e-05
2.885954073e-08
1.88805098012e-05
3.35189698588e-08
1.88908688877e-05
3.80117820717e-08
1.89016081562e-05
4.23691738367e-08
1.89126924459e-05
4.66059580924e-08
1.89241234887e-05
5.07226558339e-08
1.89359298906e-05
5.47084078216e-08
1.89481550248e-05
5.85433586403e-08
1.89608499917e-05
6.22010571155e-08
1.89740648733e-05
6.56508434878e-08
1.89878440895e-05
6.88601394345e-08
1.90022210088e-05
7.17968551747e-08
1.90172150231e-05
7.44314079914e-08
7.67349052641e-08
1.90328283716e-05
2.29671898032e-05
3.46860988292e-09
2.29742782824e-05
6.23214487841e-09
2.2983839938e-05
9.27276751337e-09
2.29951952801e-05
1.26313748908e-08
2.30078558831e-05
1.62000700014e-08
2.30215037575e-05
1.98723843589e-08
2.30359343247e-05
2.35823917994e-08
2.30510176803e-05
2.72870652475e-08
2.30666786181e-05
3.0946321113e-08
2.30828800314e-05
3.4522408235e-08
2.30996117223e-05
3.79781677996e-08
2.31168756949e-05
4.12805259343e-08
2.31346812313e-05
4.43971696064e-08
2.31530337941e-05
4.72995593587e-08
2.31719352106e-05
4.9960588967e-08
2.31913752027e-05
5.23582341986e-08
2.32113347733e-05
5.44738892473e-08
5.62930397523e-08
2.3231777803e-05
1.68141124171e-05
6.20972365476e-11
1.68202482687e-05
9.70667522323e-11
1.68283487298e-05
1.17333852847e-09
1.68378006387e-05
3.17980981878e-09
1.68482303274e-05
5.77182912033e-09
1.68594119875e-05
8.69070411344e-09
1.68711981084e-05
1.17981742331e-08
1.68834826393e-05
1.5002283501e-08
1.68962025847e-05
1.82287280232e-08
1.6909312902e-05
2.1411697923e-08
1.69227925064e-05
2.4501218598e-08
1.69366181142e-05
2.74544210901e-08
1.69507792898e-05
3.02390034732e-08
1.69652536626e-05
3.28249032082e-08
1.69800272874e-05
3.51902204144e-08
1.69950704945e-05
3.73152665463e-08
1.7010359335e-05
3.91885147515e-08
4.07995120567e-08
1.70258538591e-05
1.46382111862e-05
-3.57936851192e-09
1.46446184461e-05
-6.30937744872e-09
1.46527734942e-05
-6.98084559924e-09
1.46620080399e-05
-6.05387279705e-09
1.46720136173e-05
-4.23342604327e-09
1.46826278578e-05
-1.9225567939e-09
1.46937306474e-05
6.95323994752e-10
1.47052377758e-05
3.49670896155e-09
1.47170927233e-05
6.37370755873e-09
1.47292630836e-05
9.24309963662e-09
1.47417205347e-05
1.20436439408e-08
1.47544458219e-05
1.47311713585e-08
1.47674140329e-05
1.7270697312e-08
1.47806062225e-05
1.96350863716e-08
1.47939950674e-05
2.18016661319e-08
1.48075591327e-05
2.37539789174e-08
1.48212687741e-05
2.54797137618e-08
2.69715566022e-08
1.48350998836e-05
1.27442074831e-05
-7.6538937213e-09
1.27510718391e-05
-1.31725727104e-08
1.27593140644e-05
-1.52223242824e-08
1.27682688635e-05
-1.50078292003e-08
1.27777629929e-05
-1.37268988111e-08
1.27877049561e-05
-1.1863930785e-08
1.27980022051e-05
-9.60113163736e-09
1.2808588896e-05
-7.08958889954e-09
1.28194286906e-05
-4.46529715868e-09
1.28304981992e-05
-1.82585130604e-09
1.28417778092e-05
7.64624681237e-10
1.28532472213e-05
3.2625981806e-09
1.28648840491e-05
5.63435790408e-09
1.28766658597e-05
7.85452258164e-09
1.28885666307e-05
9.90175682026e-09
1.29005601512e-05
1.17621288536e-08
1.29126165156e-05
1.34248518645e-08
1.48854619881e-08
1.29247041426e-05
1.10957040297e-05
-1.24275335066e-08
1.11031869735e-05
-2.06544000053e-08
1.11114602088e-05
-2.34942743781e-08
1.11200332373e-05
-2.35798299049e-08
1.11289394031e-05
-2.26320769228e-08
1.11381462042e-05
-2.10701999797e-08
1.11475855052e-05
-1.90396074649e-08
1.11572212149e-05
-1.67244929982e-08
1.11670400419e-05
-1.42833245446e-08
1.11770303296e-05
-1.18156682295e-08
1.11871766925e-05
-9.38069228506e-09
1.11974579561e-05
-7.01877571681e-09
1.12078544035e-05
-4.76073156317e-09
1.12183413734e-05
-2.63269006027e-09
1.12288990937e-05
-6.53866837113e-10
1.12395037148e-05
1.1579203899e-09
1.12501410534e-05
2.78981618984e-09
4.22941962304e-09
1.12607977716e-05
9.66106403076e-06
-1.8275850771e-08
9.66926639713e-06
-2.88554810416e-08
9.67742240241e-06
-3.16491428124e-08
9.68550574886e-06
-3.1661988329e-08
9.69376542921e-06
-3.08907861676e-08
9.70218297673e-06
-2.94864832552e-08
9.71071068403e-06
-2.75663100486e-08
9.71934750607e-06
-2.53603912505e-08
9.72810473891e-06
-2.30396237006e-08
9.73698451941e-06
-2.06946162841e-08
9.74597911094e-06
-1.83746329373e-08
9.755074556e-06
-1.61134654897e-08
9.76425197875e-06
-1.39378848664e-08
9.77348966155e-06
-1.1869253284e-08
9.78276180696e-06
-9.92520770615e-09
9.79204147616e-06
-8.12046100443e-09
9.80130161338e-06
-6.46882806111e-09
-4.98529395962e-09
9.81051741106e-06
8.41280190362e-06
-2.57238969717e-08
8.42167994829e-06
-3.77321355164e-08
8.42949916997e-06
-3.9466943711e-08
8.4370338884e-06
-3.91955488286e-08
8.44465829563e-06
-3.85139050934e-08
8.45232617429e-06
-3.71534737176e-08
8.46001755466e-06
-3.52564261905e-08
8.4677598523e-06
-3.31014824461e-08
8.4755759293e-06
-3.0854631895e-08
8.48347283986e-06
-2.85904831598e-08
8.49144732739e-06
-2.6348311162e-08
8.49949021849e-06
-2.41556426339e-08
8.50758713354e-06
-2.20341963482e-08
8.51571917106e-06
-2.00004523319e-08
8.52386256596e-06
-1.80676225028e-08
8.53199218998e-06
-1.62486378764e-08
8.5400877559e-06
-1.45640731304e-08
-1.30500834535e-08
8.54815397919e-06
7.3269833511e-06
-3.54216426499e-08
7.33624320428e-06
-4.69906408598e-08
7.3434772839e-06
-4.66999080329e-08
7.35038722932e-06
-4.61040670097e-08
7.35728870162e-06
-4.54142386471e-08
7.36412878491e-06
-4.39921607124e-08
7.3709455347e-06
-4.20719069452e-08
7.37779316276e-06
-3.99478925887e-08
7.38469799452e-06
-3.77583306964e-08
7.39166618093e-06
-3.55578472983e-08
7.39869510595e-06
-3.33762248998e-08
7.40577704095e-06
-3.12368668143e-08
7.41289942402e-06
-2.91557375163e-08
7.42004430709e-06
-2.71444351723e-08
7.42718615624e-06
-2.52084594236e-08
7.43428926468e-06
-2.33509170461e-08
7.44130800338e-06
-2.15821460973e-08
-1.99407344125e-08
7.44819884161e-06
6.3828868533e-06
-4.8241250924e-08
6.39195681178e-06
-5.60593346707e-08
6.39860834145e-06
-5.33501109244e-08
6.40503558624e-06
-5.25308207478e-08
6.41128946044e-06
-5.16663567626e-08
6.41736598941e-06
-5.00676402538e-08
6.42337042407e-06
-4.80750500942e-08
6.42937475378e-06
-4.59510236651e-08
6.43540888263e-06
-4.37914555326e-08
6.44148269575e-06
-4.16305795246e-08
6.44759744061e-06
-3.94907576742e-08
6.45375016076e-06
-3.73883330779e-08
6.45993158774e-06
-3.53364107692e-08
6.46612827947e-06
-3.33402537656e-08
6.47231786852e-06
-3.13971594175e-08
6.47846203348e-06
-2.94943326685e-08
6.48449857661e-06
-2.76181766212e-08
-2.57874405336e-08
6.49034474973e-06
5.56201062319e-06
-6.47860106272e-08
5.56956883549e-06
-6.36161658312e-08
5.57539592679e-06
-5.91763392671e-08
5.58102845635e-06
-5.81622363274e-08
5.58626264693e-06
-5.68987268525e-08
5.59120464993e-06
-5.50081967627e-08
5.5959910246e-06
-5.28600537361e-08
5.60068882886e-06
-5.06475689927e-08
5.60532876813e-06
-4.84302143961e-08
5.60992853219e-06
-4.62299747991e-08
5.61450062525e-06
-4.40619879974e-08
5.61905245311e-06
-4.19390406459e-08
5.62358679959e-06
-3.98696789323e-08
5.62810303112e-06
-3.78555887026e-08
5.63259371946e-06
-3.58869533379e-08
5.63703040976e-06
-3.39301511841e-08
5.64131959561e-06
-3.19077230054e-08
-2.96031398877e-08
5.64513564346e-06
4.84605824899e-06
-8.32354972374e-08
4.84770143171e-06
-6.52578963994e-08
4.84844647004e-06
-5.99202518367e-08
4.84790240064e-06
-5.76168265899e-08
4.84616363839e-06
-5.51578921588e-08
4.84365155534e-06
-5.24944227124e-08
4.84063251081e-06
-4.98394268315e-08
4.8372620958e-06
-4.72756781127e-08
4.83365284728e-06
-4.481981916e-08
4.82989640391e-06
-4.24728168921e-08
4.82606862738e-06
-4.02332319945e-08
4.82223046287e-06
-3.8099478101e-08
4.81843063433e-06
-3.60685976004e-08
4.81471046384e-06
-3.41343232818e-08
4.81110885631e-06
-3.22842458173e-08
4.80766438777e-06
-3.04850833044e-08
4.80440655937e-06
-2.8649581106e-08
-2.59748620694e-08
4.80077813492e-06
4.11944084725e-06
4.05418304253e-06
3.99426289992e-06
3.9366462762e-06
3.88148856032e-06
3.82899431624e-06
3.77915506967e-06
3.73187955443e-06
3.68705983365e-06
3.64458715199e-06
3.60435415044e-06
3.5662549004e-06
3.53018651061e-06
3.49605240925e-06
3.46376834037e-06
3.43328332035e-06
3.40463370973e-06
3.37865913129e-06
5.9104962428e-08
-5.91005909094e-08
9.43828016932e-08
-3.52718627649e-08
9.1877697222e-08
2.50361061512e-09
5.38010902703e-08
3.80787187182e-08
-2.78253506172e-08
8.16223121892e-08
-1.45880713791e-07
1.18057052399e-07
-2.75466162243e-07
1.29582526753e-07
-4.1358908776e-07
1.38125182849e-07
-5.59148855194e-07
1.45558038994e-07
-7.11085910624e-07
1.51939969605e-07
-8.68428661039e-07
1.57342119632e-07
-1.03029182756e-06
1.61866540316e-07
-1.19590909874e-06
1.65617304476e-07
-1.36459873899e-06
1.68693373513e-07
-1.53578404426e-06
1.71185629105e-07
-1.70895811271e-06
1.73178058708e-07
-1.88370485054e-06
1.747469063e-07
-2.05966299512e-06
1.75962218902e-07
-2.23654937923e-06
1.76886552476e-07
-2.41412217787e-06
1.77576491322e-07
-2.59220344791e-06
1.7808107116e-07
-2.77064334464e-06
1.78443044266e-07
-2.94934119924e-06
1.7869732403e-07
-3.1282113207e-06
1.78872528577e-07
-3.30720112372e-06
1.78989301639e-07
-3.48626156192e-06
1.79062008457e-07
-3.66535992656e-06
1.79097595365e-07
-3.84445610543e-06
1.79097147717e-07
-4.0235117107e-06
1.79055085269e-07
-4.20247176032e-06
1.78960770932e-07
-4.38127006796e-06
1.78798102662e-07
-4.55981623498e-06
1.78546985352e-07
-4.7379989697e-06
1.78183144554e-07
-4.91567736498e-06
1.77679503447e-07
-5.09268254069e-06
1.77006200662e-07
-5.26881279301e-06
1.76131727676e-07
-5.4438343086e-06
1.75023119605e-07
-5.61747936063e-06
1.73646900475e-07
-5.78944653186e-06
1.71969326329e-07
-5.95940155884e-06
1.69957192749e-07
-6.12697721309e-06
1.67578231157e-07
-6.29177658264e-06
1.64801826686e-07
-6.45337337724e-06
1.615997076e-07
-6.6113173167e-06
1.57946671033e-07
-6.76513554425e-06
1.53821455552e-07
-6.91434018899e-06
1.49207606542e-07
-7.05843153113e-06
1.44094774889e-07
-7.19690810408e-06
1.38479701041e-07
-7.32927180737e-06
1.32367369098e-07
-7.45504030338e-06
1.25771739628e-07
-7.5737530008e-06
1.18716678499e-07
-7.68498502767e-06
1.11235582741e-07
-7.78835224747e-06
1.03371664623e-07
-7.88352445301e-06
9.51764510215e-08
-7.97022778415e-06
8.67086590759e-08
-8.04825391462e-06
7.80312293518e-08
-8.11745754584e-06
6.92096903933e-08
-8.17776037448e-06
6.03088231743e-08
-8.22914525088e-06
5.13916769956e-08
-8.27165524413e-06
4.25168712722e-08
-8.30538613147e-06
3.37382010294e-08
-8.33048011871e-06
2.51016407304e-08
-8.34711532663e-06
1.6642954626e-08
-8.355495026e-06
8.38807620841e-09
-8.35581347499e-06
3.26439023078e-10
-8.34832632143e-06
-7.47820553572e-09
-8.33339984537e-06
-1.49184832673e-08
-8.31140684433e-06
-2.19838229664e-08
-8.28268605533e-06
-2.87133274007e-08
-8.24749577038e-06
-3.51812692298e-08
-8.20599625192e-06
-4.14927157869e-08
-8.15820936284e-06
-4.77777605378e-08
-8.10401132018e-06
-5.41918263834e-08
-8.04309224326e-06
-6.09091786246e-08
-7.97496182531e-06
-6.81235332423e-08
-7.89891218856e-06
-7.60377729188e-08
-7.81404063148e-06
-8.48631655012e-08
-7.71922503195e-06
-9.48024418189e-08
-7.61317460723e-06
-1.06043005448e-07
-7.49442795844e-06
-1.18732745792e-07
-7.36145046552e-06
-1.32969927198e-07
-7.21266772554e-06
-1.48768429469e-07
-7.046615745e-06
-1.66046852923e-07
-6.86200151523e-06
-1.84599165356e-07
-6.65789364771e-06
-2.04102867129e-07
-6.43378035883e-06
-2.24102054694e-07
-6.18973900693e-06
-2.44046302128e-07
-5.92644329261e-06
-2.63310944499e-07
-5.64521817143e-06
-2.8126003853e-07
-5.34798580066e-06
-2.9731073065e-07
-5.0371227138e-06
-3.10948157772e-07
-4.71541516488e-06
-3.2180777707e-07
-4.38586939208e-06
-3.29648088349e-07
-4.05159221368e-06
-3.3439413719e-07
-3.7156222462e-06
-3.36086171093e-07
-3.38088457669e-06
-3.34863584462e-07
-3.05005293817e-06
-3.30949701642e-07
-2.72553962882e-06
-3.24632264227e-07
-2.40945776222e-06
-3.16183747312e-07
-2.10360810269e-06
-3.05939874344e-07
-1.80956237442e-06
-2.94107397453e-07
-1.52860566841e-06
-2.80979708484e-07
-1.26172690351e-06
-2.66862258322e-07
-1.01058751101e-06
-2.51057837209e-07
-7.75562761816e-07
-2.34910243202e-07
-5.62243762176e-07
-2.13122006208e-07
-3.70709669372e-07
-1.91292068404e-07
-1.6155664367e-07
-2.08856103119e-07
6.91663999541e-08
-2.30443173967e-07
2.93479428405e-07
-2.24098558731e-07
4.89787327528e-07
-1.96183317589e-07
6.596711841e-07
-1.69767899672e-07
8.08510210144e-07
-1.48779931052e-07
9.40046135778e-07
-1.31473270762e-07
1.05669365212e-06
-1.16630241018e-07
1.16023552728e-06
-1.03513242444e-07
1.25196562675e-06
-9.17365272483e-08
1.33298954074e-06
-8.10223332389e-08
1.40418955812e-06
-7.12258942745e-08
1.46639845337e-06
-6.22089113455e-08
1.52030759996e-06
-5.38986805796e-08
1.56657485922e-06
-4.62085703666e-08
1.60573284562e-06
-3.91005630893e-08
1.6383182895e-06
-3.25102044848e-08
1.66477790461e-06
-2.64195882995e-08
1.6855939543e-06
-2.07735558175e-08
1.70116682882e-06
-1.55672636452e-08
1.71194874948e-06
-1.07711372454e-08
1.71836201733e-06
-6.43376365661e-09
1.72102486307e-06
-2.67581281731e-09
1.72054901056e-06
4.36120863474e-10
1.7173421741e-06
3.17500162466e-09
1.71155643743e-06
5.730823225e-09
1.7034012666e-06
8.10718474873e-09
1.69306966692e-06
1.02640287938e-08
1.68078140777e-06
1.22261810974e-08
1.66670158554e-06
1.40017505845e-08
1.65100624328e-06
1.56176450412e-08
1.63383248756e-06
1.7080589029e-08
1.6153284304e-06
1.84113626912e-08
1.59561797259e-06
1.96190948195e-08
1.57482014372e-06
2.07193001745e-08
1.55303164284e-06
2.17216320983e-08
1.53033884288e-06
2.26372994625e-08
1.50681611715e-06
2.34738706158e-08
1.48253285322e-06
2.42409872587e-08
1.45754903502e-06
2.49452766426e-08
1.43192034796e-06
2.55943905146e-08
1.40569390437e-06
2.61942233641e-08
1.37891268846e-06
2.67516509895e-08
1.35161303836e-06
2.72710083513e-08
1.32382792308e-06
2.7758196721e-08
1.29558494137e-06
2.82164688683e-08
1.26690930553e-06
2.86505736372e-08
1.23782020173e-06
2.90644528288e-08
1.20833455906e-06
2.94625815438e-08
1.17846690711e-06
2.98452601907e-08
1.14823233745e-06
3.02140328352e-08
1.11764087167e-06
3.05718710653e-08
1.08670189336e-06
3.09214379873e-08
1.05542452132e-06
3.12609374947e-08
1.02381949505e-06
3.15907225971e-08
9.91896160538e-07
3.19101832056e-08
9.59669257303e-07
3.2215870545e-08
9.27154621406e-07
3.25047287806e-08
8.94373373653e-07
3.27733992387e-08
8.61343490211e-07
3.30230916819e-08
8.28086289551e-07
3.3252360035e-08
7.9463268739e-07
3.34497166304e-08
7.61039291629e-07
3.35912879606e-08
7.27397248969e-07
3.36407503468e-08
6.93876242872e-07
3.35212412056e-08
6.60740451046e-07
3.31366274097e-08
6.28370773026e-07
3.23718074859e-08
5.97242443317e-07
3.11307444683e-08
5.67841982959e-07
2.940402974e-08
5.40598104311e-07
2.72473575546e-08
5.15530074167e-07
2.50735074854e-08
4.92179938946e-07
2.33568941133e-08
1.92845917202e-08
4.72906333594e-07
-2.36533564962e-08
-3.54386422147e-08
-9.52323121397e-08
3.63143281753e-08
-1.9803011841e-07
1.0530286784e-07
-3.09908679746e-07
1.49958643526e-07
-4.18486666652e-07
1.90200310465e-07
-5.26191460526e-07
2.25763016348e-07
-6.48367216229e-07
2.51758185877e-07
-7.82121076052e-07
2.71880644089e-07
-9.24652780711e-07
2.88090092979e-07
-1.07405487543e-06
3.01344041493e-07
-1.22893407907e-06
3.12221992754e-07
-1.38819150561e-06
3.21126356504e-07
-1.5509367742e-06
3.28363552605e-07
-1.7164237696e-06
3.34183073855e-07
-1.8840344085e-06
3.38797380983e-07
-2.05324632905e-06
3.42392862929e-07
-2.22363386429e-06
3.45135498347e-07
-2.39484307554e-06
3.47174211615e-07
-2.56659788885e-06
3.4864222913e-07
-2.73867662478e-06
3.4965790071e-07
-2.91091958026e-06
3.50324570652e-07
-3.08320538676e-06
3.50730874133e-07
-3.25545783779e-06
3.50950122807e-07
-3.42762427872e-06
3.51040523455e-07
-3.59967997425e-06
3.51045052535e-07
-3.77160888428e-06
3.5099192969e-07
-3.94340614651e-06
3.50894839144e-07
-4.11506219945e-06
3.50753931987e-07
-4.28656349351e-06
3.50556500692e-07
-4.45788034461e-06
3.50278290425e-07
-4.62896635445e-06
3.49884534318e-07
-4.79974995905e-06
3.49331437645e-07
-4.97013334062e-06
3.48567396191e-07
-5.13998709382e-06
3.47534459487e-07
-5.30914914925e-06
3.46169573611e-07
-5.47742186537e-06
3.44406012939e-07
-5.64457137723e-06
3.42174446344e-07
-5.81032681672e-06
3.39404262723e-07
-5.97437984003e-06
3.36024572068e-07
-6.13638575278e-06
3.31965362932e-07
-6.2959635295e-06
3.27158567386e-07
-6.45269855463e-06
3.21539391945e-07
-6.60614372404e-06
3.15047722339e-07
-6.75582400349e-06
3.07629756623e-07
-6.90123916925e-06
2.99239737452e-07
-7.04187062987e-06
2.89842117395e-07
-7.17718661998e-06
2.79414094152e-07
-7.30665199601e-06
2.67948262124e-07
-7.42973587382e-06
2.55454785912e-07
-7.5459240029e-06
2.41963315125e-07
-7.65472782191e-06
2.27524282057e-07
-7.75569737419e-06
2.12208932827e-07
-7.84843004191e-06
1.96108686649e-07
-7.93258206259e-06
1.7933300818e-07
-8.00787412545e-06
1.6200584892e-07
-8.07409777513e-06
1.44260251763e-07
-8.13111575178e-06
1.2623360219e-07
-8.17886303174e-06
1.08062371518e-07
-8.217342305e-06
8.98776731111e-08
-8.24661931843e-06
7.18009499589e-08
-8.26681395125e-06
5.39402499645e-08
-8.27808932712e-06
3.63848244038e-08
-8.28064005903e-06
1.920168971e-08
-8.27469814991e-06
2.45462769069e-09
-8.2607144902e-06
-1.36487099382e-08
-8.23926826588e-06
-2.89155192056e-08
-8.21083004553e-06
-4.3347999371e-08
-8.1757856511e-06
-5.70192325105e-08
-8.13444905739e-06
-7.00414961121e-08
-8.08704755139e-06
-8.2574112973e-08
-8.03370740259e-06
-9.48249472224e-08
-7.97442862161e-06
-1.07048051603e-07
-7.9090708881e-06
-1.195416994e-07
-7.83732850034e-06
-1.32642859122e-07
-7.75872175646e-06
-1.46721604235e-07
-7.67257718626e-06
-1.6217182331e-07
-7.57802907278e-06
-1.79401440623e-07
-7.47400865876e-06
-1.98812057484e-07
-7.35926521051e-06
-2.20776573632e-07
-7.23237909734e-06
-2.456073602e-07
-7.09181870119e-06
-2.73520544337e-07
-6.93599169148e-06
-3.04584461902e-07
-6.76335538849e-06
-3.38673838368e-07
-6.57251669727e-06
-3.75426115408e-07
-6.36239217734e-06
-4.14217860456e-07
-6.13232907699e-06
-4.54156764786e-07
-5.88224942006e-06
-4.94126358766e-07
-5.61271539623e-06
-5.32851620293e-07
-5.32499947056e-06
-5.69021802285e-07
-5.02098519868e-06
-6.01383434666e-07
-4.70309784825e-06