/*--------------------------------*- C++ -*----------------------------------*\
| =========                 |                                                 |
| \\      /  F ield         | OpenFOAM: The Open Source CFD Toolbox           |
|  \\    /   O peration     | Version:  v1806                                 |
|   \\  /    A nd           | Web:      www.OpenFOAM.com                      |
|    \\/     M anipulation  |                                                 |
\*---------------------------------------------------------------------------*/
FoamFile
{
    version     2.0;
    format      ascii;
    class       volScalarField;
    location    "13";
    object      rho;
}
// * * * * * * * * * * * * * * * * * * * * * * * * * * * * * * * * * * * * * //

dimensions      [0 0 0 0 0 0 0];


internalField   nonuniform List<scalar> 
12225
(
0.583880498988
0.644903298632
0.625333804385
0.625181271279
0.613339520591
0.608975023447
0.602995675878
0.598882839476
0.596636363526
0.597431380188
0.602770294088
0.611328805977
0.618313369336
0.630260827448
0.653758429066
0.683811111321
0.721966530791
0.754677938651
0.749967202205
0.69415702466
0.660718543355
0.6655176357
0.656144268167
0.65359804722
0.649628461947
0.64706188932
0.64552016417
0.64570706656
0.649011365882
0.655243883923
0.661870456316
0.671780566711
0.68926277574
0.711343191685
0.735173563675
0.737737722354
0.610553486478
0.673830544753
0.65739710699
0.658498395248
0.648902470419
0.64542784158
0.640838456975
0.637687679176
0.63548320061
0.634735356774
0.636172005728
0.639965333041
0.645630594724
0.654696254602
0.6692725683
0.687050265569
0.703076603242
0.698121765244
0.660681040364
0.688424506591
0.660620689752
0.666742792031
0.657760749977
0.655948389323
0.652630391802
0.650574538666
0.649137909496
0.648755460224
0.649787849125
0.652446326234
0.656884175116
0.663967346441
0.674406899451
0.68595076722
0.693209462818
0.683969675052
0.640903936275
0.686991240816
0.662697680927
0.669391200445
0.661444567264
0.660566628343
0.658183042107
0.657071089673
0.656594962634
0.657088499868
0.65871205464
0.661586717358
0.665938948334
0.672141979577
0.680006291309
0.687210073903
0.689078977296
0.679045220262
0.645584382565
0.690895935606
0.66567128962
0.673864245355
0.66645338522
0.666331008554
0.664524560331
0.66396033072
0.663980138504
0.664856011285
0.666657049352
0.66943831287
0.673343177506
0.67840982329
0.683974675835
0.687846176018
0.686570150607
0.677061189886
0.645452365953
0.692543982963
0.668248876754
0.67736278507
0.670600693619
0.671140576108
0.669851289935
0.669741518903
0.670128663555
0.6712361852
0.673076234518
0.675649609222
0.678966027954
0.682844733106
0.686431135648
0.687866497467
0.684852385295
0.676142974538
0.646566720622
0.693943784525
0.67042498602
0.680303155662
0.674108221962
0.675196449683
0.674316453184
0.674542015101
0.675143253506
0.676324447271
0.678068857181
0.680327522167
0.68298857852
0.685740043169
0.687700961914
0.687429234549
0.683497644906
0.67560669758
0.647529112713
0.694768592087
0.672161653381
0.682603582283
0.676934700421
0.678492626032
0.67795195531
0.678414695229
0.67911222324
0.680254725693
0.681809639442
0.683674685048
0.685651819621
0.687368323413
0.688036647038
0.686583057197
0.682211753376
0.675018500408
0.648239229954
0.695112122322
0.673340414353
0.684192859008
0.678969589912
0.680914447387
0.680625274328
0.681230783759
0.681950781647
0.683001699589
0.684312615122
0.685731468025
0.687015265284
0.687803110851
0.687451779125
0.685207183205
0.68067206366
0.674135620723
0.648030799015
0.695197129753
0.673664230968
0.684890801874
0.679923016728
0.682092949855
0.681894930984
0.682538745935
0.683219330637
0.684123441846
0.685141163263
0.686116082405
0.686807879619
0.686905443172
0.685906120528
0.683304592361
0.678949228507
0.673150303552
0.643896012815
0.695079167357
0.6721363736
0.68396479465
0.678936142395
0.681211491149
0.681038247107
0.681690705882
0.682284978851
0.683036416431
0.683892281628
0.684675995163
0.685139762957
0.684989731367
0.683841845982
0.681348967351
0.677450171426
0.672447220395
0.640492634258
0.694387173286
0.670603868247
0.682859064177
0.678010842578
0.680465497231
0.680400465602
0.681139071475
0.681832802574
0.682673967895
0.683549390404
0.684278625686
0.684581699951
0.68424730893
0.682960071854
0.680513503286
0.676941634863
0.672509605972
0.636377504846
0.693522424178
0.668863052197
0.681671304811
0.677041517784
0.679860359366
0.680111964879
0.681081888067
0.681896337279
0.682749692012
0.683521870356
0.684018059992
0.683996074115
0.683310325568
0.681795667569
0.679327990816
0.676051393394
0.672113036567
0.631039444034
0.692574514445
0.666681090922
0.680230925601
0.675827050362
0.679075271564
0.679686124778
0.680928122628
0.681881712084
0.682705536029
0.683314199057
0.683504260303
0.683096944315
0.682072201043
0.680350275333
0.677907368538
0.674900665899
0.671469747224
0.625436077531
0.691554560565
0.664191998095
0.678470754613
0.674186872137
0.677804587014
0.678683834049
0.6801271479
0.681144175021
0.681927320838
0.682347495713
0.682288627522
0.681589269246
0.680357011208
0.678550626873
0.67622286154
0.673509580003
0.670506773972
0.620387332867
0.690619867422
0.661671912733
0.67653964458
0.672224733652
0.676064070393
0.677058279121
0.678567437474
0.679564729929
0.68023726069
0.680514873035
0.68027053924
0.679421233236
0.678102334572
0.676343828135
0.674176743292
0.671770625135
0.669118759063
0.615629604692
0.689899454871
0.659273046617
0.674617211331
0.670126424382
0.674037961704
0.67499786997
0.676471930927
0.677384723244
0.677944661276
0.678100676842
0.677744664643
0.676828592501
0.675519905722
0.673860274022
0.671875904549
0.669731033085
0.667387125319
0.613014347724
0.689790853836
0.658002869535
0.67353078509
0.668750288226
0.672518929337
0.673255110088
0.674526672462
0.675226806925
0.675584829336
0.675565339591
0.675082631606
0.674102792351
0.672808028595
0.671233066688
0.669391969194
0.667437659505
0.665322869606
0.618491220514
0.690461131511
0.659617363499
0.674278534076
0.669017276988
0.672110274487
0.672202858062
0.67281622304
0.672923678039
0.672754395452
0.672303789429
0.671503545315
0.67031561688
0.668908055313
0.667310636041
0.665527306564
0.663695354406
0.661777451942
0.62273554253
0.691520130048
0.661527567413
0.67555914547
0.66992708069
0.672481355843
0.672064912186
0.672202000536
0.671856126105
0.671313608719
0.67056192535
0.669556516686
0.668225275358
0.666760481938
0.665152281724
0.663424325845
0.661670263062
0.659878703308
0.626077409805
0.692633821614
0.663368800632
0.676865531165
0.670942502946
0.673026398038
0.67219591922
0.671918771845
0.671218882625
0.67037681388
0.669380510824
0.668209378818
0.666777938436
0.665255201281
0.663643815094
0.661942717416
0.660251393262
0.658525838904
0.630079374272
0.693957330771
0.665222178995
0.67821624823
0.671999798674
0.673626997574
0.672398691823
0.671743227723
0.670714231894
0.669582081454
0.668378932824
0.667038748568
0.66549524478
0.66389539346
0.662265182816
0.660554152905
0.658885127996
0.65719749714
0.632794027197
0.694961257198
0.667308884188
0.679665184713
0.673173488242
0.674357085231
0.672753986718
0.671733486222
0.670404004798
0.669031702446
0.667626346562
0.666146831776
0.664505371707
0.662854352842
0.661175792164
0.659457463293
0.657785567766
0.656164658333
0.640886373482
0.697136492226
0.66887231701
0.680741594843
0.673950198546
0.6746862512
0.672724734281
0.671389837647
0.669782660699
0.668168201209
0.666559620748
0.664937655287
0.663182223227
0.661439651691
0.659701248018
0.657910417493
0.656149832082
0.654410959769
0.630834659998
0.695814424711
0.672515507229
0.682927293844
0.676182679284
0.676502434046
0.674317832357
0.67272935819
0.670912186221
0.669102108325
0.667343742037
0.665609958097
0.663789529335
0.661990655872
0.660208941456
0.65840284256
0.656641941998
0.655083345075
0.680648322901
0.703378824625
0.673256899317
0.683854237038
0.676504539634
0.676360780479
0.673763442618
0.671810423771
0.669644291861
0.667485096238
0.665356919118
0.663395537548
0.661419279037
0.659465642055
0.65758214968
0.655671119457
0.653738226911
0.651608982696
0.582121004581
0.691744799034
0.683732172792
0.689315557677
0.683066599577
0.682534391475
0.680156599206
0.67839713997
0.676516135765
0.674643511436
0.672919555559
0.671316703465
0.669641407246
0.667977413261
0.666332821808
0.664557050157
0.662680611959
0.66121506856
0.815688388962
0.717006473939
0.688378407186
0.695879088896
0.689135141467
0.68817005838
0.685107994288
0.682399978345
0.679302145003
0.675958745434
0.672477800777
0.669222062774
0.665926716407
0.662498714012
0.659026336
0.655498362649
0.651873775575
0.648350160989
0.648189290872
0.678243773951
0.674519417842
0.676008055803
0.668354469697
0.667402222128
0.664820485296
0.662838309107
0.660824373793
0.659063315912
0.657654049641
0.656340491644
0.654961096508
0.653909374336
0.653183507048
0.652583635322
0.652291580496
0.651546441352
0.500154283116
0.499795855876
0.499612531618
0.499629926258
0.499838583159
0.500199219914
0.500621068799
0.501064983802
0.501505497882
0.501925381123
0.502313331052
0.502662531223
0.502969380261
0.503232638594
0.503452738326
0.503631496209
0.503771374439
0.503875784852
0.503947924765
0.503990959792
0.504008354119
0.504002501479
0.503976856399
0.503932246472
0.503870734611
0.503791940995
0.503697599451
0.503587438337
0.503462194389
0.503321040255
0.503164306124
0.502991454601
0.502802937718
0.502597957064
0.502376765579
0.502139523622
0.501887391453
0.501619694099
0.501337649298
0.50104140975
0.500732390589
0.500411463912
0.500080355516
0.499740836908
0.499395045248
0.49904560399
0.498695111622
0.498346695966
0.498003580393
0.4976686687
0.497344749416
0.497033076114
0.496736747397
0.4964598135
0.496207541652
0.495984898387
0.495797183018
0.495649609078
0.495547572447
0.495496156126
0.495499284036
0.495557949994
0.495672810968
0.495846042823
0.496077807538
0.496365452105
0.496707128844
0.497100850765
0.497543357231
0.498031809388
0.498561857501
0.499129499844
0.499729821458
0.500358415809
0.501010424525
0.501681664746
0.50236793741
0.503064512947
0.503767414097
0.504473859631
0.505181636872
0.505887351721
0.506588883922
0.507283558214
0.507972214806
0.508652309148
0.509323961958
0.509993589449
0.51065765492
0.511319889947
0.511981030948
0.512641170537
0.513301911384
0.513935848134
0.514527309705
0.515113438374
0.515725361147
0.516347529108
0.516976911257
0.517606676317
0.518342603087
0.519163576461
0.519244974803
0.51922270745
0.519360403114
0.519715194749
0.520257688612
0.520507003888
0.520819529729
0.521123196115
0.521386780994
0.521616055701
0.521820226707
0.52200504147
0.522174849404
0.52233255518
0.52248112581
0.52262377216
0.522761349774
0.52289279025
0.523014641827
0.523125600268
0.523226968376
0.523319858523
0.523407143052
0.523490083716
0.523569449529
0.523645774798
0.523719483595
0.523791024592
0.523860828655
0.523929122356
0.52399607855
0.524061658989
0.524125858046
0.524188506679
0.524249517247
0.524309199167
0.524366991366
0.524422582836
0.524473987758
0.524522462581
0.524567128531
0.52460649984
0.524638914328
0.524662579165
0.524676395645
0.524679561858
0.524671376505
0.524651291337
0.524618210554
0.52457058923
0.52450668066
0.524424825987
0.524323240323
0.524200100288
0.524053354133
0.52388076875
0.523679415265
0.52344573603
0.523174389547
0.522859663999
0.522493485374
0.522064526862
0.521557318228
0.520954882494
0.520236327181
0.519385215684
0.518388512292
0.517223632637
0.515877876153
0.514354855287
0.512672549787
0.51087140397
0.509009924609
0.507031910928
0.504988955133
0.502958233423
0.501048899292
0.499555090209
0.500052425538
0.499815398815
0.499913851005
0.500202674697
0.500552906743
0.500910302272
0.501253663853
0.501573441011
0.501866091411
0.502130057852
0.502365117741
0.502570423819
0.502746433329
0.502893139824
0.503011556547
0.503102565164
0.503167817851
0.503209043004
0.503228680193
0.503228250951
0.503210353008
0.503176480022
0.503129101327
0.503068530103
0.502996333995
0.502911803051
0.502816009609
0.502708283625
0.502588670554
0.502456045297
0.502310492051
0.502151205861
0.501977826859
0.501789340494
0.501586243969
0.501367948857
0.50113486242
0.500886781971
0.500624248059
0.500347162554
0.500056473872
0.499752933896
0.499437941357
0.499113171486
0.498780742614
0.498443288342
0.498103999464
0.497766303379
0.497434617205
0.497113846416
0.496811363179
0.496531938521
0.496278231358
0.496052925751
0.495859670175
0.49570203703
0.495583595666
0.495509782927
0.495486298543
0.495514984727
0.495597094494
0.495734783244
0.495927845651
0.496173149196
0.496471407325
0.496823657986
0.497229119831
0.497686834589
0.498195373593
0.498753310407
0.499358408363
0.500008327359
0.500699628411
0.5014287321
0.502191577676
0.502983616372
0.503799857656
0.504635108079
0.5054839176
0.50634221457
0.507206670926
0.508073055678
0.508936595265
0.509794695203
0.510648183464
0.511490969233
0.512315702996
0.513131711044
0.513960110296
0.514783451531
0.515572608824
0.516362833224
0.517196185922
0.518044461769
0.518824060115
0.519530763545
0.520273819914
0.52087045483
0.521463996606
0.522093445958
0.522698395473
0.523436840869
0.523960001021
0.524527928382
0.52505039602
0.525549012516
0.525802849989
0.52597044073
0.52611966212
0.526306553107
0.526515247944
0.526729078506
0.526944805872
0.527160328899
0.527375432151
0.527590209398
0.527805997824
0.528024530108
0.528246341055
0.528468527604
0.528687081276
0.528900033033
0.529107223383
0.529310290776
0.529511113801
0.529710568994
0.529909290217
0.530107633066
0.530305990881
0.530504455598
0.530703056989
0.530901816009
0.531100803835
0.531299993551
0.531499542575
0.53169970071
0.531901107947
0.532104603469
0.532310841586
0.532519341238
0.532729662586
0.532942897972
0.533159394289
0.53337888073
0.533600503193
0.533823828378
0.534049235653
0.534277681903
0.5345103548
0.534748224161
0.534992352374
0.535243890521
0.535504003567
0.535773333429
0.53605169784
0.536338228312
0.536630924659
0.536927188488
0.537223452629
0.537516449817
0.537801196665
0.538072156806
0.538323939186
0.538552507038
0.538754159335
0.538925923361
0.539071517898
0.539183321445
0.539262314403
0.539310216081
0.539325459026
0.539300810695
0.539225819424
0.539095789257
0.538841457843
0.538554681015
0.538215079275
0.537831948363
0.537450143355
0.537048429625
0.500416648442
0.50034486513
0.500385086854
0.500508683099
0.500640777724
0.50075115994
0.500848826109
0.500941466343
0.501033922656
0.501126544237
0.501218318744
0.501306978935
0.501390264689
0.501465863973
0.501532091194
0.501587582852
0.501631742211
0.501664203572
0.501685353586
0.501695637168
0.501695984432
0.501686427351
0.501668548307
0.501641997888
0.501607218517
0.501563488508
0.501511060844
0.501448712982
0.501376095457
0.501291908674
0.501195672084
0.501085999584
0.500962613939
0.500824536145
0.500671505231
0.500503049849
0.50031965895
0.500120796278
0.499907037408
0.499678669755
0.499436586014
0.499181786181
0.498915778645
0.498640402056
0.498357912959
0.498070940534
0.497782649705
0.497496486375
0.497216345258
0.496946407872
0.496692684875
0.496461418454
0.496259403845
0.496091002726
0.495959599639
0.49586787288
0.495818060651
0.495809984045
0.495842671612
0.495917560418
0.496037232403
0.496203737724
0.496421864215
0.496695440944
0.49702426047
0.497410096242
0.497854533613
0.49835797676
0.498919177021
0.499535966208
0.50020479212
0.500921293178
0.501680333556
0.502476385749
0.503303727491
0.504156542782
0.505029149445
0.505915833097
0.50681111363
0.507709613003
0.508608432711
0.509503770885
0.510390232238
0.511263968592
0.512127662455
0.512981761315
0.513810893377
0.514611101455
0.515405579195
0.516203924579
0.516972503409
0.517684039119
0.518414938386
0.519142557689
0.519832826987
0.520489058622
0.521086985019
0.521530753882
0.522051696455
0.522765516987
0.523552553821
0.524095867399
0.524356342925
0.524638089202
0.524771618011
0.524940180884
0.525261757003
0.525749015702
0.526227379141
0.526649135439
0.527025106111
0.527366529286
0.527684034647
0.527983641154
0.528269560286
0.528544711365
0.528811949137
0.52907355159
0.529330195916
0.529579545131
0.529819120382
0.530048308683
0.530268442721
0.530481774659
0.530689426323
0.530892073071
0.531090114347
0.531283828259
0.53147344334
0.531659352714
0.531842140641
0.532022404797
0.53220057042
0.532376930535
0.532551844018
0.532725793607
0.532899410468
0.53307307029
0.533246786924
0.533419171594
0.533589927415
0.533759913113
0.533930337997
0.53410096112
0.53427038955
0.534437553504
0.534602027582
0.534763897428
0.534923134267
0.535079674016
0.535233414905
0.535384449339
0.535532715144
0.535678286127
0.535821445526
0.535962735299
0.536102897391
0.536243090347
0.536384476496
0.536528705086
0.536677415264
0.536832217372
0.536994700522
0.537166590654
0.537349102997
0.537543733404
0.537753100556
0.537977711247
0.538214482401
0.538460571886
0.538710951551
0.538955246887
0.539180362542
0.539360070249
0.53946745316
0.539484485035
0.539393525468
0.539191993604
0.538929881709
0.538759339933
0.500876105724
0.500771523987
0.500531324993
0.50040962068
0.500350324571
0.500304515548
0.500278899633
0.500276044505
0.500295847841
0.500335713935
0.500391975027
0.500459999237
0.500535912057
0.500615853887
0.500696864893
0.500776327884
0.500852451381
0.500923821574
0.500989903117
0.50104966237
0.501103451496
0.501150943502
0.501192317121
0.501226932241
0.501255189333
0.501275706376
0.501288201302
0.501291391111
0.501284534586
0.501266025441
0.501235033091
0.501190253055
0.501130870316
0.501055557828
0.500964391994
0.500856437306
0.500731753977
0.500590183492
0.500432273231
0.500258264269
0.500069289153
0.499866550603
0.499651885523
0.499427507321
0.499196091406
0.498960766064
0.498725217727
0.498493214829
0.498269149836
0.498057747267
0.497863600495
0.497690204086
0.497543220595
0.497427482237
0.497347481175
0.497306977299
0.497309443624
0.497356578219
0.497447041161
0.497578157939
0.497749378823
0.497961917165
0.49821887726
0.498524701939
0.498884656564
0.499302091739
0.499778837671
0.500315741132
0.500912346462
0.501566719226
0.502275517692
0.503033857015
0.503835502679
0.504673865016
0.505541929641
0.50643177109
0.507336351782
0.508250341546
0.509166793923
0.510079030537
0.510984738316
0.511884379427
0.512769484288
0.513630183314
0.514474045037
0.515308146505
0.516117540463
0.516868102913
0.517605668014
0.51834048069
0.51903817282
0.519681578916
0.520282666408
0.520862787927
0.521391692301
0.521920934674
0.52251240136
0.52316014842
0.523912610674
0.524626335265
0.525109298347
0.525291498389
0.525415629868
0.525582724164
0.525728009726
0.526016110225
0.526504035441
0.527124038343
0.52772547692
0.52824746534
0.528695371402
0.529085882731
0.529434805806
0.529752717376
0.530046971791
0.530322900746
0.530584776609
0.530835914246
0.53107727155
0.531307711571
0.53152608413
0.531733373097
0.531932557854
0.532125874785
0.532314398051
0.532498660581
0.5326791226
0.532856247139
0.53303056384
0.533202590943
0.533373099407
0.533542615208
0.533711350812
0.533879659629
0.534047943538
0.534216777658
0.534386612953
0.534557412678
0.534728214694
0.534897421021
0.535064467223
0.535230850557
0.535398440247
0.535567246986
0.535736173
0.535904312929
0.536071415836
0.536237657651
0.536403306525
0.536568662561
0.536733949186
0.536899392446
0.537064884472
0.537230324418
0.537395619052
0.537560645059
0.53772512382
0.537888542264
0.538050240851
0.538209499377
0.538365877104
0.53851886657
0.538668003225
0.538813418129
0.538955689254
0.539096178152
0.539238319496
0.539384443225
0.539536591868
0.539698070806
0.53987064644
0.540052448762
0.540239377448
0.540422357014
0.540582308302
0.540711679912
0.540798129163
0.540845109191
0.540909783366
0.541120822154
0.50140023636
0.500808840009
0.500191712691
0.499961438165
0.499882891992
0.499831608691
0.49980198641
0.499793853421
0.499809143874
0.499846290306
0.499903296415
0.499976833408
0.500063642857
0.500160030226
0.500263076759
0.500369765969
0.500478124253
0.50058592203
0.50069205379
0.500795413707
0.500895508831
0.500991138991
0.501082650791
0.501168862248
0.501249330147
0.501323008086
0.501389307654
0.501446564595
0.501493877121
0.501529622063
0.501552802027
0.501561684804
0.501555633159
0.501533464191
0.501494611287
0.501438308523
0.501364834032
0.501273584571
0.501165101291
0.501039703759
0.500898426255
0.500742366522
0.500573303426
0.500393260747
0.500204816665
0.500010768769
0.49981455555
0.499619782494
0.499430335815
0.499250695374
0.499086875641
0.49894309558
0.498824596221
0.498736445496
0.498682646469
0.498666671896
0.49869234687
0.498762194321
0.498876690188
0.499037305389
0.499245208764
0.499500870781
0.499805053264
0.500158394702
0.500562753871
0.501021245452
0.501536553498
0.502110500133
0.50274299897
0.503432714131
0.50417657431
0.504969904844
0.505805463797
0.506677086847
0.50757774624
0.50849855734
0.5094305331
0.510369983049
0.511312875713
0.512246065934
0.51316284169
0.514072798032
0.51496896204
0.515832301404
0.5166736958
0.517506691846
0.518310321647
0.519064525399
0.519760693723
0.520433867321
0.521101281217
0.521710749407
0.522301628806
0.522858229689
0.523435574812
0.524120157457
0.52486176552
0.525582314309
0.52619806279
0.526577108985
0.526709322505
0.526719503024
0.526800661827
0.526971002323
0.527217108393
0.527600937069
0.528103331206
0.5286595228
0.529190715085
0.529663423179
0.530076154942
0.530438171178
0.530761018137
0.53105392369
0.531323965235
0.531576547574
0.531815938848
0.53204501137
0.532264377103
0.532473119455
0.532670763316
0.532859160191
0.533041336623
0.533219043274
0.533392801275
0.533562682469
0.533728770086
0.533891256876
0.5340504796
0.534206827436
0.534360624739
0.534512196527
0.534661967863
0.534810328662
0.534957865617
0.535105281106
0.535252914527
0.535400304074
0.535545694733
0.535687469375
0.535825211004
0.535961345607
0.536098207992
0.536236274079
0.536374871949
0.536513208955
0.536651054472
0.536788498904
0.536925794854
0.537063232419
0.537200996474
0.537339237194
0.537478115373
0.537617731852
0.537758170456
0.537899376913
0.538041319578
0.538183974994
0.538327189036
0.538470778064
0.538614832552
0.5387594057
0.538904615381
0.539050946287
0.539198867692
0.539349344459
0.539504646997
0.539665885269
0.539833474943
0.540009016745
0.540191998306
0.540379367283
0.54056782843
0.540750617974
0.540916862484
0.54106374516
0.541192711994
0.541322577404
0.541520347964
0.541898557429
0.501881016667
0.500244619536
0.499400021434
0.499369786027
0.499457226989
0.499498483489
0.499519040233
0.499537716019
0.499568006788
0.499615272494
0.499681498427
0.499764738172
0.499863162673
0.4999734199
0.500093133576
0.500219255574
0.500349863971
0.500482707146
0.50061667252
0.50074981568
0.50088182157
0.501011575303
0.501138413075
0.501261245596
0.501379865286
0.501492542279
0.501598491373
0.501696139091
0.501784359477
0.501861348985
0.50192594439
0.501976630041
0.502012388543
0.502031797666
0.502034706937
0.502020130279
0.501988043523
0.501938259921
0.501871390482
0.501787741402
0.501688612703
0.501575206876
0.501449519568
0.501313658177
0.501170304982
0.501022234768
0.500872860728
0.500725412267
0.500583707206
0.500452145232
0.500336562481
0.500241182794
0.500171774157
0.500133617201
0.500131472657
0.500169590423
0.50025188342
0.500377804191
0.500545999738
0.500755712639
0.501007163288
0.501300692893
0.501637986635
0.50202027456
0.50245201235
0.502936845891
0.503478544213
0.5040796396
0.504740204661
0.505457770439
0.506230307129
0.507052277174
0.507914970056
0.508809971472
0.509733294492
0.510675110347
0.511621619522
0.512567220726
0.513515545451
0.51445694855
0.515366436223
0.516278901837
0.517176956735
0.518046289468
0.518874467214
0.519656239825
0.520413146572
0.521138133312
0.521831091218
0.522510514438
0.523134769328
0.523748710629
0.524429129231
0.525117222196
0.525819747427
0.526504165935
0.527104310129
0.527577517093
0.527902091849
0.528044869972
0.528075029113
0.528117381967
0.528257881219
0.528488238338
0.528802097954
0.52920388206
0.529661234573
0.530134214927
0.530586215549
0.53100061007
0.531373570388
0.531708181944
0.532010475814
0.532286443013
0.53254129722
0.532779400355
0.533004333113
0.533218146371
0.533421181332
0.533612627314
0.533792658691
0.53396375281
0.534128656624
0.534288909811
0.534444924592
0.534596743487
0.534744404419
0.534888107206
0.535028204064
0.535165166508
0.535299527103
0.53543200738
0.535563201137
0.535693676728
0.535824143648
0.535955321787
0.536087347657
0.536219088172
0.536348455486
0.53647340267
0.53659400496
0.536712821618
0.536832162109
0.536952727452
0.53707397944
0.537195300112
0.537316413163
0.537437340609
0.53755824127
0.537679128666
0.537800096431
0.537921220938
0.538042588137
0.538164354363
0.538286604465
0.538409440971
0.538532914458
0.538657092089
0.538781947684
0.538907493773
0.53903395698
0.539161534626
0.539290582033
0.539421798973
0.539556040941
0.539694511386
0.539839423193
0.539991985437
0.540152904146
0.54032379263
0.540503964958
0.540690604932
0.54088126877
0.541071019357
0.541251192484
0.541421354964
0.541586797192
0.541770724511
0.542036870601
0.542472178798
0.502159321815
0.499036209304
0.498386101401
0.49886860448
0.499179104819
0.499318051938
0.499391479557
0.499447238478
0.499510468053
0.499588255686
0.499683943818
0.499795952149
0.499923011079
0.500061920733
0.500210834052
0.500366755072
0.500528201172
0.500692665288
0.500859157088
0.501026213529
0.501193057896
0.501358134185
0.501521423546
0.501681425671
0.501837411123
0.501988175968
0.502132863902
0.502269687517
0.50239760608
0.502514882463
0.502620399464
0.502712395189
0.502790127385
0.502852411324
0.502898630567
0.502928087533
0.502941028562
0.502937020516
0.502916774446
0.502880789028
0.502830368204
0.502766728139
0.5026918312
0.502607600818
0.502516483149
0.502420692257
0.502323115518
0.502226350789
0.502133162222
0.502046911155
0.501974156713
0.501918476083
0.501886315967
0.501885039701
0.501921210681
0.502000890513
0.5021274515
0.502297779536
0.50251023991
0.502763031247
0.503055208299
0.503384528602
0.503751593795
0.504158613437
0.504613025158
0.505118946157
0.50568195291
0.506306394772
0.506991959368
0.507734613865
0.508531317846
0.509379327126
0.510265936342
0.511177128062
0.51211002689
0.513058796236
0.514008442876
0.514953115952
0.515902373301
0.516838848992
0.517753544222
0.518631895287
0.519469690561
0.520292140056
0.521088365855
0.521846229025
0.52256359018
0.523240479832
0.523914027208
0.524608976584
0.525282870921
0.52597018149
0.526661137299
0.52731083224
0.527915622053
0.528429744963
0.528827168925
0.529102157482
0.529276612279
0.529364563957
0.529439221878
0.529570646346
0.529781290214
0.530055912022
0.530385880587
0.530761116901
0.531159976342
0.531561556889
0.53194803681
0.53230974022
0.532642465087
0.532946287519
0.533223720264
0.533478234999
0.533713405358
0.533932731308
0.534139027571
0.534333887326
0.534517415353
0.534689164873
0.534849979638
0.53500232306
0.535148733595
0.535290578232
0.535428323054
0.535562058725
0.535691884163
0.535818016319
0.535940837239
0.536060851107
0.536178599119
0.536294587577
0.536409268997
0.536523255444
0.536637319796
0.536752187779
0.536867749231
0.536982473325
0.537094009174
0.537200373994
0.537302175536
0.537401939423
0.53750197151
0.537602965949
0.537704570469
0.53780638764
0.537908281944
0.538010403207
0.538112794453
0.53821555493
0.538318705915
0.538422321079
0.538526469637
0.53863120799
0.53873664047
0.538842896269
0.538950053131
0.539058193456
0.539167329253
0.539277568734
0.539389206922
0.539502558656
0.539618038084
0.539736517174
0.539858997575
0.539986733496
0.540121793943
0.540265412523
0.540418398948
0.540582279058
0.540756548004
0.540938811143
0.541127647357
0.5413199279
0.541509707504
0.541698692732
0.54189518864
0.542124271084
0.542442714421
0.54291483298
0.502122947469
0.497361043101
0.497462521664
0.498590732939
0.499037109292
0.49924107443
0.499368386219
0.499479314526
0.499597790451
0.499728504253
0.499874599111
0.500033513444
0.50020494137
0.500385775012
0.500575047032
0.500769971711
0.500969566633
0.501171635692
0.501375601807
0.501579495463
0.50178309677
0.501985031367
0.502184628812
0.502380797497
0.502573300226
0.502760437437
0.502941561019
0.503115206616
0.503280404302
0.503435507045
0.503579560979
0.503711229512
0.503829675133
0.503933741018
0.504023349576
0.504097725236
0.50415698415
0.504201132046
0.504230883066
0.504246687029
0.504249927066
0.504241736318
0.504223883818
0.504197958936
0.504165795227
0.504128882887
0.504088786167
0.504046798377
0.504004409609
0.503963363641
0.503928946487
0.503907348719
0.503906717979
0.503938821515
0.504015510427
0.504147179422
0.504334309423
0.504570157433
0.504850513621
0.505170240014
0.505522327096
0.505899195397
0.506295692431
0.506721735589
0.50718602609
0.507696530969
0.508261102551
0.508888721809
0.509582719024
0.510334947074
0.511137808889
0.511992074291
0.512887419319
0.513797351081
0.514736508659
0.51569093059
0.516638014046
0.517570045442
0.51847541877
0.519349232954
0.520212510491
0.521052845267
0.521857827115
0.522627306773
0.523357155738
0.524051410533
0.524731851408
0.525418264965
0.526113568364
0.526802614662
0.527454444703
0.528091192474
0.528676069207
0.52919655382
0.529651156961
0.530017804168
0.530293796556
0.530486317644
0.530625390528
0.530740001265
0.530882242672
0.531077914363
0.531323577645
0.53160592745
0.531917404013
0.532249995208
0.532592672501
0.532934735832
0.5332663645
0.533580906725
0.53387449067
0.534145930399
0.534395937711
0.534626337092
0.53483958316
0.535038370811
0.535224857837
0.535400170892
0.535564276586
0.535716976707
0.535859401449
0.535993844781
0.536122474618
0.536246539912
0.536366559594
0.536482692691
0.536595064054
0.536703876021
0.536809474498
0.536912304903
0.537012860843
0.537111615882
0.537209125736
0.5373060809
0.537403388809
0.53750169854
0.537600600822
0.53769832916
0.537792369521
0.537881176941
0.537965601021
0.538048049285
0.538130580691
0.53821381675
0.538297575704
0.538381593928
0.538465905528
0.538550617067
0.538635841003
0.538721622356
0.538807941556
0.53889483404
0.538982340935
0.53907055207
0.539159585078
0.539249596387
0.539340710759
0.539433077548