/*--------------------------------*- C++ -*----------------------------------*\
| =========                 |                                                 |
| \\      /  F ield         | OpenFOAM: The Open Source CFD Toolbox           |
|  \\    /   O peration     | Version:  v1806                                 |
|   \\  /    A nd           | Web:      www.OpenFOAM.com                      |
|    \\/     M anipulation  |                                                 |
\*---------------------------------------------------------------------------*/
FoamFile
{
    version     2.0;
    format      ascii;
    class       volScalarField;
    location    "13";
    object      sensitivity;
}
// * * * * * * * * * * * * * * * * * * * * * * * * * * * * * * * * * * * * * //

dimensions      [0 2 -3 0 0 0 0];


internalField   nonuniform List<scalar> 
12225
(
-3.03208710703
-9.06257257341
-6.18728810871
-7.29171957705
-6.83933996273
-7.08070663395
-7.17981811772
-7.43571777244
-7.69890134692
-7.93330523285
-8.06380434294
-8.01327000307
-7.75894950844
-7.50418738171
-7.9263323424
-10.2964818705
-15.1833194037
-18.130522956
-18.7407889251
-7.46508344046
-9.62118024538
-9.22127281889
-9.88474134398
-10.3771182552
-11.0551545643
-11.7435349786
-12.4313982499
-13.056845364
-13.57925002
-13.9387465174
-14.1726302056
-14.5655730729
-15.7734790198
-18.6566111797
-22.7237435309
-23.0087555478
13.0588092558
-13.1744950649
-7.28178259834
-9.10234609655
-8.66359722015
-9.02613275758
-9.23755038817
-9.53287893495
-9.79638687272
-9.99206645253
-10.0787897419
-10.0423179894
-9.96724622423
-10.1637077757
-11.2482827978
-13.8333844133
-17.1307206458
-17.4972697284
-21.1725920586
-9.57309910598
-9.00830769738
-9.35125146728
-9.48118983109
-9.86572393584
-10.2525140368
-10.6877234513
-11.0785366267
-11.3736678657
-11.5163972273
-11.4858578826
-11.3610567062
-11.4112685748
-12.0999920649
-13.7056214189
-15.344405221
-14.8258812528
-0.249052262342
-9.05714440888
-8.44699962856
-8.84461689457
-8.91918865006
-9.20857177113
-9.52666707792
-9.8877538426
-10.241421539
-10.5456281811
-10.7615723585
-10.8805621414
-10.9814488197
-11.2752949072
-12.0386252109
-13.2517084166
-14.0756912103
-13.3065518198
-9.31643188018
-9.82011175927
-8.87746891218
-9.35145599029
-9.35989529985
-9.58973078548
-9.81221193129
-10.066495705
-10.3064936219
-10.5057325465
-10.6423645798
-10.7277545891
-10.8458755839
-11.1615533717
-11.8161151447
-12.6454426682
-12.9927080691
-12.2539687242
-7.51456759111
-9.28919510888
-9.08210856807
-9.36940962171
-9.45615723947
-9.65085172842
-9.85625005662
-10.0732275371
-10.2738371977
-10.4350117536
-10.5466225834
-10.6301821024
-10.7622547649
-11.0563008959
-11.556402738
-12.0603791798
-12.1230121961
-11.4780815567
-8.43824706152
-9.38429500463
-9.27433872973
-9.50861960308
-9.60036304468
-9.75532417578
-9.92257706597
-10.0926255077
-10.2485570912
-10.3725909257
-10.4627092889
-10.5436220441
-10.6758630094
-10.9242304139
-11.2720529302
-11.5353328312
-11.441539174
-10.8933693348
-8.96492539186
-9.39912393642
-9.47821114132
-9.63235718007
-9.73721650467
-9.85674054908
-9.99132787812
-10.1200012366
-10.2363670516
-10.327248807
-10.3964059124
-10.4673758724
-10.5824537663
-10.769103791
-10.9824983287
-11.0798285217
-10.9071915826
-10.4423628677
-9.46956657453
-9.45030902393
-9.66652929962
-9.7520639908
-9.86107294326
-9.94951233009
-10.0543700761
-10.1470682517
-10.2291048495
-10.2911407817
-10.3398878056
-10.394723392
-10.481003442
-10.6017474538
-10.7060962464
-10.6943271849
-10.4862303891
-10.0883835365
-9.93454569967
-9.49893647416
-9.83530296279
-9.85509373043
-9.9644365904
-10.0260653252
-10.1053222472
-10.1678932952
-10.2209774152
-10.2581653103
-10.2868881573
-10.3209146614
-10.3721553415
-10.4306693257
-10.4514441246
-10.3703927296
-10.1492692735
-9.80407850354
-10.2356825357
-9.54992608342
-9.93786223955
-9.91382011432
-10.0167114042
-10.0588731628
-10.1177963941
-10.1580319072
-10.1895723535
-10.2077735402
-10.218755745
-10.2315961359
-10.250097075
-10.2598058868
-10.2254038049
-10.1063314664
-9.88548674152
-9.57979567398
-10.4244577255
-9.60747155168
-10.0027265427
-9.9495851165
-10.0418798392
-10.0688372215
-10.1107472208
-10.1332144759
-10.1468249248
-10.1481729662
-10.1423921697
-10.1345761002
-10.1229028608
-10.0933166528
-10.0195777392
-9.87770130911
-9.66225532862
-9.38938848726
-10.5627145674
-9.65601387874
-10.0416927027
-9.96472167244
-10.0415381517
-10.0533586061
-10.0773866749
-10.0825833787
-10.0786952469
-10.0637133554
-10.0405603433
-10.0111977326
-9.97172217436
-9.90949148847
-9.80734584755
-9.65251249942
-9.44682562274
-9.20483760334
-10.6687869948
-9.70057084009
-10.0694057548
-9.97389655407
-10.0307430658
-10.026393573
-10.0307999116
-10.017936162
-9.99583939374
-9.963055012
-9.92123340448
-9.87075298958
-9.806625366
-9.71981907374
-9.59967157526
-9.44076556612
-9.24813205545
-9.03466561181
-10.6992241942
-9.7420595401
-10.0774250362
-9.97476218633
-10.0101698013
-9.99085973575
-9.9758706806
-9.94557839029
-9.90517668716
-9.85505030268
-9.79506081536
-9.72535825743
-9.6417988054
-9.53855240681
-9.40962585645
-9.25352671838
-9.07638527291
-8.88890659887
-10.6547916928
-9.75505367163
-10.054771643
-9.95155405684
-9.96694485821
-9.93474433629
-9.90240884898
-9.85642859361
-9.79997720833
-9.73417895059
-9.65861909557
-9.5738168363
-9.47699492355
-9.36477414655
-9.23417736656
-9.08560932588
-8.92500476192
-8.76103408219
-10.5372013056
-9.75912995334
-9.99699742197
-9.90316281623
-9.89896610657
-9.85738534209
-9.81068377243
-9.75240376769
-9.68322478323
-9.60562044301
-9.51896114825
-9.42453475533
-9.32067812639
-9.20573918272
-9.07834960712
-8.9397392648
-8.7952254782
-8.65168764952
-10.4026706092
-9.75676492291
-9.92790760779
-9.84582844259
-9.82365430566
-9.77525463641
-9.71768979819
-9.65055817466
-9.57277412157
-9.48774810005
-9.39492244476
-9.29622796325
-9.19071693015
-9.07772986554
-8.95660329871
-8.82883133212
-8.69894961989
-8.5725993761
-10.3487849232
-9.73015537076
-9.89960179197
-9.80905830533
-9.78514757951
-9.73031830503
-9.66848680226
-9.59647735224
-9.51509447787
-9.4271433048
-9.33247865027
-9.23348517512
-9.12929868783
-9.01997169894
-8.90485904565
-8.78540993095
-8.66590699346
-8.55137554024
-10.4231860564
-9.74816087527
-9.91271862392
-9.81381733031
-9.78932636454
-9.73036315419
-9.66601474575
-9.5913900459
-9.50811773863
-9.41855387931
-9.32293236602
-9.22354001862
-9.12046468942
-9.01317628718
-8.90146659935
-8.78639812169
-8.67152562913
-8.55964641545
-10.2647507693
-9.68191091002
-9.98124650222
-9.86889183872
-9.85361889646
-9.79025905124
-9.72509862005
-9.64829738711
-9.56501188587
-9.47601306904
-9.38280581425
-9.28691118835
-9.18835570088
-9.08742168479
-8.98406875222
-8.87907768716
-8.77720241082
-8.68453480589
-11.3583267869
-9.97110892423
-9.93598164909
-9.85177227689
-9.82787338865
-9.76295061619
-9.69585635154
-9.61722095099
-9.53131622058
-9.43886883128
-9.33935610721
-9.23750624438
-9.133497986
-9.0267722954
-8.91594091589
-8.80201189498
-8.68511521675
-8.56711883068
-7.64389777475
-9.22549327109
-10.3707976652
-10.152373741
-10.1771381755
-10.0942880666
-10.0283200452
-9.94721098065
-9.86396018654
-9.7765339118
-9.68859428516
-9.59762733932
-9.50451745442
-9.41035466964
-9.31547140122
-9.21983831553
-9.12892885411
-9.03064852343
-19.1940319561
-10.8151981679
-9.71131921232
-9.78943369551
-9.69708490276
-9.63717835902
-9.55765691057
-9.47650112565
-9.39211474452
-9.30489740951
-9.21457824011
-9.1256973776
-9.03626890024
-8.94707198293
-8.85929197551
-8.77502305831
-8.69598509826
-8.66755668098
9.69036177561
-9.18127286845
-10.8070129043
-10.6221611263
-10.6726701714
-10.558903561
-10.5023678234
-10.4128608565
-10.3222519351
-10.2167449911
-10.0959472901
-9.9603657695
-9.81125432391
-9.64735867677
-9.4718717184
-9.29019346795
-9.11161199826
-8.87677684328
-46.7936404713
-8.48979163097
-10.8460658291
-9.81192532059
-9.96815336274
-9.85143074106
-9.78032280808
-9.7095142699
-9.64351525251
-9.5844823115
-9.53262475468
-9.48462098952
-9.44458573379
-9.41894208133
-9.41199874293
-9.423664471
-9.44287093061
-9.4998158408
32.678972393
-16.5048456826
-8.71853900323
-11.1265197625
-10.3589243608
-10.4007067804
-10.2550218497
-10.136939455
-10.0099646006
-9.87751526418
-9.74444906889
-9.61179309385
-9.47911065257
-9.34663641484
-9.21499419575
-9.08424689167
-8.95201034067
-8.75517345976
-36.8932238281
-5.4288640453
-13.0196820687
-10.6120552525
-11.3190111032
-11.0265630913
-11.0452473373
-10.9685173988
-10.9202033882
-10.8639593429
-10.8057642792
-10.7408615079
-10.668321419
-10.58565568
-10.4874270015
-10.3671619761
-10.2122164614
-10.0803413272
-4.96379701967
-8.4028364982
-7.27072876201
-7.40877126601
-7.23362470096
-7.1169203614
-6.98093992522
-6.85270996369
-6.72501269842
-6.60300304217
-6.48695531689
-6.37733219303
-6.26940993905
-6.15624471619
-6.03390913173
-5.91211751994
-5.82910341386
-5.79167532438
-0.0132602884721
-0.0162613463914
-0.0106389539894
-0.000352809746802
-0.0104227462554
-0.0359593283768
-0.0549865578301
-0.0825147583182
-0.120811229319
-0.16801553006
-0.220427452473
-0.274309685001
-0.326405836286
-0.374387796569
-0.416887811399
-0.453229224499
-0.483520544139
-0.508084505654
-0.527731788826
-0.543186797812
-0.555448762945
-0.565246502425
-0.573436402012
-0.580588241698
-0.587234218776
-0.593693288053
-0.600186483553
-0.606756619516
-0.613259156421
-0.619496543643
-0.625088018107
-0.629656402099
-0.632664619244
-0.63367116444
-0.632120205214
-0.627541742824
-0.619493966577
-0.607573873317
-0.591423776534
-0.570751882865
-0.545359106457
-0.515067179291
-0.479814609721
-0.439544264515
-0.394323648453
-0.344225882169
-0.289431639939
-0.23018245995
-0.16676339572
-0.0995070822598
-0.0287942626589
0.0449610977934
0.121344754252
0.19991000004
0.280259582315
0.362095774241
0.445058415824
0.528892012736
0.613236360508
0.697794161936
0.782223268194
0.866028134628
0.948438324762
1.02706686212
1.09911890987
1.16622501763
1.22930989598
1.28889208758
1.34549738168
1.39923641835
1.45022836885
1.49831320105
1.54336682135
1.58515538436
1.6233360604
1.6576119715
1.68755664699
1.71292864694
1.73342973501
1.74887764404
1.75900951021
1.76389364231
1.76351963209
1.75817211096
1.74821809094
1.73407832038
1.71665466894
1.69611666795
1.673187115
1.64902069105
1.62338680828
1.59631196412
1.56796649076
1.53799703049
1.50525107445
1.466998504
1.41871145899
1.35465609817
1.2699377621
1.16616517173
1.04712584634
0.916176488316
0.771608849114
0.588018309486
0.374141190358
0.196486457283
0.0196486271325
-0.134405478518
-0.103842361629
-0.182671704955
-0.234396206472
-0.277677597455
-0.314261063836
-0.345383229069
-0.37208158176
-0.395225280829
-0.415425553049
-0.43307918872
-0.448404883053
-0.461485401989
-0.472333865915
-0.481054004054
-0.487803576326
-0.492713031645
-0.495836802044
-0.497162772172
-0.496705983873
-0.494609238144
-0.491097556191
-0.486653298873
-0.481813957797
-0.47664077808
-0.471430859783
-0.466483646631
-0.461988919021
-0.458096149909
-0.45486477693
-0.452270168512
-0.450192397055
-0.44847212462
-0.446964550511
-0.445473997437
-0.443831130099
-0.441883785004
-0.439534879903
-0.43672092816
-0.433373603421
-0.42948436918
-0.425132803411
-0.420437117551
-0.415469558922
-0.410245910862
-0.404755488998
-0.399062506184
-0.393281809735
-0.387487395281
-0.381690722425
-0.375977457783
-0.370455670689
-0.365234397781
-0.360271035679
-0.355373381994
-0.350250069847
-0.344759014325
-0.338732076694
-0.331802921386
-0.323372771765
-0.312847259702
-0.299906568604
-0.284687780544
-0.267870494244
-0.250609149801
-0.235063562421
-0.22278178477
-0.214607843569
-0.211210471828
-0.211497598322
-0.208594793426
-0.197899191964
-0.123360987154
-0.017423194466
0.00932634110945
-0.00576219162737
-0.0325915347386
-0.0531931479963
-0.0641542621753
-0.067675897146
-0.0677544144662
-0.0648611556992
-0.0584743978086
-0.0483065970247
-0.0345853738732
-0.0179095387139
0.00102601842041
0.0214881109294
0.043031101481
0.0652900070817
0.0882841591194
0.11206232608
0.136996304316
0.163386128533
0.191696004141
0.222295531094
0.255611572602
0.291934463813
0.331535391659
0.374605646964
0.421256957693
0.471583669528
0.525582053361
0.5832774731
0.64457821147
0.709445157172
0.777774814049
0.84946737334
0.924372954139
1.0023644352
1.08329149395
1.16698986924
1.25332108903
1.34210515937
1.43319063526
1.52637932197
1.62150310017
1.71834457411
1.81669682351
1.91630640742
2.01690760237
2.11819106486
2.21981399216
2.32145379171
2.42278150151
2.52349345565
2.62329970016
2.72187914209
2.81887613356
2.91388392217
3.00648201773
3.09626976974
3.18288660801
3.26595970508
3.34530887542
3.42141877781
3.49736339443
3.57270335266
3.64268881608
3.70493562107
3.75782492803
3.80027609093
3.83157286612
3.85143464161
3.85988528741
3.85717799091
3.84374279216
3.81999870158
3.7863187122
3.74289524484
3.68976897163
3.6266290302
3.55289054917
3.46769547343
3.37015321865
3.25942982051
3.13516388373
2.99762077766
2.84809620497
2.68852318006
2.52160844412
2.35098859931
2.18012820052
2.01258558288
1.8517627438
1.70031238365
1.55812556591
1.42142929009
1.28734964815
1.15821552589
1.03824858385
0.926882191445
0.810810996216
0.674122556596
0.518811442074
0.35477849405
0.216747665096
0.063832568634
-0.190504163018
-0.325284793322
-0.338396207022
-0.351068208297
-0.457463886617
-0.531804912395
-0.596873667154
-0.654764335955
-0.706757323622
-0.753502344993
-0.79567358944
-0.833801861131
-0.868367345695
-0.899787640904
-0.928372713235
-0.954451993764
-0.978446247446
-1.00082329199
-1.02200142916
-1.04227714681
-1.06188122278
-1.08099329583
-1.0997318264
-1.11812383832
-1.13586319006
-1.15254361561
-1.16850246573
-1.18353599582
-1.19732914408
-1.20950552133
-1.21980568572
-1.22800825936
-1.23389536094
-1.23726247813
-1.23796467605
-1.23593526472
-1.23118290566
-1.22380959363
-1.21394671856
-1.20172992091
-1.18728792157
-1.17079578344
-1.15245813223
-1.13243473042
-1.11081214927
-1.08767193661
-1.06318333181
-1.03764477648
-1.0113612258
-0.984549385448
-0.957427742208
-0.930273539404
-0.903422668668
-0.877207006265
-0.851863617799
-0.827525038774
-0.804394553524
-0.782748136403
-0.762786088925
-0.744581266296
-0.728184810282
-0.713756392753
-0.701614798628
-0.691967298087
-0.684771886471
-0.679786132791
-0.676938263684
-0.675288837877
-0.672996038262
-0.671905176724
-0.670397347331
-0.668243095612
-0.657702995821
-0.638868927707
-0.599806131358
-0.0034129110914
-0.0431912921866
-0.0558591061312
-0.0326249619357
0.0094090695725
0.0522225852845
0.0873403669126
0.114627704222
0.13715576343
0.15797938193
0.17910617353
0.20149944889
0.225495421706
0.251137594868
0.27829201709
0.306852300748
0.336608921814
0.367442459663
0.39912981543
0.43152263451
0.464383175626
0.497574917186
0.530881213079
0.564184300397
0.597369080486
0.630390240807
0.663234086713
0.695959820406
0.728693799545
0.761592413368
0.794880909115
0.828797332502
0.863629238065
0.899611088596
0.937029736721
0.976118560552
1.01707555587
1.06007656319
1.10525856228
1.15270649898
1.20243946754
1.25443937564
1.30860236304
1.36478889512
1.42277212334
1.48228507589
1.54298633979
1.60447299659
1.66629898963
1.72799881081
1.78905134398
1.84893769754
1.90717623093
1.96330573372
2.01687433335
2.06746327781
2.11465866324
2.15812019259
2.19755567668
2.23281753312
2.2636997443
2.29011994475
2.31102041432
2.32539118631
2.33858939566
2.35391271121
2.3724315088
2.39464447435
2.42082266307
2.45089009392
2.48440443023
2.52053747327
2.55812332029
2.59569324489
2.63146936073
2.66350023186
2.68967206009
2.70784807863
2.71585516126
2.71163452847
2.69327390333
2.65920424734
2.60823859217
2.53973855905
2.45372195244
2.3507252678
2.2322002508
2.10032766925
1.95832873971
1.81076896315
1.66100467684
1.5102103456
1.35930451341
1.21244068459
1.07672906127
0.956407200078
0.847995382232
0.743504524118
0.63285518414
0.50307326823
0.371274701675
0.2621905259
0.166856985365
-0.0311210768519
-0.266095714578
-0.336229022773
-0.331007573508
-0.365903597802
-0.455947696182
-0.571031315929
-0.648819467968
-0.709909092
-0.761193019116
-0.806532122833
-0.847757450868
-0.88600580352
-0.921846229606
-0.955575118894
-0.98726093016
-1.01678562489
-1.04397609496
-1.06871588999
-1.09096260879
-1.1106911194
-1.12785864239
-1.14243260886
-1.15439493027
-1.16375744147
-1.17058182372
-1.1749912867
-1.1772633199
-1.17774726638
-1.17684572607
-1.17459702892
-1.17141478082
-1.16758334615
-1.16335738022
-1.15893308545
-1.15442439206
-1.14989939662
-1.14539267256
-1.14092802424
-1.13646796059
-1.13193607783
-1.12726343952
-1.12245478404
-1.11755389585
-1.11256855676
-1.10744565536
-1.10212157884
-1.09660193143
-1.09095541763
-1.08524990507
-1.07955047456
-1.07395582922
-1.06854183818
-1.06331748236
-1.05823940088
-1.05323760877
-1.04824055234
-1.04315803188
-1.03795930735
-1.03258463187
-1.02689985797
-1.02072218311
-1.01389737924
-1.0061513934
-0.997462553167
-0.987702061324
-0.977376266554
-0.966368347315
-0.955295876423
-0.946146569652
-0.939562219586
-0.937306595576
-0.938421179448
-0.93754142997
-0.930057735522
-0.913916294304
-0.881878725033
-0.0603851798056
-0.0697126236853
-0.0121014001143
0.0650876594872
0.142212589939
0.20419601833
0.246488175714
0.273739683465
0.292866203539
0.30922918504
0.326014382996
0.344831556961
0.366332995331
0.39074161414
0.418007527394
0.448037887619
0.480630379463
0.515618383687
0.552749070567
0.591840360242
0.632630182205
0.674901212001
0.718406521026
0.762959013949
0.808328051549
0.854366943645
0.900929429166
0.947923540117
0.99528007562
1.04297914211
1.09104156453
1.13948175522
1.1883620182
1.23775170934
1.28771595035
1.33829899809
1.38958785418
1.44161890067
1.4944336412
1.54806204425
1.60251545364
1.65778437267
1.71383120368
1.77059720199
1.82799275413
1.88589894815
1.94416183353
2.00261158302
2.06104270796
2.11922638901
2.17695985561
2.23403943609
2.29023727586
2.34539579759
2.39936472486
2.45201861923
2.50325107298
2.55300326433
2.60118791721
2.64772278255
2.69259738189
2.73554613778
2.77685590365
2.8141813108
2.84326725258
2.86260053792
2.87224368673
2.87264853551
2.8646475872
2.8493474705
2.82804197659
2.8020731346
2.7726959559
2.74100501695
2.70780993789
2.67360021017
2.63846082654
2.60205079157
2.5635263159
2.5215769946
2.47445000571
2.42009502368
2.35638189499
2.28136795358
2.19352303592
2.09224058194
1.97781888262
1.85128217222
1.7142210467
1.56774518083
1.41366076693
1.255753236
1.10018256498
0.952753784078
0.815685700042
0.68494029156
0.552670105219
0.413588861496
0.274283499974
0.157016011246
0.0829018239924
-0.00682755645221
-0.189492949525
-0.370242964547
-0.396729787878
-0.351193116445
-0.373051191269
-0.466750803831
-0.58853437302
-0.706091517976
-0.795035382805
-0.867759448374
-0.929986844827
-0.985043199924
-1.03439146865
-1.07881493766
-1.11867168497
-1.15419297467
-1.18551572111
-1.21275754363
-1.2361341328
-1.25604042045
-1.27302421937
-1.28766734298
-1.30049938453
-1.31204692735
-1.32276964412
-1.33301576349
-1.34299005362
-1.35280905002
-1.36249055267
-1.37174910277
-1.38020589982
-1.38803547182
-1.39497805713
-1.40082798017
-1.40538891642
-1.40847356038
-1.40992775547
-1.40965372237
-1.40763984873
-1.40391213352
-1.39847459319
-1.39136219375
-1.38271333566
-1.37280810181
-1.36199151079
-1.35058942704
-1.33888482816
-1.32712906018
-1.3155183701
-1.30420489153
-1.2932873423
-1.28282382813
-1.27283437001
-1.26338542908
-1.25455416352
-1.24636998006
-1.23881285391
-1.23183938786
-1.22540431659
-1.21955910474
-1.21439630874
-1.20998780512
-1.20632179627
-1.20317006233
-1.20007699538
-1.19656815709
-1.19226202515
-1.18656382399
-1.18023764946
-1.17450301125
-1.17141451329
-1.17133874276
-1.17556826042
-1.18295742131
-1.18461978369
-1.17887871612
-1.16722186254
-1.14126398162
-0.0875972209141
0.0442365802251
0.165227902846
0.23877504501
0.29463927165
0.332874601054
0.354391357349
0.365561689823
0.372809365813
0.380348355548
0.390280276297
0.403505398782
0.420262330542
0.440528415715
0.464098399037
0.490758677517
0.520226455105
0.552273906228
0.586643465891
0.623117677104
0.661462538702
0.701513019177
0.743055873729
0.785946208028
0.830034495583
0.875216664499
0.921376775492
0.968465716423
1.01643232768
1.06526459934
1.1149499143
1.1655139069
1.21697544181
1.26932166505
1.32258014199
1.37673126658
1.43174049383
1.48754943559
1.54409804623
1.60126839907
1.65892742987
1.71689414479
1.77495307759
1.83284495668
1.89027079288
1.94689326429
2.00233974586
2.056193868
2.10802823226
2.15743493545
2.20397222162
2.24724700788
2.28691934031
2.32271199701
2.35440061558
2.38185451333
2.40499072192
2.42381447613
2.4383973862
2.44886048929
2.45542290433
2.45833221044
2.45812745362
2.4580964142
2.46135417698
2.46787122646
2.47717838791
2.48831279899
2.50014391319
2.51149719911
2.52126590078
2.52846376849
2.53224814084
2.5319110548
2.52682720522
2.51642488035
2.50009419106
2.47715215339
2.44675166854
2.40795787964
2.35972793928
2.30104372503
2.23104044373
2.14909421345
2.05485688681
1.94810792023
1.82875888995
1.6970094695
1.55363654842
1.40154450218
1.24447568431
1.08653457356
0.931239965803
0.776463770751
0.617640707035
0.449109984147
0.281220956765
0.132082583522
0.0252758975968
-0.0478922276597
-0.144126424802
-0.299557175299
-0.438200242308
-0.465971081526
-0.41567335621
-0.415135618788
-0.494970144757
-0.612321158153
-0.731941309839
-0.838346457922
-0.922948132872
-0.991736390611
-1.04850744082
-1.0962225853
-1.13681109738
-1.1717076621
-1.20198809991
-1.22849431511
-1.25188134269
-1.27265206629
-1.29126396647
-1.30817254266
-1.32377886408
-1.33835688503
-1.35206474202
-1.36493793168
-1.37693693999
-1.3879280854
-1.39774320189
-1.40618449678
-1.41295809411
-1.41793296487
-1.42122299944
-1.42291813096
-1.42316893998
-1.42218526121
-1.42018052434
-1.41736085784
-1.41394560565
-1.41018280557
-1.40632324656
-1.40251276748
-1.39879946427
-1.39519678048
-1.39173603442
-1.38844458116
-1.38533135839
-1.38239852413
-1.37965312017
-1.37711098065
-1.37479164936
-1.37272015899
-1.37094079047
-1.36951875975
-1.36848918326
-1.36790351194
-1.36784962976
-1.36841118187
-1.36958740381
-1.37130746554
-1.37347729898
-1.37596565364
-1.37854982243
-1.38093958569
-1.38279078875
-1.38370903257
-1.38328049077
-1.38091622877
-1.37581773501
-1.36854380034
-1.36005820354
-1.35164269957
-1.34527468263
-1.34179771458
-1.3424550473
-1.34643969389
-1.34448182832
-1.33552535408
-1.32497447342
-1.29984921118
-0.0388560721238
0.326489898056
0.411518250038
0.390797466704
0.388225511176
0.395278916904
0.402816139115
0.409218749647
0.415779370003
0.423754215817
0.433761452436
0.446183137077
0.461185173134
0.478864230018
0.499200688904
0.522163643216
0.547656572954
0.575597974835
0.605862257941
0.638365927488
0.672977196972
0.709586180474
0.748072173007
0.788339484058
0.830245559853
0.873701580847
0.918589166781
0.964820373362
1.01228713719
1.06091503567
1.11062315894
1.16132047645
1.212930638
1.26537641084
1.31856022745
1.3723628147
1.42669817694
1.48142125182
1.53640092819
1.59147448292
1.64647490685
1.70119418285
1.75540862379
1.80885706431
1.86125722611
1.91229081838
1.96160617355
2.00884204317
2.05360557399
2.09551126983
2.13420499115
2.16935625575
2.20065127439
2.22790609689
2.2509909227
2.26983325521
2.284425884
2.29489624781
2.30152152008
2.30473276574
2.30504654357
2.30276153708
2.29763540168
2.28992300464
2.27911595601
2.26625036901
2.25227222441
2.23802816708
2.22419488478
2.21122266944
2.19935143001
2.18862166304
2.17892637528
2.17003332819
2.16156758305
2.15298813291
2.1434935989
2.13187139991
2.11636219555
2.09470470844
2.06431393734
2.02265061872
1.96763969826
1.89793456696
1.81290485133
1.71271712428
1.59822822291
1.47097486974
1.3345952705
1.1930999568
1.04867185866
0.900938338176
0.745706027627
0.577756130954
0.405566687547
0.238173208202
0.103323023231
0.00283865125163
-0.0855843279808
-0.199574171042
-0.333259994524
-0.447982469452
-0.493936718542
-0.479538550887
-0.484929949755
-0.557392421348
-0.671709073693
-0.79229348004
-0.902682487851
-0.998706759604
-1.07835711723
-1.14476943697
-1.20055343112
-1.24814268971
-1.28937147219
-1.32564849535
-1.35799883474
-1.38713214211
-1.41349083034
-1.43731889896
-1.45878125178
-1.47804478727
-1.49525407901
-1.51051516304
-1.52388767646
-1.53541857081
-1.54511404068
-1.55302788948
-1.55926777658
-1.56397918464
-1.56742171793
-1.57005004861
-1.5719126827
-1.57326355126
-1.57411710274
-1.57442157544
-1.57411751191
-1.57317388249
-1.57160161597
-1.56946561498
-1.56682186197
-1.56366062113
-1.55995959053
-1.55573442126
-1.55104735299
-1.54597656997
-1.54062353118
-1.5351092698
-1.52957559564
-1.52416556149
-1.519023717
-1.51428180468
-1.51007897148
-1.50654662438
-1.50378500392
-1.50182722358
-1.50066769294
-1.50031492239
-1.50079871707
-1.50209941287
-1.504153593
-1.50689363787
-1.5102282404
-1.51401319642
-1.51807864902
-1.52203041222
-1.52553062751
-1.52776249678
-1.52863220468
-1.52846804889
-1.52790200271
-1.52775048772
-1.5293674389
-1.53299294679
-1.53984297994
-1.54841401271
-1.55045894825
-1.54305838718
-1.53172375979
-1.5016739299
0.0954412071846
0.734954412962
0.642672319672
0.484296451015
0.440131468383
0.435079925263
0.441849596956
0.448914753745
0.45528787071
0.461870040609
0.469265299126
0.478106220247
0.488808894139
0.501656753102
0.516802542136
0.534338839106
0.554284460242
0.576654348354
0.601423535674
0.628559334554
0.65801133174
0.689754700297
0.72371168156
0.759832087294
0.798038748441
0.838258722529
0.880386467304
0.924339346592
0.970006448826
1.01728163992
1.06603828506
1.1161605135
1.16750979811
1.2199144074
1.27322801873
1.32725722721
1.38180262297
1.4366408836
1.49155433866
1.54627988716
1.60055517858
1.65407978668
1.70653743594
1.75758201841
1.8068441124
1.85393669588
1.89844419383
1.93992593263
1.97792958698
2.01206196542
2.0419142717
2.06709577362
2.08730985413
2.10244521698
2.11247696128
2.11743600718
2.11744099026
2.11277524191
2.10407479309
2.09203305977
2.07740542687
2.06092223382
2.04363548283
2.02705486596
2.00957645858
1.99130206561
1.97209523282
1.95195494925
1.93099652611
1.9094222973
1.88751480724
1.86560059919
1.84407207939
1.82338319857
1.80401202478
1.78634778651
1.7705376639
1.75620981244
1.74212191634
1.72599625167
1.70454082639
1.67383419471
1.6300631998
1.57039709681
1.49380291477
1.40130792196
1.29556111819
1.18030213009
1.059628117
0.934516840439
0.802793087906
0.660794617978
0.512147028003
0.357229780024
0.220025334439
0.0997418693423
0.00159254017799
-0.103307758865
-0.230021302492
-0.358479025416
-0.456893973036
-0.513643017947
-0.539302692281
-0.567971057638
-0.639070709999
-0.747598399312
-0.866025688433
-0.976745551965
-1.07458069824
-1.15954903767
-1.23177367666
-1.29305342417
-1.34509719556
-1.38964672123
-1.42811388164
-1.46165869488
-1.49113309969
-1.51714295479
-1.54005635975
-1.56011485592
-1.57754801827
-1.59263870707
-1.60568993861
-1.6169809155
-1.6267480575
-1.63519945901
-1.64254116247
-1.64896112128
-1.65461285978
-1.65960559271
-1.66399488668
-1.66772415674
-1.67058305433
-1.67252268539
-1.67348915194
-1.6734960147
-1.67257570052
-1.67079972846
-1.66829517219
-1.66522490182
-1.6617234759
-1.65786990701
-1.65372322688
-1.64937937524
-1.64496201911
-1.64060802602
-1.63645338181
-1.63262767337
-1.62924448412
-1.6263871918
-1.62409904692
-1.62240508474
-1.62132144247
-1.62085147195
-1.6209932666
-1.62170045794
-1.6228746369
-1.62442000567
-1.62627069806
-1.6283642121
-1.63062736326
-1.6330140572
-1.63546270516
-1.63795851141
-1.64030323217
-1.64241133725
-1.6436630404
-1.64400739118
-1.64352183302
-1.64243667442
-1.64146445399
-1.6413411506
-1.64345077207
-1.64782567163
-1.65599189206
-1.66694547335
-1.67513936339
-1.67691542258
-1.6766558325
-1.65954344066
0.308656694727
1.19422394074
0.802802422776
0.535684790811
0.491891581461
0.487306996889
0.493738258993
0.49470244121
0.493699370094
0.49293924489
0.493216727752
0.495377783195
0.499775420015
0.506590826407
0.515920514372
0.527782278862
0.542172187846
0.55905539272
0.578383098184
0.600115258123
0.624189923163
0.650548596473
0.679121789147
0.709837583538
0.742587883347
0.777286353102
0.813815747026
0.852060330381
0.89188171667
0.933143470455
0.975696778802
1.01936741724
1.06399168656
1.10938782375
1.15536347579
1.20170615747
1.24822401073
1.29468161286
1.34085690959
1.38650407813
1.43137727582
1.47520401925
1.51769747823
1.55854659798
1.59741883469
1.63396710964
1.66780877501
1.69855341422
1.72575574001
1.74903666933
1.76804845829
1.78236333947
1.7916915335
1.79609217919
1.79567297602
1.79043911638
1.78052939989
1.76647184858
1.74896432469
1.7288057532
1.70636746572
1.68203383963
1.65978431981
1.63687353459
1.6140938037
1.59143107565
1.56878197687
1.54598420494
1.5228599282
1.49932996136
1.47545533836
1.45144585196
1.42777045233
1.40517252299
1.38460164835
1.36694646127
1.35290064517
1.34246448321
1.33445265681
1.32615726953
1.31342593177
1.29128493909
1.25511746977
1.20210499673
1.1320823179
1.04740160778
0.951313184666
0.846765632858
0.737448605832
0.62339543013
0.501766774359
0.373826926721
0.254304527711
0.137656881027
0.0401216680514
-0.0639710127652
-0.18391504793
-0.317860332789
-0.434991988631
-0.513430123651
-0.566646409901
-0.610270885398
-0.662017809679
-0.736016069784
-0.836402425365
-0.947396093952
-1.05415720655
-1.15071395942
-1.23615500688
-1.31112048523
-1.37597276468
-1.43172639979
-1.47949295785
-1.52050926581
-1.55589183872
-1.58663611098
-1.61352843757
-1.63714839522
-1.65788520321
-1.67602276829
-1.69184876888
-1.70567273113
-1.71778575514
-1.72842036493
-1.73774556747
-1.74587843085
-1.75290852939
-1.75891263271
-1.7639623396
-1.76811347284
-1.77142768339
-1.77384934162
-1.77545871491
-1.77634784272
-1.77655584624
-1.77608102816
-1.77494115294
-1.77319683488
-1.77097721406
-1.76844208939
-1.76571166569
-1.76283894426
-1.75984153681
-1.75675491422
-1.75363999825
-1.75058264064
-1.74767196604
-1.74500312411
-1.74266205579
-1.74072080322
-1.73923171984
-1.73824573199
-1.73778832712
-1.73785857296
-1.73843033873
-1.73945189808
-1.740859403
-1.74259877346
-1.74459446653
-1.74676720087
-1.74903655945
-1.75132835071
-1.75357545712
-1.75568131794
-1.75752362084