/*--------------------------------*- C++ -*----------------------------------*\
| =========                 |                                                 |
| \\      /  F ield         | OpenFOAM: The Open Source CFD Toolbox           |
|  \\    /   O peration     | Version:  v1806                                 |
|   \\  /    A nd           | Web:      www.OpenFOAM.com                      |
|    \\/     M anipulation  |                                                 |
\*---------------------------------------------------------------------------*/
FoamFile
{
    version     2.0;
    format      ascii;
    class       volVectorField;
    location    "13";
    object      Ua;
}
// * * * * * * * * * * * * * * * * * * * * * * * * * * * * * * * * * * * * * //

dimensions      [0 1 -1 0 0 0 0];


internalField   nonuniform List<vector> 
12225
(
(0.141371339876 42.9605619137 0)
(0.934992066129 10.988440424 0)
(0.640358688167 10.6676743078 0)
(0.783441155841 10.7743529049 0)
(0.749948997381 10.7641109824 0)
(0.7982145129 10.8110297526 0)
(0.830803729076 10.7961072154 0)
(0.884548353215 10.7109933036 0)
(0.941763630888 10.5126858968 0)
(0.998042544175 10.1940102174 0)
(1.043250511 9.77823073914 0)
(1.0652872285 9.31643839297 0)
(1.05782805386 8.87501995828 0)
(1.04919350477 8.56389682161 0)
(1.14193319352 8.40004162571 0)
(1.54063384507 8.13566682214 0)
(2.36887896172 6.95189928063 0)
(2.9516568889 3.50025646594 0)
(2.22278158334 -36.2904384624 0)
(0.819651905682 -6.67502468471 0)
(1.03649599688 -6.76870522639 0)
(0.999073304503 -6.74570333269 0)
(1.06946482539 -6.6593046614 0)
(1.12402498869 -6.58764395026 0)
(1.19801437583 -6.46190841828 0)
(1.27434759489 -6.31839181511 0)
(1.35190849811 -6.15167101362 0)
(1.42449189586 -5.97415821926 0)
(1.48817000168 -5.78875273259 0)
(1.53644828797 -5.59646003218 0)
(1.57231171999 -5.38091024508 0)
(1.62722648369 -5.11222911405 0)
(1.7750494762 -4.73560334303 0)
(2.11383943156 -4.19247682808 0)
(2.59535620772 -3.51105969746 0)
(2.65306835635 -2.91353949331 0)
(-1.50295303875 29.1910981239 0)
(1.33434585502 3.90784943851 0)
(0.728459815377 3.28485535965 0)
(0.913436200948 3.40460122463 0)
(0.866515679191 3.271389473 0)
(0.902664290546 3.20454172439 0)
(0.923796534261 3.09357162711 0)
(0.954138212271 2.96815942047 0)
(0.981841955481 2.8161486534 0)
(1.00337030137 2.63374176615 0)
(1.01472505998 2.4150398474 0)
(1.01451919011 2.15519062322 0)
(1.01129709032 1.85884245419 0)
(1.03735249352 1.53362472458 0)
(1.15760108417 1.18049873609 0)
(1.43778194806 0.764030760628 0)
(1.79862913995 0.154798971144 0)
(1.85329909092 -0.766755301079 0)
(2.27862036192 -20.1242039835 0)
(1.00383531067 -2.5750346461 0)
(0.935418064006 -1.85793244542 0)
(0.972607021259 -2.01407176306 0)
(0.983737159653 -1.89022839513 0)
(1.02234978373 -1.81499113017 0)
(1.06058555275 -1.70226808238 0)
(1.10398277872 -1.57665309517 0)
(1.14296137505 -1.43504925854 0)
(1.17240806514 -1.27937992136 0)
(1.18660680101 -1.10833924862 0)
(1.18345938621 -0.922224805535 0)
(1.17103061923 -0.720029908567 0)
(1.17711825109 -0.504333627803 0)
(1.24995738232 -0.297811738078 0)
(1.419324378 -0.179919024523 0)
(1.59501402 -0.308401168272 0)
(1.5477707747 -0.758133548511 0)
(-0.0145136448706 10.1949336294 0)
(0.93182056559 1.03561414468 0)
(0.864074105195 0.857563326448 0)
(0.905641779218 0.756955800267 0)
(0.911719722713 0.664614728498 0)
(0.941297133584 0.558050830362 0)
(0.97371443735 0.44752697885 0)
(1.01100653996 0.3235184067 0)
(1.04788908091 0.191140213537 0)
(1.08012196448 0.0552688177277 0)
(1.10372181138 -0.0734043738174 0)
(1.11774819279 -0.182206355538 0)
(1.13021942205 -0.256011443927 0)
(1.16283466758 -0.284544455211 0)
(1.24428804744 -0.279659770845 0)
(1.37298874357 -0.303185205335 0)
(1.46239350308 -0.4570404598 0)
(1.38651104371 -0.745790753792 0)
(0.969468206907 -3.22712302463 0)
(1.0191742824 -0.364031509968 0)
(0.915703344794 -0.2969951934 0)
(0.965211854977 -0.277982398088 0)
(0.964047390415 -0.232694608027 0)
(0.987049350099 -0.19616507285 0)
(1.00906970543 -0.166688338608 0)
(1.03476831818 -0.150963502778 0)
(1.05933506769 -0.150352263961 0)
(1.08013168256 -0.164602624489 0)
(1.09492701851 -0.189735521922 0)
(1.10486805597 -0.218686666728 0)
(1.11856239723 -0.242025216413 0)
(1.15299433424 -0.254776286467 0)
(1.2228554567 -0.269748853537 0)
(1.31135432301 -0.329827411087 0)
(1.35037492241 -0.480634750465 0)
(1.27647095564 -0.682979375612 0)
(0.770846498354 0.988931498702 0)
(0.963427660213 -0.0167228105781 0)
(0.936259412254 0.0326400123121 0)
(0.967107369094 -0.0389909154658 0)
(0.974379316479 -0.0538312088637 0)
(0.994246689535 -0.0786656129796 0)
(1.01492888164 -0.0980461926208 0)
(1.03716005431 -0.120809976753 0)
(1.05795990388 -0.146563917411 0)
(1.0750170375 -0.175598200888 0)
(1.08728742613 -0.205545276078 0)
(1.09696472632 -0.232443307041 0)
(1.11191591383 -0.252157378546 0)
(1.14385469946 -0.266449145247 0)
(1.19739098768 -0.291528465888 0)
(1.2516497765 -0.358404660191 0)
(1.26032550309 -0.483399726963 0)
(1.19529284317 -0.624239628745 0)
(0.868645604048 0.146533169625 0)
(0.974071586893 -0.0399479658896 0)
(0.957296682902 -0.0202231363497 0)
(0.98271506421 -0.0562671628772 0)
(0.990572443987 -0.0654649667014 0)
(1.00643169748 -0.0818732704663 0)
(1.02327349021 -0.0984483485951 0)
(1.04075253454 -0.119876022117 0)
(1.05700789639 -0.145444429656 0)
(1.07025527827 -0.174219196089 0)
(1.08027336967 -0.203538060226 0)
(1.08957995662 -0.230028493454 0)
(1.10438838215 -0.251634620162 0)
(1.13138366286 -0.272326382817 0)
(1.16884374815 -0.306206959817 0)
(1.19768925156 -0.371968790214 0)
(1.1894982826 -0.470695326902 0)
(1.13389031814 -0.570017203756 0)
(0.922943254549 0.273919210063 0)
(0.976106505075 -0.0446718121008 0)
(0.97914906559 -0.0230619120333 0)
(0.996456126749 -0.0571407370855 0)
(1.00577521246 -0.0687355268208 0)
(1.01809537458 -0.0861823275017 0)
(1.0316580794 -0.103790323268 0)
(1.04492904992 -0.125126565124 0)
(1.05711892233 -0.149666298258 0)
(1.06691469073 -0.176514926227 0)
(1.07468877905 -0.20362174303 0)
(1.08283665105 -0.228814605838 0)
(1.09568856972 -0.251775895373 0)
(1.11606228441 -0.27711867775 0)
(1.13928877337 -0.315166580941 0)
(1.15050816035 -0.375121248496 0)
(1.1336315026 -0.451880565276 0)
(1.08620641649 -0.523760943711 0)
(0.975197722881 0.278943216885 0)
(0.981724147275 -0.0419322376488 0)
(0.999233020384 -0.0271747109786 0)
(1.00957280098 -0.0556201656381 0)
(1.01941512233 -0.0692535495279 0)
(1.02861553431 -0.0872326060572 0)
(1.03917121726 -0.10583584158 0)
(1.04875703747 -0.127221077908 0)
(1.05739145279 -0.15101380614 0)
(1.06415574448 -0.176364066812 0)
(1.06972164872 -0.201796613397 0)
(1.07605254764 -0.226176058688 0)
(1.0857279782 -0.250235334874 0)
(1.09903276646 -0.278174494047 0)
(1.11065749435 -0.316563083121 0)
(1.11019712538 -0.368713374302 0)
(1.08924704984 -0.428294163729 0)
(1.04843058592 -0.48175644795 0)
(1.02316557208 0.289815877054 0)
(0.98697572058 -0.0409182569843 0)
(1.01708183617 -0.0336124889683 0)
(1.02074564396 -0.0569619229549 0)
(1.03068401868 -0.0721705715523 0)
(1.03716609416 -0.0902689920644 0)
(1.04509762238 -0.109417099173 0)
(1.05156810578 -0.130553270616 0)
(1.05717690634 -0.153469817731 0)
(1.06130039729 -0.177392505292 0)
(1.0646794503 -0.201382987918 0)
(1.06870193296 -0.22505819742 0)
(1.0745603204 -0.249567938903 0)
(1.08119741518 -0.278125020996 0)
(1.08390449167 -0.314331382131 0)
(1.07597705656 -0.358369978999 0)
(1.05339996484 -0.404761935259 0)
(1.01780869443 -0.445259897123 0)
(1.05345062926 0.297554022851 0)
(0.992366454937 -0.0356023638725 0)
(1.02763760735 -0.0375648489804 0)
(1.02692308891 -0.0559057426297 0)
(1.03619429798 -0.0722928920382 0)
(1.04068452034 -0.0902321157701 0)
(1.04651284802 -0.109678867351 0)
(1.05065806896 -0.130552258865 0)
(1.05399077499 -0.152810444568 0)
(1.05607462395 -0.17577497001 0)
(1.05752864236 -0.198928678493 0)
(1.05925363931 -0.22220683051 0)
(1.06160190497 -0.246781412255 0)
(1.06304340041 -0.274863871385 0)
(1.05987467774 -0.308025436999 0)
(1.04784006635 -0.345277218873 0)
(1.02513160613 -0.382317328117 0)
(0.993495844183 -0.414106076581 0)
(1.07226489691 0.303197656266 0)
(0.998306048406 -0.0313188784849 0)
(1.03423747891 -0.0391436514099 0)
(1.03063706813 -0.0543882557293 0)
(1.03885809246 -0.0712418624765 0)
(1.04180838966 -0.0889109171489 0)
(1.04588782269 -0.108328516161 0)
(1.04819013069 -0.128824698512 0)
(1.04965260477 -0.150443898581 0)
(1.04996215721 -0.172646822302 0)
(1.04962476556 -0.195096504577 0)
(1.0491297733 -0.217892363475 0)
(1.04823936026 -0.241943697825 0)
(1.04547162121 -0.268540653902 0)
(1.03806314536 -0.298151485032 0)
(1.02349220829 -0.329442205084 0)
(1.00118299105 -0.359359858301 0)
(0.972802305891 -0.384674468606 0)
(1.08572858927 0.29318819376 0)
(1.00327141541 -0.031337302612 0)
(1.03809884706 -0.0430953321207 0)
(1.03218581806 -0.0565950515179 0)
(1.03886129206 -0.0735042892213 0)
(1.04031126913 -0.0907082716974 0)
(1.04258628259 -0.109744288591 0)
(1.0431169162 -0.129580556891 0)
(1.04274789246 -0.150336687762 0)
(1.04131002575 -0.17150852107 0)
(1.03908082101 -0.192958882602 0)
(1.03622307783 -0.21473245407 0)
(1.03228901501 -0.237423924613 0)
(1.02594822481 -0.261499531782 0)
(1.01539891369 -0.286873367249 0)
(0.999291560637 -0.31222733922 0)
(0.977829465265 -0.335654976195 0)
(0.952495946971 -0.355169620278 0)
(1.09559797145 0.288860359898 0)
(1.00778253734 -0.0291744943024 0)
(1.04066682745 -0.0442015371547 0)
(1.03302066688 -0.056749815648 0)
(1.03768105239 -0.0733009620812 0)
(1.03752783104 -0.0897993852659 0)
(1.03781417969 -0.108007406646 0)
(1.03648486627 -0.126822765381 0)
(1.03419865875 -0.146378781815 0)
(1.03083684451 -0.166274215833 0)
(1.0265527979 -0.186386051784 0)
(1.02134471737 -0.206694984675 0)
(1.01466296632 -0.22738824594 0)
(1.00557171873 -0.248551566231 0)
(0.99295266538 -0.269673396691 0)
(0.976237468836 -0.289858801412 0)
(0.955964509359 -0.307800999467 0)
(0.933447574123 -0.322559796019 0)
(1.09764273963 0.262181332014 0)
(1.01194233208 -0.0286788196173 0)
(1.0410989899 -0.0457241722549 0)
(1.03288378785 -0.0580613196691 0)
(1.03534844966 -0.074022546751 0)
(1.03369612933 -0.0897163708087 0)
(1.03198729192 -0.106728816071 0)
(1.02883589362 -0.124157448532 0)
(1.02459343207 -0.142084046611 0)
(1.01933852818 -0.16021744646 0)
(1.01303204221 -0.178380990624 0)
(1.00566660008 -0.196510132797 0)
(0.996783090978 -0.214538010737 0)
(0.985799361258 -0.232314216106 0)
(0.972086956069 -0.249334581826 0)
(0.955497874354 -0.264938023987 0)
(0.936683806807 -0.278388869957 0)
(0.916723110934 -0.289199565107 0)
(1.09210706215 0.240886875861 0)
(1.01313444215 -0.0273609699419 0)
(1.03830653367 -0.0450514968426 0)
(1.03015075784 -0.0571007374709 0)
(1.03052395086 -0.0722408232777 0)
(1.0275419922 -0.0869192815509 0)
(1.02400529574 -0.102500049149 0)
(1.01917043728 -0.118256286138 0)
(1.01317475129 -0.13425000277 0)
(1.00617293093 -0.150204134135 0)
(0.998110400596 -0.166011333289 0)
(0.989016660993 -0.18144174795 0)
(0.978590475214 -0.19643026362 0)
(0.966507829372 -0.210698955911 0)
(0.952466745755 -0.223921853981 0)
(0.936512196103 -0.235606744125 0)
(0.91928469702 -0.245414005299 0)
(0.901632671664 -0.25307913856 0)
(1.07914473382 0.210821299964 0)
(1.01341836773 -0.0272518585669 0)
(1.0318638311 -0.0441759688392 0)
(1.02473755954 -0.0553086072674 0)
(1.02301712126 -0.0690493055768 0)
(1.01901955671 -0.0822217080038 0)
(1.01391851216 -0.0959320028801 0)
(1.00771707176 -0.109608094109 0)
(1.00028815762 -0.123272023542 0)
(0.991930990958 -0.13670017127 0)
(0.982573891375 -0.149753590382 0)
(0.972331304956 -0.162221319994 0)
(0.961025056658 -0.173999991411 0)
(0.948516675025 -0.184897247365 0)
(0.93467356222 -0.194665303259 0)
(0.919627149776 -0.203047083946 0)
(0.903954490049 -0.209854974414 0)
(0.88831283872 -0.2150265266 0)
(1.06489123179 0.18026422128 0)
(1.01311833574 -0.0271009690922 0)
(1.02440752077 -0.0393658895405 0)
(1.01845986966 -0.0497812444851 0)
(1.01476173691 -0.0608932823884 0)
(1.00994669559 -0.0719129252575 0)
(1.00358744672 -0.0830489278663 0)
(0.996328666014 -0.0940897634383 0)
(0.987858162981 -0.10499864277 0)
(0.978576765397 -0.115555777551 0)
(0.968425114651 -0.12569713685 0)
(0.95758967448 -0.135173495996 0)
(0.945970549469 -0.143954060902 0)
(0.933535220658 -0.151869786584 0)
(0.920224213068 -0.158792478753 0)
(0.906195388888 -0.164560568994 0)
(0.891944566708 -0.169113413856 0)
(0.877998238107 -0.172429552944 0)
(1.06049930635 0.131316655093 0)
(1.01041805294 -0.0383906328854 0)
(1.02165801644 -0.045372322281 0)
(1.01458099325 -0.0543643021464 0)
(1.01053439494 -0.0623806782332 0)
(1.00484293528 -0.0709027981284 0)
(0.99783753472 -0.0791965971857 0)
(0.989865380444 -0.0875639345822 0)
(0.980825861321 -0.0956729282905 0)
(0.971058255914 -0.103573850179 0)
(0.960551618227 -0.111027408063 0)
(0.949543169957 -0.117960152971 0)
(0.937940981838 -0.124237303508 0)
(0.925783944228 -0.129829488052 0)
(0.913013929077 -0.134581926315 0)
(0.899783019209 -0.138439532854 0)
(0.886557749997 -0.141327577027 0)
(0.873802023634 -0.143299327519 0)
(1.06899645565 0.2135852881 0)
(1.01241094273 0.0147352791486 0)
(1.02321333902 0.0103406824398 0)
(1.01506154137 0.00136260077669 0)
(1.0107990781 -0.00539590838696 0)
(1.00449813463 -0.0130831400427 0)
(0.997058302685 -0.0204849284125 0)
(0.988649457926 -0.0281544526176 0)
(0.979255108598 -0.035613001703 0)
(0.969178875102 -0.0429360566208 0)
(0.958447582555 -0.0498929306437 0)
(0.947292498533 -0.0564621821995 0)
(0.935713640948 -0.0625125984279 0)
(0.923694270887 -0.0679685168066 0)
(0.911214547062 -0.0726993119 0)
(0.898390236311 -0.0766525161848 0)
(0.885605855129 -0.079789629226 0)
(0.873100225298 -0.0820836234979 0)
(1.05322457284 -0.343362273113 0)
(1.0054832305 -0.220473002215 0)
(1.03024854441 -0.221512181574 0)
(1.02052937567 -0.221231170609 0)
(1.01710346824 -0.220237960063 0)
(1.01022858781 -0.219868161566 0)
(1.00260432042 -0.219433399203 0)
(0.993880281119 -0.219127806926 0)
(0.984412292425 -0.218775965751 0)
(0.974337411755 -0.218285842122 0)
(0.963811104588 -0.217577375024 0)
(0.952987793419 -0.216308478691 0)
(0.941857370202 -0.214601644456 0)
(0.930481662594 -0.212515493454 0)
(0.91885939819 -0.209928628121 0)
(0.907072414133 -0.206795515857 0)
(0.895627637971 -0.203027373861 0)
(0.885092973703 -0.198822090825 0)
(1.16747653577 1.69577726211 0)
(1.03637234068 0.559849040254 0)
(1.02655778757 0.562678321103 0)
(1.01955363011 0.538434428506 0)
(1.01508112818 0.523482554131 0)
(1.00782885868 0.504875245975 0)
(0.999781858533 0.486533637183 0)
(0.990636134633 0.467322430546 0)
(0.980671325456 0.447867214369 0)
(0.970022988982 0.428098246932 0)
(0.958649758931 0.408191940194 0)
(0.947029896896 0.387983414803 0)
(0.93517494917 0.367861755585 0)
(0.92305867195 0.348157969231 0)
(0.91054830984 0.328998808098 0)
(0.897742428343 0.310469315323 0)
(0.884681656623 0.292659774564 0)
(0.871501675279 0.275924558311 0)
(0.780593294232 -4.85872879304 0)
(0.955935904027 -1.43241659647 0)
(1.06797796117 -1.42514236666 0)
(1.04691736581 -1.37194478081 0)
(1.04736429507 -1.33471980259 0)
(1.03828877261 -1.29482666218 0)
(1.03045759169 -1.25671687642 0)
(1.0212232179 -1.21899834425 0)
(1.01174277248 -1.18133503211 0)
(1.00184820406 -1.14351405347 0)
(0.991909543524 -1.10532963552 0)
(0.9816569182 -1.06654336162 0)
(0.971162986271 -1.02777350969 0)
(0.960567445315 -0.989275860427 0)
(0.949901753344 -0.951189773203 0)
(0.93916167327 -0.913482588204 0)
(0.928923965769 -0.876354984676 0)
(0.917911245043 -0.840082606661 0)
(1.99086594402 11.8818305432 0)
(1.12854321021 2.37718917338 0)
(1.00795882109 2.30482073536 0)
(1.0173386668 2.21665653384 0)
(1.00561914078 2.14835799645 0)
(0.998549097177 2.07077588802 0)
(0.98887259451 1.99777035107 0)
(0.979099022214 1.92466543412 0)
(0.968937684808 1.85325111163 0)
(0.958491691751 1.78305644832 0)
(0.947741708477 1.71426849738 0)
(0.937155047641 1.64734854822 0)
(0.926513971767 1.58258518559 0)
(0.915929681013 1.51939667257 0)
(0.905528915117 1.4580864838 0)
(0.895521988003 1.3992508248 0)
(0.886107141927 1.34390281664 0)
(0.881847627949 1.29316357331 0)
(-1.04048962418 -23.55162507 0)
(0.943816216135 -3.32895993631 0)
(1.10678908682 -2.92360323286 0)
(1.08873780691 -2.85286989048 0)
(1.09182100249 -2.7254827282 0)
(1.07951548023 -2.61488497441 0)
(1.07268574967 -2.51090553963 0)
(1.06263379991 -2.41317160597 0)
(1.05244024937 -2.32232668857 0)
(1.04072484678 -2.23820676317 0)
(1.02745649853 -2.16114491262 0)
(1.0126852594 -2.09205893993 0)
(0.996526876434 -2.030493765 0)
(0.978885201522 -1.97496219021 0)
(0.960093727759 -1.92471439546 0)
(0.940702442513 -1.87876151636 0)
(0.921674982915 -1.836294588 0)
(0.896964708552 -1.79752141662 0)
(4.94492847155 38.3198538061 0)
(0.895878334951 4.21642835543 0)
(1.12976698116 3.24074198029 0)
(1.02488760307 3.31426412461 0)
(1.03841461788 3.12500676107 0)
(1.0251693904 3.00577538758 0)
(1.01596074468 2.88203026126 0)
(1.00689833454 2.77006352969 0)
(0.998329132646 2.66827157218 0)
(0.99052230663 2.57719704072 0)
(0.983498694417 2.49757523999 0)
(0.976938849902 2.42947337025 0)
(0.971227078231 2.37225438689 0)
(0.967023458931 2.32550235972 0)
(0.964769267217 2.28825636872 0)
(0.964428243075 2.25895722958 0)
(0.964874748275 2.23517889168 0)
(0.969095804707 2.21360175268 0)
(-3.50291525195 -50.4183236762 0)
(1.68789051628 -5.50349983963 0)
(0.883681508747 -4.57723127873 0)
(1.1320598654 -4.59561057762 0)
(1.05114745654 -4.33666742346 0)
(1.05470694718 -4.18982097416 0)
(1.03887681462 -4.02965999052 0)
(1.02607010984 -3.89199666369 0)
(1.01236607008 -3.76521557158 0)
(0.998112490959 -3.65022546324 0)
(0.98383644636 -3.54487604324 0)
(0.969644574946 -3.44749328833 0)
(0.955461036605 -3.35724648205 0)
(0.941326430921 -3.27418961618 0)
(0.927307825843 -3.19850748403 0)
(0.913391053628 -3.13129128193 0)
(0.89936266134 -3.07389784837 0)
(0.878911510179 -3.02809893663 0)
(4.19783608824 57.5619169387 0)
(0.601945265099 7.34116390003 0)
(1.38246022794 7.56569616922 0)
(1.13308046882 7.10249906847 0)
(1.20410385858 6.83626075976 0)
(1.17278491025 6.56281638448 0)
(1.17325225539 6.30840603777 0)
(1.16409227189 6.07065701411 0)
(1.15795108118 5.84475740746 0)
(1.15106865851 5.63056883108 0)
(1.14404347121 5.42642122825 0)
(1.13643152488 5.23177495892 0)
(1.12806269845 5.04604445787 0)
(1.11864314971 4.86795571834 0)
(1.10760900905 4.69623675827 0)
(1.09425770534 4.53007476199 0)
(1.07722663154 4.3711127491 0)
(1.06229696425 4.22601057008 0)
(0.342772898978 -59.6648466884 0)
(0.862638100754 -10.1425881676 0)
(0.752062883449 -10.306382358 0)
(0.780555516431 -9.65611671381 0)
(0.77212662575 -9.31125296425 0)
(0.77100276569 -8.91043625892 0)
(0.766906044809 -8.55678859727 0)
(0.763233828289 -8.21856716716 0)
(0.758995344086 -7.89986174002 0)
(0.754830016687 -7.59485622277 0)
(0.750809196357 -7.30015920524 0)
(0.746989044931 -7.01257711046 0)
(0.742809483726 -6.73007341477 0)
(0.737490911021 -6.45174240564 0)
(0.73053489632 -6.17852284364 0)
(0.723119873656 -5.91213756638 0)
(0.720166404113 -5.64897902394 0)
(0.723205918092 -5.36681540861 0)
(0.259568569652 -0.0530780555485 1.51398023887e-19)
(0.206982930546 -0.0426533637479 0)
(0.146624333015 0.0128004437391 0)
(0.114411291704 0.132882630201 0)
(0.0845416005267 0.243283997945 0)
(0.0215829540784 0.325711696838 -1.04825439911e-19)
(-0.0503987467541 0.33950084106 0)
(-0.118416101363 0.323724104878 0)
(-0.177283535202 0.29696669308 3.48974985298e-20)
(-0.225037392646 0.268497431045 0)
(-0.260381767814 0.24309186866 -2.25453895734e-20)
(-0.283971493709 0.2226719538 0)
(-0.297237632453 0.207784003018 -1.60982773819e-20)
(-0.30211336476 0.197989322022 -1.39792692855e-20)
(-0.300570619449 0.192626344369 0)
(-0.29434366275 0.19075391005 1.09841506776e-20)
(-0.285012741161 0.191559763365 9.8981691655e-21)
(-0.273733955935 0.194179340417 8.99839310368e-21)
(-0.261522992296 0.197917326078 0)
(-0.249034350426 0.202098448147 0)
(-0.236840675886 0.206202115958 0)
(-0.225237900998 0.209742125142 0)
(-0.214485546138 0.212342925233 0)
(-0.204667142618 0.213689750249 0)
(-0.195828001717 0.213533406209 -5.30158650583e-21)
(-0.187928114831 0.211679020149 -4.9646359557e-21)
(-0.180901098681 0.2079851778 0)
(-0.174636945471 0.20235711061 4.366757826e-21)
(-0.168990827553 0.19472191776 4.10056654308e-21)
(-0.163827433853 0.185041656033 3.85382535176e-21)
(-0.15898551713 0.173293395496 0)
(-0.154330346185 0.159475986107 0)
(-0.149709280132 0.143593483708 -3.22269046349e-21)
(-0.145014666435 0.125668263693 0)
(-0.140128340877 0.105733162479 0)
(-0.134967487787 0.0838170193777 -2.74490241839e-21)
(-0.129465482663 0.0599711576331 0)
(-0.12357176468 0.0342428974923 0)
(-0.117249950018 0.00668723289079 0)
(-0.110479530141 -0.0226501200591 0)
(-0.103257628466 -0.0537136218184 0)
(-0.0955834875639 -0.0864636357677 4.39307409879e-21)
(-0.0874742339595 -0.120857415761 0)
(-0.0789431288422 -0.156870856638 0)
(-0.0700195718673 -0.194484627832 4.18399284262e-21)
(-0.0607275417447 -0.233698092678 4.15563113685e-21)
(-0.0511021866373 -0.274520677075 0)
(-0.0411812281029 -0.316976824672 0)
(-0.0310019354636 -0.361100755607 4.17398166631e-21)
(-0.020602073565 -0.406948599931 0)
(-0.0100199886363 -0.454585362815 -4.25955396677e-21)
(0.000707127540554 -0.504094110595 0)
(0.0115475823978 -0.555561979751 4.39282476335e-21)
(0.0224694619131 -0.609091175976 0)
(0.0334515790606 -0.664783757191 4.56719815466e-21)
(0.0444887343971 -0.72277164143 4.66849027314e-21)
(0.0555683527507 -0.783190586338 0)
(0.0666930558461 -0.846194830022 0)
(0.0778516628863 -0.911944251173 0)
(0.0890420329791 -0.980595380048 5.15397951109e-21)
(0.100256322282 -1.05229257703 0)
(0.111467134772 -1.12710251813 0)
(0.122612827949 -1.20496784709 0)
(0.133419900331 -1.28541873415 0)
(0.143556061941 -1.3669208138 0)
(0.153251676971 -1.44576914235 0)
(0.162625969558 -1.52071841135 0)
(0.171749417968 -1.59077278456 -6.40239987194e-21)
(0.180696786431 -1.65519555391 0)
(0.189493492231 -1.71351039472 -6.71827721089e-21)
(0.198173640855 -1.76545023272 -6.87227482675e-21)
(0.206743757347 -1.81098644884 0)
(0.215226617027 -1.85022219578 7.17610442261e-21)
(0.2236436294 -1.88345240237 0)
(0.232015938743 -1.91100296288 -7.48113598201e-21)
(0.240386428174 -1.93332719342 0)
(0.248795520034 -1.95084068329 7.80121851477e-21)
(0.257323594729 -1.96402939362 -7.97279398204e-21)
(0.266055265755 -1.97331897206 0)
(0.275101048158 -1.97919526025 0)
(0.284564795315 -1.98210312009 0)
(0.294599779565 -1.98259128516 0)
(0.30534656524 -1.98122483816 -9.06628783574e-21)
(0.316991680558 -1.97871409727 9.356671706e-21)
(0.329741274333 -1.97587140549 -1.93607875894e-20)
(0.34381964796 -1.97364509172 -2.00820544607e-20)
(0.35955753252 -1.97308790623 -2.08893561912e-20)
(0.377197267449 -1.97528245669 0)
(0.397130100727 -1.98121979755 0)
(0.419907288597 -1.99179526498 0)
(0.445854513702 -2.0072563266 -2.52674309549e-20)
(0.475407252369 -2.02760651227 0)
(0.509128063869 -2.05279367487 0)
(0.547554937197 -2.08258475088 -3.08926204614e-20)
(0.591101302075 -2.11657278354 0)
(0.639746354218 -2.15459492512 3.68764035162e-20)
(0.692710316917 -2.19641973397 0)
(0.748198130644 -2.24072902253 -4.54984112718e-20)
(0.803801438969 -2.28259666428 0)
(0.859854358023 -2.31346508197 0)
(0.919658231946 -2.32859851091 0)
(0.98928121638 -2.33139619466 -7.60102071152e-20)
(1.07230101279 -2.32132236365 0)
(1.15016652391 -2.30548276546 -1.08434960637e-19)
(1.20259416931 -2.18310086094 -1.36837280615e-19)
(1.32376906086 -1.83861411319 0)
(1.4401293398 -1.33157343973 0)
(1.30450361983 -0.579422560558 0)
(0.853676629047 0.631036510683 -4.20726260564e-19)
(0.743283654865 0.833928777722 0)
(0.641691005258 1.00621155018 0)
(0.573506068269 1.15980991615 -1.66867912939e-19)
(0.524375894261 1.29485738065 -1.4665909474e-19)
(0.487106949529 1.41336966633 0)
(0.457855192463 1.51715579136 1.23207261764e-19)
(0.434387339049 1.60770872157 1.15940786734e-19)
(0.415253232111 1.68626028244 -1.10408497332e-19)
(0.399413518192 1.7536353628 0)
(0.38609619925 1.81048933314 0)
(0.374674482054 1.85727157844 0)
(0.364661193972 1.89443558584 9.82234477086e-20)
(0.355749374414 1.92250464234 0)
(0.347757798788 1.94206200954 9.56533762417e-20)
(0.340530762169 1.95374525618 0)
(0.333914987696 1.95796560836 0)
(0.327738660585 1.95534549086 0)
(0.321881953079 1.94666847542 -9.44896953703e-20)
(0.316312732055 1.93286334151 -9.48204122785e-20)
(0.311084449229 1.91493775428 0)
(0.306309726726 1.89374120852 0)
(0.302096014044 1.87052515307 0)
(0.298331699764 1.84852608548 0)
(0.295134903366 1.82775427381 0)
(0.292634934952 1.80799321138 0)
(0.290904195594 1.78880260192 -2.00587079625e-19)
(0.289995101026 1.76967914824 0)
(0.289920942646 1.75007714001 0)
(0.290646994344 1.72942297407 0)
(0.292088193787 1.70713921553 2.11551956035e-19)
(0.294133054583 1.68271416918 2.14818762152e-19)
(0.296682184305 1.65577759129 -2.18302516876e-19)
(0.299598372115 1.62607417691 -2.22027294997e-19)
(0.302760738187 1.59358111486 0)
(0.30606075456 1.55837353988 0)
(0.309426994787 1.52070628066 0)
(0.31280810662 1.48088047533 -2.39743816472e-19)
(0.316147863699 1.43934507967 0)
(0.319423560847 1.39663650664 0)
(0.32267303818 1.35349586641 2.56413428684e-19)
(0.325972018178 1.31071513412 0)
(0.329373597622 1.26917484962 2.69345913017e-19)
(0.332890471693 1.22971671061 0)
(0.336514362056 1.19318682483 2.83866501092e-19)
(0.340307709322 1.16036097983 0)
(0.344388597371 1.13196654936 0)
(0.348856830086 1.10850259529 0)
(0.353749388106 1.09010711565 0)
(0.359167869931 1.07656204775 0)
(0.365270595725 1.06743222578 0)
(0.372266522597 1.06219090015 0)
(0.380210978013 1.06005322574 0)
(0.388945194447 1.05974989946 3.73432971525e-19)
(0.398173949885 1.05953046536 0)
(0.407766145007 1.05753714926 0)
(0.417559088259 1.05193236245 4.15162645593e-19)
(0.427100703726 1.04139930037 0)
(0.43550174277 1.02506334903 0)
(0.441572361751 1.00309458192 4.65695857281e-19)
(0.444011614047 0.976783496455 0)
(0.441745664889 0.949166635084 0)
(0.434314520765 0.924541273312 5.23456109005e-19)
(0.422354414339 0.908973247102 -5.41313388816e-19)
(0.408743759892 0.908422810481 5.5593706997e-19)
(0.396404598099 0.92494147575 0)
(0.387927071207 0.952807274337 0)
(0.385954898829 0.980156171911 1.13087109812e-18)
(0.38976047192 0.99060384488 0)
(0.387621562389 0.979685425334 -1.0945194559e-18)
(0.365971634442 0.940290696523 -1.07256438113e-18)
(0.290279803446 0.901215810427 0)
(0.0934316141048 -0.141012913831 -4.65142394101e-19)
(0.192214193631 0.0784171461515 0)
(0.186465965594 0.267739208039 1.65966975754e-19)
(0.0995426622237 0.285522252194 -1.09108855103e-19)
(0.0245650262073 0.241561303982 -8.20770566114e-20)
(-0.027586724622 0.176216808699 3.132371418e-20)
(-0.060133885003 0.110772017256 5.66579006197e-20)
(-0.0788223507884 0.051207967688 0)
(-0.0864122769453 -0.000107358596162 -1.92216205641e-20)
(-0.0849672012927 -0.0419393759087 3.60681747893e-20)
(-0.0769163205822 -0.0742671255392 4.620614401e-20)
(-0.0648132039207 -0.098192747053 -2.81308437294e-20)
(-0.0507576301625 -0.115175302662 3.66633717641e-20)
(-0.0362803675966 -0.126920013272 1.02736366184e-20)
(-0.022359659391 -0.134859321077 0)
(-0.00946211102728 -0.140296199308 -8.52516629761e-21)
(0.00222358770173 -0.144140932585 -7.8497282962e-21)
(0.0127976629724 -0.147118470363 -7.27118674475e-21)
(0.0224123208894 -0.149648164445 1.54959301623e-20)
(0.0313501690477 -0.152005344909 0)
(0.0398315570688 -0.154279509965 1.37181028798e-20)
(0.0481059823524 -0.156463297119 0)
(0.0563491721381 -0.158460818475 -1.22904608086e-20)
(0.0647281281008 -0.160120984378 0)
(0.0733362100847 -0.161267950344 1.57662821863e-20)
(0.082246070774 -0.161702266841 -6.18355106816e-21)
(0.0914922757218 -0.161235562731 -1.00971117023e-20)
(0.101080887707 -0.15967862469 -1.35683986789e-20)
(0.111009056956 -0.156871393654 -3.70700904142e-21)
(0.121246925297 -0.152673464426 -3.50392880211e-21)
(0.131773875877 -0.146973258343 0)
(0.142541457856 -0.139691296314 -8.12531541622e-21)
(0.15351905486 -0.130768186486 2.97410988738e-21)
(0.164663068708 -0.120183950195 0)
(0.175936746832 -0.107926361221 0)
(0.187295570272 -0.0940204416706 2.56457117334e-21)
(0.198706733933 -0.0784876916401 0)
(0.210136085722 -0.061378606054 0)
(0.221553333883 -0.0427313585275 0)
(0.232936955589 -0.0226037851515 0)
(0.244263667078 -0.00103406087505 0)
(0.255519375758 0.0219295305564 8.02710996835e-21)
(0.266687189276 0.0462611766754 1.20677690312e-20)
(0.277759389136 0.0719328903715 0)
(0.288724733875 0.0989390427334 7.87863786978e-21)
(0.29957765508 0.127278425705 -4.00454296433e-21)
(0.310309534042 0.156970489331 0)
(0.320913646167 0.188043511222 0)
(0.331380509489 0.220546538518 -1.60496612497e-20)
(0.341698651319 0.254536236946 -1.20960034264e-20)
(0.351862892172 0.290091334707 4.15888857932e-21)
(0.361868396918 0.327294273246 1.23720694169e-20)
(0.371715364559 0.366249172118 8.23245593103e-21)
(0.381406382942 0.407063017442 0)
(0.390940573447 0.449864551594 -1.74546794622e-20)
(0.400312233456 0.494776668627 -4.61816382529e-21)
(0.409508747333 0.541932842136 0)
(0.418514652671 0.591462651783 1.36863251516e-20)
(0.427314852016 0.643497242569 -1.39611818156e-20)
(0.435895709611 0.698173951811 -5.15345622236e-21)
(0.444236242248 0.755634968506 0)
(0.452335372839 0.816022829892 0)
(0.460275287137 0.879506399706 0)
(0.468486516249 0.946050226034 1.55148874462e-20)
(0.476949798764 1.01190376038 0)
(0.485052290803 1.07368709579 -1.61951580731e-20)
(0.492532737508 1.13074949022 0)
(0.499207612766 1.18254976887 -1.04583661918e-20)
(0.504949441049 1.22869971913 0)
(0.509662123163 1.26893037255 -1.09446337012e-20)
(0.513290739391 1.30315668856 -1.12083962387e-20)
(0.515807751747 1.33136908743 0)
(0.517206121401 1.35371200115 -7.29921997641e-21)
(0.51750016279 1.37032625856 0)
(0.516705281524 1.38145020041 7.61522143019e-21)
(0.514843212332 1.38725890556 0)
(0.511928450688 1.38798228989 -7.94252037126e-21)
(0.507981896471 1.38377858128 8.11574885066e-21)
(0.503003577837 1.37485869718 2.20485910267e-20)