/*--------------------------------*- C++ -*----------------------------------*\
| =========                 |                                                 |
| \\      /  F ield         | OpenFOAM: The Open Source CFD Toolbox           |
|  \\    /   O peration     | Version:  v1806                                 |
|   \\  /    A nd           | Web:      www.OpenFOAM.com                      |
|    \\/     M anipulation  |                                                 |
\*---------------------------------------------------------------------------*/
FoamFile
{
    version     2.0;
    format      ascii;
    class       volScalarField;
    location    "2";
    object      alpha;
}
// * * * * * * * * * * * * * * * * * * * * * * * * * * * * * * * * * * * * * //

dimensions      [0 0 -1 0 0 0 0];


internalField   nonuniform List<scalar> 
12225
(
0.37666572634
0.384558079084
0.388702258426
0.388863396308
0.398781083926
0.402694018216
0.408299648754
0.412656703026
0.415345509428
0.415624350933
0.412577270162
0.407258028563
0.405234869825
0.400958105379
0.388977917151
0.377397630799
0.363790922998
0.342672598185
0.373916813386
0.357343332663
0.379943338143
0.375299705332
0.381858565066
0.383586917129
0.386870890622
0.389676459347
0.392275503729
0.394497584801
0.395484548811
0.39519548974
0.396483689101
0.396881317904
0.393022741564
0.388668201883
0.382245502247
0.375980681557
0.385793407715
0.361994572239
0.380388121852
0.376073793169
0.383565449679
0.385896000594
0.389594011007
0.392619370673
0.395280488026
0.397509312594
0.398938553312
0.39954226013
0.40022621021
0.399802094001
0.396953674557
0.393899583481
0.390448375756
0.390422409241
0.393876353372
0.362098150732
0.381767050888
0.376005964695
0.38271870804
0.383987587216
0.386637369467
0.388744520661
0.390650295938
0.392290377232
0.393495678437
0.394210650034
0.394659010946
0.3942200588
0.39246666605
0.390729487754
0.389525548574
0.391712981626
0.398820732404
0.361870566059
0.382108331936
0.375408018075
0.381697338416
0.38233350541
0.384352829076
0.385781126169
0.386942540724
0.387826965705
0.388385188618
0.38862370005
0.388573958157
0.387957915303
0.386808600373
0.386047528869
0.386365768936
0.389358977441
0.4020432141
0.361603127214
0.382064061716
0.374589795329
0.380475507987
0.380563831074
0.38208234184
0.382998541228
0.383621533398
0.383979347608
0.384066172777
0.383931506584
0.38358176774
0.382933466564
0.382220139279
0.382159217402
0.383360573925
0.386590047121
0.403979762487
0.36138746946
0.381802543945
0.373722936047
0.379236634724
0.378877706972
0.38001261724
0.38055410421
0.380810216307
0.380829766713
0.380622933395
0.380261441075
0.379787593226
0.37922186359
0.378864228962
0.379283610694
0.380960014769
0.384235340064
0.405053758593
0.361304148471
0.38146899336
0.372937118428
0.378098472409
0.37736728769
0.378197509272
0.378460749876
0.378488936608
0.378324587418
0.37796934491
0.3775105089
0.377031100187
0.376606603336
0.376553246224
0.377310211182
0.379256938483
0.382468092401
0.405590343959
0.361399288149
0.381170369411
0.372320692111
0.377146295305
0.376091933517
0.376670489475
0.376736527496
0.376641296258
0.376398766812
0.375995977915
0.375541624824
0.375146523488
0.374914428476
0.375131371348
0.376161412061
0.378259880064
0.38139181894
0.405867947896
0.361709199689
0.381051904743
0.372007307286
0.37654689535
0.375230996339
0.375631631315
0.375581195835
0.375425035562
0.375152602468
0.374764152446
0.374393501092
0.374162306298
0.374166042579
0.374645988842
0.375893102371
0.378073210118
0.381063039775
0.406584065257
0.362101431668
0.381354305202
0.372147057937
0.376553938558
0.375122054182
0.375490915053
0.375419670619
0.375263030106
0.375024769806
0.3747206085
0.374471162983
0.37438332053
0.374534043935
0.375130518787
0.376402358302
0.378439293018
0.381114823962
0.409561457337
0.362587238245
0.382729886627
0.37323894413
0.377733175052
0.376285612039
0.376652477382
0.376573082716
0.376458316365
0.376271927266
0.375954383573
0.375642384944
0.375456349169
0.375492597491
0.375929796447
0.376952533234
0.378642066788
0.380872045534
0.411502528067
0.363267306432
0.383761834866
0.374071730841
0.378391687609
0.376830125665
0.377102322834
0.376922487443
0.376652917702
0.376276382847
0.375787031204
0.375321893782
0.375040737395
0.375008541324
0.375397472485
0.376338251057
0.37786016131
0.379846376856
0.413884213015
0.364064387039
0.384816700001
0.374829066608
0.378880897727
0.376995441341
0.376931609281
0.376479619777
0.376003718509
0.37548281222
0.374916959795
0.374464912446
0.374273134893
0.37437938519
0.37487340063
0.375856932961
0.377277541123
0.379100673463
0.417084969301
0.364956902648
0.386151562006
0.375737378891
0.379485377518
0.377212220158
0.376763514916
0.375994322511
0.375288196072
0.374660129109
0.374083926876
0.373737132819
0.373731285867
0.37401909835
0.374653286654
0.375675537981
0.377026030101
0.378651899111
0.420487350443
0.365851483976
0.387666236832
0.376831577844
0.380354201782
0.377736722022
0.376973294518
0.375942772748
0.375075728444
0.374365747987
0.373828587452
0.373580659599
0.373730323423
0.374144878716
0.37486344371
0.375878371942
0.377135931581
0.378609086005
0.42367191733
0.366596005758
0.389181150311
0.378003430264
0.381423586981
0.378578345197
0.377625466351
0.37644688103
0.375494423717
0.374777460893
0.374266650594
0.374097554713
0.374327474924
0.374809664012
0.375536940398
0.376522868592
0.377671409594
0.379033491543
0.426559822916
0.367077122697
0.390577078585
0.379118791035
0.382564521871
0.379615910865
0.378605855307
0.377370709573
0.376399897686
0.375696709017
0.375221222726
0.375102807427
0.375377370218
0.375876989361
0.376589891249
0.377531408869
0.378598136871
0.37985596021
0.428171644669
0.366976241783
0.391241304233
0.379645031039
0.383236174395
0.380353150988
0.379455505117
0.378317341583
0.377454199498
0.376862743142
0.37649377148
0.376464187398
0.376802773877
0.377331537132
0.378045264356
0.378966241431
0.379990579701
0.381185852429
0.424899106492
0.366146097554
0.390198352921
0.379035840339
0.383079672254
0.380711415624
0.380342876721
0.379744273756
0.379372884482
0.379220366918
0.379216697762
0.379464309277
0.379998293935
0.380653577249
0.381429455603
0.382352610036
0.383330320066
0.384414713788
0.422431783124
0.365154095381
0.389017039674
0.378183955377
0.382586109988
0.380639610419
0.380696903448
0.380496353421
0.380504340743
0.380667389599
0.380918798022
0.381343878034
0.382008512818
0.382729055455
0.383534706363
0.384438196309
0.385378813197
0.386384270642
0.420462054784
0.364183255844
0.387914228497
0.377376226081
0.38208348463
0.380518974985
0.380932307279
0.381082963648
0.381396959745
0.381816898455
0.382279273791
0.382852111334
0.383613996245
0.384399017311
0.385226997138
0.386130212761
0.387038617993
0.388013370299
0.418506727673
0.363171301734
0.386871809819
0.376607373757
0.381617468672
0.38042861776
0.381189556821
0.381670323916
0.382269050919
0.382942212099
0.383589705294
0.384316464203
0.38518488436
0.386052064481
0.386915055673
0.387839691381
0.388741687683
0.389680513872
0.41650737674
0.36214271355
0.385827752102
0.375895099294
0.381232414124
0.380405111313
0.381499143314
0.382294653784
0.383162010529
0.384054139817
0.384893288176
0.385759956867
0.386738405154
0.387679711905
0.388615545401
0.389581825289
0.390516887213
0.391445838435
0.414299180226
0.361160204022
0.384781594391
0.375240931536
0.380848086279
0.380379626992
0.381784112353
0.382854440683
0.383965100005
0.385071318149
0.386090251775
0.387090859481
0.388179280109
0.38921361418
0.390216393145
0.39124922051
0.392244095117
0.393190063281
0.411260286475
0.360159305528
0.38345523213
0.374436989233
0.380274692633
0.380120224341
0.381779773467
0.38309758394
0.384425029206
0.385733469068
0.386929592997
0.388064107172
0.389244809822
0.390371924889
0.391466411643
0.392576919422
0.393659886154
0.394664554569
0.406417214093
0.359104847361
0.381660530214
0.373319442343
0.379222547556
0.379311529867
0.381155104414
0.382634368825
0.384128135033
0.385617342376
0.387009663082
0.388274265358
0.389567794154
0.39082971263
0.392033626631
0.393265071292
0.39445588851
0.395617202006
0.397559140786
0.357561727129
0.377619182448
0.370453664444
0.376463284461
0.376904219128
0.378968523842
0.380622648087
0.38223931794
0.383847001507
0.385306643688
0.386608325271
0.387922412562
0.389175547628
0.390365577058
0.391598532583
0.392850459033
0.393702671043
0.375866965758
0.347312293783
0.372948525459
0.365497985009
0.37070219119
0.371137074103
0.373101721335
0.374876819994
0.376859102422
0.379064934231
0.381344903688
0.383440363689
0.385564784556
0.387787977743
0.390041299228
0.392336800648
0.394634182174
0.397278132723
0.363434128897
0.372710917812
0.374989433222
0.370894811394
0.377789999743
0.377863292089
0.37935779315
0.380484282643
0.381446432493
0.382150319699
0.382449232473
0.382646020561
0.38288362582
0.38278046331
0.382403746293
0.38208424271
0.381849716623
0.381942462638
0.47607933098
0.476405538288
0.476553588285
0.476515445098
0.476323111533
0.476014688658
0.475643256869
0.475235381692
0.474808999591
0.474376384342
0.473945633533
0.473521794036
0.473107834345
0.472705028079
0.47231382747
0.471933581686
0.471563657932
0.471202375332
0.470848864725
0.47050203404
0.470161069883
0.469825201603
0.469493818214
0.469167588504
0.46884636851
0.468531443945
0.46822242985
0.46792010027
0.467624480026
0.467336774646
0.467056952614
0.466785570462
0.466522543159
0.466268875356
0.466024240869
0.465788390924
0.465560998066
0.465342646829
0.465132609988
0.464930880196
0.464736752172
0.464549813853
0.464369338207
0.464194506966
0.464024624717
0.463858570477
0.463695592749
0.463534661507
0.463374958959
0.4632157412
0.46305621006
0.462896209538
0.462734666173
0.462571365062
0.462405629511
0.462237498246
0.462066926516
0.461894428978
0.461720253043
0.46154494678
0.461368941914
0.461193162168
0.46101799337
0.460843528467
0.460670027618
0.460498233591
0.460328262534
0.460160387334
0.459995098881
0.459832475452
0.459673029329
0.459516852502
0.459364323433
0.459215572924
0.459070737458
0.458929796599
0.458793171758
0.458661573906
0.458535130763
0.458413681909
0.45829717738
0.458186111601
0.458080825184
0.457982174597
0.457888285277
0.457798794826
0.457711423689
0.457623068123
0.457534061403
0.457434910588
0.45732538842
0.457210733077
0.457091692704
0.456982083652
0.456885850784
0.456776495735
0.456642837192
0.456499531441
0.456334152021
0.45613387334
0.455870396799
0.455589481524
0.455911989132
0.456165495916
0.456257305584
0.456292821656
0.456301715106
0.456296325381
0.456282748508
0.4562644633
0.456243345218
0.456220521712
0.456196506489
0.456171746799
0.456146549616
0.456121114033
0.456095012793
0.45606705701
0.456037862765
0.456009351145
0.455985363344
0.455967781118
0.455956093182
0.455950025206
0.455947312158
0.455947009775
0.455948515391
0.455951574016
0.455955921382
0.45596140104
0.455967694235
0.45597463319
0.45598203001
0.455990037597
0.455998707522
0.456008212732
0.456018611364
0.456029565566
0.456041271496
0.456053441763
0.45606718737
0.456081147578
0.456095738351
0.456111941843
0.45613055687
0.456152275404
0.456176935879
0.456204057547
0.456233012753
0.45626308987
0.45629378205
0.456324848594
0.456356196477
0.456387824387
0.456419936299
0.456452999791
0.456487936609
0.456526225982
0.456570523998
0.456624519055
0.456694614079
0.456788192372
0.456916135057
0.457093270983
0.457339530242
0.457677238784
0.458133263189
0.458730823706
0.459489497318
0.46044018509
0.461600955175
0.462971501165
0.464533351761
0.466236961597
0.468018469514
0.469908391393
0.471842878763
0.473717368216
0.475420437372
0.476637520896
0.476103560786
0.47638947649
0.476370293543
0.476135788186
0.475808223132
0.475447629926
0.475075123748
0.474699350492
0.474322774403
0.473946224384
0.473570021414
0.473194829463
0.472820865442
0.472448638114
0.472078410477
0.471710371498
0.471344598842
0.470980803789
0.470618783478
0.470258526261
0.469899834527
0.469542934166
0.469187584789
0.468834828737
0.468485066792
0.468139646952
0.467798444745
0.467462643713
0.467132722886
0.46680976281
0.466493732566
0.466185494568
0.465885429724
0.465594081249
0.465311042357
0.4650366886
0.464770666492
0.464513038537
0.464263502281
0.464021987088
0.463787863182
0.463560631078
0.463339587338
0.463123880076
0.462912687898
0.462704931752
0.462499551861
0.46229539174
0.462091144439
0.461885567574
0.461676726166
0.461465383966
0.461252176121
0.46103718676
0.460820064086
0.46060112373
0.460380832547
0.460159930425
0.459939030995
0.459719050088
0.459500800036
0.459284929732
0.459071743679
0.458861794885
0.458655402322
0.458452795625
0.458254388967
0.458060340113
0.457870824548
0.457685780082
0.457505254689
0.457329184991
0.457157607288
0.45699028496
0.456827034452
0.456667941134
0.456513090326
0.45636266923
0.456216928391
0.456075629892
0.455938380094
0.455805435025
0.455677499036
0.455554742262
0.455435366302
0.455321132545
0.455213755829
0.455105088619
0.45498146266
0.454854145218
0.454731877144
0.454585580263
0.454402604399
0.454202382825
0.454026735306
0.45385816946
0.453650392042
0.453592880638
0.453511936906
0.453387928022
0.453265953975
0.453211619363
0.453259931394
0.453263142239
0.45323675752
0.453198039421
0.453155013748
0.453110166815
0.453064360404
0.453018108451
0.452971707234
0.452925287212
0.452878810047
0.452832205371
0.45278529216
0.452737817855
0.452688831265
0.452637069891
0.452582342706
0.452527195188
0.452475207871
0.452428189602
0.452386747941
0.452349913527
0.452316339738
0.452285260762
0.452256109392
0.452228513371
0.452202224162
0.4521770445
0.452152824443
0.452129439091
0.452106899238
0.452085292115
0.452064629654
0.452044810668
0.452025464906
0.452005896296
0.451985396503
0.451963967522
0.451941790755
0.451918135269
0.45189327899
0.451868112071
0.451843965229
0.451821800811
0.451801891469
0.451784083972
0.451768112752
0.451753810531
0.451741000214
0.451729483845
0.451719053971
0.451709498808
0.451700719179
0.4516925964
0.45168510258
0.451678023704
0.451671326274
0.451664084104
0.45165539061
0.451644233692
0.451628926575
0.451606464293
0.451573482426
0.451526206432
0.451455804511
0.451367196287
0.451258902762
0.4511289345
0.450981314429
0.450826022539
0.45067526948
0.450532866787
0.450491114961
0.450454156392
0.450436306057
0.450441958192
0.450473298176
0.450648288937
0.475900125739
0.476044595354
0.475942409577
0.475704838693
0.47542483586
0.475144610218
0.474863929436
0.474578932577
0.474285317815
0.473981201899
0.47366593661
0.47334031459
0.473005662434
0.472663596901
0.472315721254
0.471963421067
0.471607919568
0.47125006695
0.470890474686
0.47052969578
0.470168237643
0.469806758454
0.469445336067
0.469085195213
0.468726851887
0.468371482775
0.468019524201
0.467672234454
0.467330129091
0.466994334588
0.466665290117
0.46634395806
0.466030490682
0.465725670483
0.465429538885
0.465142291778
0.464863757831
0.464594348698
0.464333709933
0.464081787396
0.463838216213
0.463602605286
0.463374438134
0.463153053029
0.462937814874
0.462727943792
0.462522513936
0.462320577744
0.462121166594
0.461923267182
0.46172530589
0.461526304535
0.461324910285
0.461120896575
0.460913805459
0.460703438646
0.46048968648
0.46027294107
0.460053739641
0.459833050087
0.459611714022
0.459390848622
0.459171427253
0.458954205822
0.458739907118
0.458529257253
0.458322713205
0.458120614933
0.4579233428
0.457730971988
0.457543663788
0.4573613616
0.457184042235
0.457011679655
0.456844022792
0.456681068681
0.456522719556
0.456369189616
0.456220430527
0.456076809813
0.455936955641
0.455800977182
0.455669937522
0.455543961056
0.455419261911
0.455294069989
0.455177205201
0.455067143479
0.45494673482
0.454806582269
0.454667843274
0.454536475274
0.454353616926
0.454157412998
0.453971295644
0.453781425271
0.453635508614
0.453585988233
0.453539488346
0.45348336942
0.45343825329
0.453423595229
0.453403288688
0.453338722827
0.453265829748
0.453197281586
0.453133436523
0.453073199699
0.45301576954
0.452960549416
0.45290709954
0.452854977138
0.452803794577
0.452753228491
0.452702992172
0.452652732237
0.452601539834
0.452548668681
0.452494408581
0.452441338534
0.452391948328
0.4523470979
0.452306213364
0.452267927658
0.452231789793
0.452197502057
0.452164831916
0.452133480438
0.45210316737
0.45207359427
0.452044471493
0.452015564433
0.451986799583
0.451958205858
0.451929813454
0.451901555473
0.451873182045
0.451844532777
0.451815439277
0.451786587674
0.451757853602
0.45172853276
0.451697918046
0.45166652146
0.451635652748
0.451606213075
0.451578567664
0.451552569337
0.451528025652
0.451504673708
0.451482390318
0.451460968889
0.451440392285
0.451420682096
0.451401968791
0.451384418366
0.451368408613
0.451354352161
0.451342897323
0.451334533469
0.451329760311
0.451329272689
0.451333671295
0.451342961014
0.451356883908
0.451373928942
0.451389676208
0.451400809991
0.451405660211
0.451398533818
0.451372741463
0.45132200736
0.451239510986
0.451128821353
0.451004457072
0.450873524577
0.450730484075
0.450580921792
0.450435001101
0.450301986903
0.475746528835
0.475625557282
0.475470976189
0.475269406223
0.475057739787
0.474858157626
0.474654493896
0.47443789445
0.474202770209
0.473946963388
0.473670875039
0.473376354775
0.473065673521
0.47274137338
0.472405867901
0.472061330945
0.471709657684
0.471352364716
0.470990717079
0.470625907624
0.470258532544
0.469889638675
0.469519903465
0.469150345371
0.468781611177
0.4684151538
0.468051541489
0.467691983
0.467337249737
0.466988527223
0.466646339297
0.466311625839
0.465984898008
0.465666816654
0.465357273417
0.465056913059
0.464765545389
0.464483330949
0.464210062984
0.46394576589
0.463689993333
0.463442422116
0.463202493517
0.46296958954
0.462743063747
0.462522174135
0.462306039815
0.462093696748
0.461883967303
0.46167579328
0.461467926018
0.461260069598
0.461050874672
0.460839741236
0.460626101121
0.460409755117
0.4601906682
0.459969187464
0.459745798394
0.459521426814
0.459297073184
0.459073693537
0.458852026283
0.458633145134
0.458417791786
0.458206434895
0.457999674766
0.457797916767
0.457601440301
0.457410439579
0.457224917778
0.457044938409
0.456870555739
0.456701351458
0.456537111667
0.456378033126
0.456223873781
0.456073746159
0.455928790737
0.455789419875
0.45565370783
0.455518940449
0.455389466801
0.455268001545
0.455145873731
0.455017570157
0.454891852144
0.454788352605
0.454656743433
0.454502373074
0.454353601177
0.454206867887
0.45406345268
0.453936673377
0.453823355684
0.453722476712
0.453641387061
0.453565895187
0.453480245301
0.453401045268
0.453338576813
0.453292517161
0.453242537794
0.453173497841
0.453098899338
0.453027206171
0.452960243851
0.452897892986
0.452839550451
0.452784527364
0.452732162472
0.452681832621
0.452633025176
0.45258532833
0.452538451951
0.452491951333
0.452445221067
0.452397757602
0.452350479046
0.452305503267
0.452264593575
0.452227606477
0.452192841653
0.452159383008
0.452127212199
0.45209651441
0.452067299903
0.452039401085
0.45201253939
0.451986364355
0.45196050732
0.451934681822
0.451908761703
0.451882749662
0.451856669239
0.451830439678
0.451803996567
0.451777467808
0.451751378523
0.451726482054
0.451702792846
0.451678991472
0.45165376992
0.451627395352
0.451600961168
0.451575409523
0.451551130575
0.451528115574
0.451506238992
0.451485352361
0.451465366709
0.451446177454
0.451427766735
0.451410157573
0.45139344054
0.451377756982
0.451363351308
0.451350483117
0.451339544556
0.451330902852
0.451324726391
0.451321216989
0.451320373116
0.451321600532
0.45132395345
0.451325666945
0.451323295994
0.451314305431
0.451296737689
0.451266239466
0.451218912357
0.451151734464
0.451060978723
0.450949451283
0.450823928413
0.450687566243
0.450537719267
0.450373019945
0.450185545585
0.449950576038
0.475578802568
0.475136061503
0.474953154769
0.474793982807
0.474638414679
0.474498185969
0.474348418495
0.474179063585
0.473984677525
0.473764285847
0.473518814073
0.473250447216
0.472961882958
0.472655953788
0.47233532233
0.472002497415
0.471659612847
0.471308678121
0.470951121943
0.470588336084
0.470221476282
0.46985174846
0.469479765039
0.469106959526
0.468734139259
0.468362443191
0.467992809992
0.467626583633
0.467264577638
0.46690797832
0.466557568442
0.466214399133
0.465878817657
0.465551646757
0.465233109746
0.464923612513
0.464623038719
0.464331875815
0.464049806653
0.463776895091
0.463512779662
0.463257236924
0.463009728845
0.462769753925
0.462536688462
0.46230997161
0.462088699496
0.461871913814
0.461658575342
0.461447356824
0.461236425923
0.46102557914
0.460813385324
0.46059867424
0.46038083751
0.460159625877
0.459934946915
0.4597072009
0.459477126155
0.459245846136
0.459014557916
0.458784560842
0.458556904175
0.458332618167
0.458112580048
0.457897583667
0.457688148057
0.457484525684
0.457287208626
0.457096215396
0.456911532025
0.456732970553
0.456560998323
0.456394558371
0.456233207836
0.456077631866
0.45592798789
0.455781943524
0.455638191898
0.455501672902
0.455371257521
0.455236910359
0.455103365419
0.454980564719
0.454848972008
0.454698547279
0.454553062558
0.454419250378
0.454300195358
0.454191000787
0.454084034246
0.453973469082
0.453863308815
0.453759095053
0.453662031565
0.453573605416
0.453494163111
0.453415546527
0.453333815043
0.45325787239
0.453192853948
0.453136640934
0.453079825629
0.453015715549
0.452948157419
0.452881641672
0.452818316621
0.452758891359
0.452703256144
0.452650994151
0.452601510979
0.45255424973
0.452508705956
0.452464531615
0.4524214434
0.452379017012
0.452336845028
0.452294891136
0.452254346736
0.452216946555
0.452183575452
0.452153083366
0.452123488718
0.452094182238
0.452065463786
0.452037793132
0.452011347347
0.451986067883
0.451961695184
0.451937856313
0.451914133361
0.451890210136
0.451865917146
0.451841258735
0.451816226874
0.451790751776
0.451764955405
0.451739308011
0.451714965837
0.451692722232
0.451672549403
0.451652510824
0.451631009762
0.45160808501
0.451584654071
0.451561626961
0.45153938233
0.45151802766
0.451497508256
0.451477807009
0.451458887869
0.45144074931
0.451423394466
0.451406884185
0.451391295364
0.451376782198
0.451363550596
0.451351834203
0.451341943746
0.451334143374
0.451328477524
0.451325014268
0.451323566963
0.451323333085
0.451323201344
0.451321382412
0.451314708463
0.451300712919
0.451277232341
0.451240020206
0.45118567693
0.451111491367
0.45101403824
0.450894855459
0.450759396409
0.450608398158
0.450439161526
0.450248303201
0.450022347931
0.449734017792
0.475326417885
0.474554421892
0.474368427224
0.47425447528
0.474144463007
0.47405036574
0.473941765657
0.473809777863
0.473649751782
0.473460836274
0.473244194989
0.473002292379
0.472737626121
0.472453088218
0.472151237074
0.471834692513
0.471505615633
0.471166100791
0.470817825758
0.470462552702
0.470101271902
0.469735416082
0.469366102662
0.468994465984
0.468621424364
0.468248523967
0.467876667813
0.467507153764
0.467141023661
0.466779542661
0.466423543082
0.466074074877
0.465731820844
0.465397577221
0.465071458855
0.464754225542
0.464445862209
0.464146708093
0.463856633656
0.463575853169
0.463303985039
0.463040954804
0.462786243349
0.462539483065
0.462300088613
0.462067655005
0.461841371813
0.46162038102
0.461403453251
0.46118928183
0.460975819679
0.460762655994
0.460548031192
0.460330562554
0.460109168739
0.459883398958
0.459653312984
0.459419345312
0.459182435504
0.458943943562
0.458705524893
0.458468794962
0.458235033996
0.458005511158
0.457781245634
0.457563234907
0.457351843506
0.457147266347
0.456950047445
0.456760727112
0.4565781045
0.45640236201
0.456234296364
0.456073228966
0.455916339643
0.455764651718
0.455620895849
0.455482411888
0.455342888322
0.455204606777
0.455081210462
0.454932593824
0.454778042851
0.454632410699
0.454495481945
0.454369269477
0.454252372064
0.454144544219
0.454046845878
0.453954495606
0.453859993759
0.453761755362
0.453664452065
0.453571503127
0.453483725342
0.453401533074
0.453324315266
0.453248908592
0.453174550566
0.453105005597
0.45304243514
0.452985220436
0.452928771615
0.452869503077
0.452808253691
0.452747306129
0.452688502109
0.452632792719
0.452580417688
0.452531192679
0.452484706895
0.452440506502
0.452398182356
0.452357455626
0.452318047684
0.452279619274
0.45224186637
0.452205202384
0.452170748561
0.452139919016
0.452112832975
0.452087635938
0.452062583431
0.452037220013
0.452011977915
0.451987387817
0.451963743092
0.451941048913
0.451919082324
0.451897462284
0.451875774505
0.451853685093
0.45183103623
0.451807807034
0.451783969782
0.451759475396
0.45173458077
0.451710235187
0.451687752465
0.451668193637
0.451651059456
0.451634183534
0.451615925605
0.451596097374
0.451575489046
0.451554859444
0.451534616242
0.451514889072
0.451495723556
0.451477167726
0.451459276182
0.451442102925
0.451425704531
0.451410152173
0.451395533369
0.451381982288
0.451369678677
0.451358798909
0.451349575723
0.451342156579
0.451336465745
0.451332415295
0.451329648493
0.451327212616
0.451323868843
0.451317823302
0.451306142953
0.45128645515
0.451256585353
0.451212573303
0.451151518323
0.45107116149
0.450968424173
0.450843823815
0.450701022071
0.450539741532
0.450357396999
0.450149160962
0.449899507028
0.449584271377
0.474954686141
0.473866310928
0.473691200547
0.47362460499
0.473555590108
0.473502140904
0.473430450648
0.473332872847
0.473204876095
0.473046531099
0.472858879021
0.472644224747
0.472404934219
0.472143787806
0.471863188622
0.471565750806
0.471253575337
0.47092894249
0.47059347476
0.470248876638
0.469896630095
0.469538213391
0.469174517296
0.468807145378
0.468437184634
0.468065868966
0.467694384717
0.46732420316
0.466956351546
0.466592168903
0.466232637308
0.465878954026
0.465531691685
0.465191788733
0.464859699779
0.464536010521
0.464220812912
0.463914748193
0.463617669554
0.463329836473
0.463051006845
0.46278120451
0.462519998001
0.462267140048
0.462022126187
0.461784776328
0.461554313322
0.461329998133
0.461110763837
0.460895235769
0.46068027099
0.460466136938
0.460250530696
0.460031289071
0.459806966206
0.459576884518
0.459341199692
0.459100582147
0.458856341923
0.458610375269
0.458364482944
0.458120992388
0.457881572992
0.457647541799
0.457419625204
0.457199756561
0.456987786025
0.456783449361
0.456587696196
0.456401680797
0.456223914033
0.456052183125
0.455888587404
0.455734723696
0.4555851014
0.455439025578
0.455298563842
0.455158496432
0.455004468804
0.454850849004
0.454704291614
0.45456800605
0.454440971302
0.454319405126
0.454202462438
0.454090978414
0.453986184188
0.453890196235
0.453803743508
0.453721615975
0.453636516336
0.453547748776
0.453459502285
0.453374716562
0.453294196893
0.453218175187
0.453146098508
0.4530768294
0.453010167156
0.452947561349
0.452889678059
0.45283538807
0.452782028046
0.452727581064
0.45267206221
0.452616678704
0.452562828177
0.452511425008
0.452462857397
0.452417109307
0.45237395914
0.452333075061
0.452294188693
0.452257071883
0.452221464437
0.452187029244
0.452153687832
0.452122004778
0.452093112526
0.452067951859
0.45204598209
0.452025328301
0.452004456886
0.451983029548
0.451961458322
0.451940248323
0.451919710604
0.451899881779
0.451880567078
0.451861408631
0.451842012966
0.451822059754
0.451801406921
0.451780001156
0.451757773127
0.451734690457
0.451711182381
0.451688491415
0.451668126367
0.451651126657
0.451636605024
0.451622425745
0.451606919026
0.451589853694
0.451571863386
0.451553551962
0.451535276988
0.451517152675
0.451499298456
0.451481808743
0.451464832248
0.451448460243
0.451432810269
0.451417952993
0.451403994101
0.451391039181
0.451379245452
0.451368732515
0.451359657558
0.451352070356
0.45134578145
0.451340571792
0.451335930864
0.451330804664
0.451323843456
0.451313298999
0.451296399625
0.451270907802
0.451234699598
0.451184174147
0.451116748585
0.45103058709
0.450922784834
0.450793126905
0.450643845885
0.450473952316
0.450280775641
0.450058747574
0.449792136637
0.449460997417
0.474446826929
0.473059241393
0.472894010574
0.472878004527
0.472850459614
0.47283827449
0.472803830708
0.47274126034
0.472646622921
0.472519915256
0.47236225065
0.472176178144
0.471963750025
0.471727752379
0.471470390094
0.471194272532
0.47090142827
0.470594061091
0.470273926641
0.469943020757
0.469602514732
0.469254019427
0.468898915078
0.468538484342
0.468173842648
0.467806689361
0.467438096794
0.46706949213
0.466702083467
0.466337298505
0.465976136771
0.465619798061
0.465269147056
0.464925156538
0.464588184518
0.464259144886
0.463938286923
0.463626123789
0.463322746644
0.463028566017
0.4627433854
0.462467355736
0.462200179642
0.461941721487
0.461691620994
0.461449742561
0.461215770867
0.460989141502
0.460768711186
0.460553183158
0.460339732011
0.460126649065
0.459912018559
0.459692975984
0.459467177411
0.459233506948
0.458992344337
0.458744940379
0.458493388022
0.458239901621
0.457986925711
0.457737041874
0.457493312505
0.457256038678
0.457026458476
0.456806513602
0.456596946287
0.456395939009
0.456203280562
0.456021892511
0.45585189912
0.455687828046
0.455529029221
0.455383357116
0.455224795195
0.455061470689
0.454905636482
0.454758783611
0.454623271112
0.454495597589
0.454372586954
0.454253942689
0.454139809019
0.454030115907
0.453924803196
0.453824373351
0.45373008861
0.453644039563
0.453566707236
0.45349270394
0.453415309214
0.453334245803
0.453253525417
0.453175874138
0.453102208116
0.453032649256
0.452966824969
0.452904189244
0.452844626022
0.4527885254
0.452735944932
0.452685933382
0.452636781549
0.452587242766
0.452537185323
0.452487293354
0.452438570756
0.452391809618
0.452347416678
0.452305515599
0.452266020055
0.452228751278
0.452193541526
0.452160217606
0.452128502308
0.452098081756
0.452069052229
0.452042028818
0.452018038919
0.451997631797
0.451979944954
0.451963267357
0.451946339838
0.451928859141
0.45191111502
0.451893525793
0.451876361743
0.451859670165
0.451843277491
0.451826871451
0.451810093855
0.451792680244
0.451774488094
0.451755447696
0.451735397819
0.451714332813
0.451692875887
0.451672394113
0.451654528205
0.451640030186
0.451627868457
0.451616017491
0.451602959928
0.451588458334
0.451572947116
0.451556914071
0.451540605661
0.451524143506
0.451507647099
0.451491272389
0.451475207826
0.451459602473
0.451444600959
0.451430295321
0.451416787861
0.451404171032
0.45139256872