/*--------------------------------*- C++ -*----------------------------------*\
| =========                 |                                                 |
| \\      /  F ield         | OpenFOAM: The Open Source CFD Toolbox           |
|  \\    /   O peration     | Version:  v1806                                 |
|   \\  /    A nd           | Web:      www.OpenFOAM.com                      |
|    \\/     M anipulation  |                                                 |
\*---------------------------------------------------------------------------*/
FoamFile
{
    version     2.0;
    format      ascii;
    class       surfaceScalarField;
    location    "2";
    object      phi;
}
// * * * * * * * * * * * * * * * * * * * * * * * * * * * * * * * * * * * * * //

dimensions      [0 3 -1 0 0 0 0];
oriented        oriented;


internalField   nonuniform List<scalar> 
24170
(
3.06941035393e-06
1.19001515118e-07
2.98304185558e-06
8.63737328162e-08
2.90272947051e-06
8.03178197342e-08
2.82618161175e-06
7.65541199522e-08
2.75326026904e-06
7.29264549299e-08
2.68385548563e-06
6.94102643035e-08
2.61781568017e-06
6.60442995749e-08
2.55496793605e-06
6.28525835048e-08
2.49512455135e-06
5.98473681861e-08
2.43809151565e-06
5.70373499576e-08
2.38366657383e-06
5.44285706054e-08
2.3316398796e-06
5.2030632707e-08
2.28178587894e-06
4.98575072764e-08
2.23385259822e-06
4.79369521254e-08
2.18752988098e-06
4.63264923431e-08
2.14236367667e-06
4.51711600659e-08
2.09724501478e-06
4.51254693954e-08
4.82915728845e-08
2.04895898037e-06
3.42841465625e-06
1.07842196125e-07
3.42348099015e-06
9.13130928493e-08
3.41635598647e-06
8.7448650253e-08
3.40684015549e-06
8.60764043557e-08
3.39531493817e-06
8.44572076929e-08
3.38220030001e-06
8.25305847858e-08
3.36782669129e-06
8.04228368346e-08
3.3524516645e-06
7.82326426124e-08
3.33627310291e-06
7.60304145389e-08
3.31944252432e-06
7.38725036502e-08
3.30206869825e-06
7.18066367281e-08
3.28422126504e-06
6.98824110697e-08
3.26592582138e-06
6.81572054168e-08
3.24715394342e-06
6.6713185508e-08
3.22779372333e-06
6.56913978747e-08
3.20758038375e-06
6.53900917859e-08
3.18618367103e-06
6.65293225104e-08
6.946563849e-08
3.16501386695e-06
3.67845083675e-06
9.19129439547e-08
3.68258700016e-06
8.71812824608e-08
3.68532160406e-06
8.47184721294e-08
3.68718863735e-06
8.42141303436e-08
3.68817949567e-06
8.34702934433e-08
3.68837290109e-06
8.23411419587e-08
3.68783653221e-06
8.09625135399e-08
3.68662029691e-06
7.94521966355e-08
3.68475826686e-06
7.78952324817e-08
3.68227359625e-06
7.63599627496e-08
3.67917712421e-06
7.49055045537e-08
3.6754674211e-06
7.35944915998e-08
3.67112548959e-06
7.25012626026e-08
3.66610939166e-06
7.17313090785e-08
3.66034883973e-06
7.14539777423e-08
3.65377670662e-06
7.1964633247e-08
3.64657733561e-06
7.37313863287e-08
7.6389562459e-08
3.63965263403e-06
3.93906598807e-06
7.82414407492e-08
3.94465969056e-06
8.15930561276e-08
3.94848795552e-06
8.08957795714e-08
3.95170073088e-06
8.10071298424e-08
3.95437990883e-06
8.07962924999e-08
3.9565879159e-06
8.01382033228e-08
3.95837231118e-06
7.91827058006e-08
3.95976004877e-06
7.80689272152e-08
3.96076032479e-06
7.68990911647e-08
3.96137044799e-06
7.57538698459e-08
3.96157698333e-06
7.47027945181e-08
3.96135781279e-06
7.38174215335e-08
3.96068124866e-06
7.3181483969e-08
3.95950794774e-06
7.29081789448e-08
3.95780204661e-06
7.31634588014e-08
3.95558068357e-06
7.41897541445e-08
3.95305072601e-06
7.62650867006e-08
7.91249688329e-08
3.95031776713e-06
4.21857742125e-06
6.67953591262e-08
4.22468972584e-06
7.54846697515e-08
4.22882390461e-06
7.67655172425e-08
4.23227393685e-06
7.75609963739e-08
4.2352285739e-06
7.78450393525e-08
4.23775918251e-06
7.76107964169e-08
4.23991567928e-06
7.70290220321e-08
4.24172834061e-06
7.62589161025e-08
4.24321002107e-06
7.54197676973e-08
4.24436126001e-06
7.46048330896e-08
4.24517241605e-06
7.38936434866e-08
4.24562665916e-06
7.33650244014e-08
4.24570203199e-06
7.31078077708e-08
4.24537768659e-06
7.32340142292e-08
4.24465060398e-06
7.38919227479e-08
4.24357573171e-06
7.52660424913e-08
4.24231862966e-06
7.75233547275e-08
8.05590364591e-08
4.24088289567e-06
4.51865422149e-06
5.7234151547e-08
4.52493145926e-06
6.92128177603e-08
4.52929878963e-06
7.24034315367e-08
4.53290698946e-06
7.39580146198e-08
4.53601668725e-06
7.4740128603e-08
4.5387087635e-06
7.49232833184e-08
4.54103159505e-06
7.47103969199e-08
4.54301538587e-06
7.42791284829e-08
4.54467498454e-06
7.37638979989e-08
4.54601424844e-06
7.32691293716e-08
4.54702873008e-06
7.28824928337e-08
4.54770934424e-06
7.26876288047e-08
4.54804632726e-06
7.27738221733e-08
4.54803774769e-06
7.32453701789e-08
4.5477062675e-06
7.42258863597e-08
4.547126986e-06
7.58474694801e-08
4.54644536308e-06
7.8206545099e-08
8.1248967271e-08
4.54575742688e-06
4.84071999904e-06
4.92377298939e-08
4.84692340384e-06
6.30128849622e-08
4.85147096133e-06
6.78592704172e-08
4.85523130038e-06
7.02009622918e-08
4.85849015027e-06
7.14841825393e-08
4.86133715419e-06
7.20789812765e-08
4.86381868425e-06
7.22312762796e-08
4.86596360221e-06
7.21364547268e-08
4.86778782638e-06
7.19416924057e-08
4.86929824808e-06
7.17605860889e-08
4.87049585366e-06
7.16866002453e-08
4.87137985081e-06
7.1805234286e-08
4.87195290077e-06
7.22022314233e-08
4.87223018567e-06
7.29693224174e-08
4.87225376352e-06
7.42032534647e-08
4.87210999506e-06
7.59920773789e-08
4.87193323193e-06
7.83843586423e-08
8.13267209351e-08
4.87185220053e-06
5.18628784903e-06
4.25362786792e-08
5.19225546152e-06
5.70502293063e-08
5.19691633361e-06
6.32032981957e-08
5.20081873639e-06
6.63032625824e-08
5.20422742703e-06
6.80799156951e-08
5.20723513355e-06
6.90753826176e-08
5.20988603479e-06
6.95842282648e-08
5.2122072659e-06
6.98187770287e-08
5.21421563273e-06
6.99366712348e-08
5.21592125853e-06
7.00580224707e-08
5.21733106065e-06
7.02796819643e-08
5.21845300614e-06
7.06859678457e-08
5.21930188787e-06
7.13557723641e-08
5.21990771815e-06
7.23655461415e-08
5.22032666868e-06
7.37859775902e-08
5.2206507073e-06
7.56693012083e-08
5.22100466315e-06
7.80296467185e-08
8.08090291946e-08
5.2215232841e-06
5.55698418106e-06
3.6892201892e-08
5.56261742477e-06
5.14199606191e-08
5.56732157522e-06
5.85021059749e-08
5.57134861384e-06
6.22790982338e-08
5.57490670073e-06
6.45244816505e-08
5.57808223144e-06
6.59022960379e-08
5.58091583473e-06
6.67528692551e-08
5.58343256147e-06
6.73041158051e-08
5.58564986384e-06
6.77212703747e-08
5.58758127665e-06
6.812835114e-08
5.58923979957e-06
6.86228018453e-08
5.59064212783e-06
6.92852178071e-08
5.59181415358e-06
7.01851811531e-08
5.59279793977e-06
7.13829719197e-08
5.59365895669e-06
7.29257989992e-08
5.5944903212e-06
7.48383131619e-08
5.59540900987e-06
7.71120648879e-08
7.9677338506e-08
5.59653743032e-06
5.9545590854e-06
3.21144076009e-08
5.95980998156e-06
4.61739365761e-08
5.96449446815e-06
5.38223950968e-08
5.9686240137e-06
5.81541912857e-08
5.9723295847e-06
6.08233178899e-08
5.97568074059e-06
6.25553091185e-08
5.97871209614e-06
6.37254048336e-08
5.9814459539e-06
6.45739169593e-08
5.98390009777e-06
6.52704653781e-08
5.98609135632e-06
6.59403089048e-08
5.98803855419e-06
6.66785688149e-08
5.98976637681e-06
6.75600706342e-08
5.99131012453e-06
6.86437017523e-08
5.99272076837e-06
6.99743003465e-08
5.99406893249e-06
7.15791863637e-08
5.99544593136e-06
7.34625546897e-08
5.99695757103e-06
7.55994491519e-08
7.79206737056e-08
5.99871592573e-06
6.38089380964e-06
2.80352095551e-08
6.38575265439e-06
4.13180170796e-08
6.39036868278e-06
4.92095781488e-08
6.39457836107e-06
5.39477471353e-08
6.39842937704e-06
5.69755086067e-08
6.40196537998e-06
5.90223675459e-08
6.40521180809e-06
6.04819435151e-08
6.40818714338e-06
6.16013615333e-08
6.41090906095e-06
6.25513218358e-08
6.41339706933e-06
6.34548307738e-08
6.41567521237e-06
6.44028901195e-08
6.41777477048e-06
6.54627373395e-08
6.41973838849e-06
6.66822736042e-08
6.42162262522e-06
6.80919142316e-08
6.42349968856e-06
6.97037024798e-08
6.42545585798e-06
7.15072637973e-08
6.42758722983e-06
7.34703358507e-08
7.55215342611e-08
6.42998553279e-06
5.74384549491e-06
2.50290857229e-08
5.74765969303e-06
3.75081449845e-08
5.75148213449e-06
4.53912938616e-08
5.75508715046e-06
5.03466505228e-08
5.75845406692e-06
5.36123774078e-08
5.76159475673e-06
5.58851443908e-08
5.7645208306e-06
5.75591439904e-08
5.76724381349e-06
5.88813435363e-08
5.76977774283e-06
6.0019958986e-08
5.77214067525e-06
6.10942968009e-08
5.77435593464e-06
6.21900980456e-08
5.7764536028e-06
6.33663770886e-08
5.77847324466e-06
6.46631762197e-08
5.78046476263e-06
6.61009851518e-08
5.78248774173e-06
6.76806116855e-08
5.78461055943e-06
6.93845918339e-08
5.78690453065e-06
7.11741934473e-08
7.29866860183e-08
5.78944061969e-06
7.00119497459e-06
2.19915945016e-08
7.0052569813e-06
3.34491257887e-08
7.00952957651e-06
4.112188184e-08
7.01369551867e-06
4.61840462391e-08
7.01767272141e-06
4.96383947456e-08
7.02144548191e-06
5.21156582074e-08
7.0250140231e-06
5.39936687421e-08
7.02838584866e-06
5.55124226461e-08
7.03157532017e-06
5.68332362062e-08
7.03460400843e-06
5.80687128105e-08
7.03750033126e-06
5.92950626891e-08
7.04030216337e-06
6.05655014312e-08
7.04305670217e-06
6.19086394731e-08
7.0458207781e-06
6.33359155113e-08
7.0486601688e-06
6.48401520875e-08
7.05164495145e-06
6.63969229903e-08
7.05485005853e-06
6.79691506154e-08
6.94933867174e-08
7.05834098987e-06
8.53388153268e-06
1.8960505532e-08
8.53815627131e-06
2.91774851677e-08
8.54288120069e-06
3.63994379549e-08
8.54766236211e-06
4.14050444678e-08
8.55234810568e-06
4.49551161014e-08
8.55688344151e-06
4.75823864555e-08
8.56124992442e-06
4.96295393185e-08
8.56544664662e-06
5.13176212406e-08
8.56948632222e-06
5.27960161304e-08
8.57339160201e-06
5.41641217197e-08
8.57719725446e-06
5.54915882703e-08
8.58094542533e-06
5.68169720942e-08
8.5846904388e-06
5.8163472551e-08
8.58849325769e-06
5.95316600474e-08
8.59242140832e-06
6.0910095111e-08
8.59654560682e-06
6.22711259317e-08
8.60093296312e-06
6.35785284733e-08
6.47797577075e-08
8.60564679869e-06
1.0402244085e-05
1.59379900053e-08
1.04067236961e-05
2.46999493998e-08
1.04119194462e-05
3.12057545999e-08
1.041738486e-05
3.59414403181e-08
1.04228989256e-05
3.94422002109e-08
1.04283594492e-05
4.21234293657e-08
1.04337200966e-05
4.4269590978e-08
1.04389670597e-05
4.60719605421e-08
1.04441055444e-05
4.76570990282e-08
1.04491602591e-05
4.91117867187e-08
1.04541635579e-05
5.04873477158e-08
1.04591649212e-05
5.18173977119e-08
1.04642164059e-05
5.31107196165e-08
1.04693824432e-05
5.43666367657e-08
1.04747241267e-05
5.55662686092e-08
1.04803079499e-05
5.66872090035e-08
1.04861902357e-05
5.76945138765e-08
5.85491445346e-08
1.04924204934e-05
1.26798516351e-05
1.28780661101e-08
1.26845911901e-05
1.99627988143e-08
1.2690332402e-05
2.54659663206e-08
1.26966005339e-05
2.96745482917e-08
1.27031140383e-05
3.2929894705e-08
1.27097179322e-05
3.55201516768e-08
1.27163323089e-05
3.76560302208e-08
1.27229209616e-05
3.9482931977e-08
1.27294804341e-05
4.10990425763e-08
1.27360242251e-05
4.25671374152e-08
1.27425875847e-05
4.39266470488e-08
1.27492093976e-05
4.51952391612e-08
1.27559449662e-05
4.63785072565e-08
1.27628431627e-05
4.74675185845e-08
1.27699646438e-05
4.8448323843e-08
1.27773522438e-05
4.92974216256e-08
1.27850581333e-05
4.99926329059e-08
5.05014249222e-08
1.27931026895e-05
1.54564067865e-05
9.65313360533e-09
1.54615739739e-05
1.47968018411e-08
1.54680540956e-05
1.89876756919e-08
1.54753528975e-05
2.23773638771e-08
1.54831369447e-05
2.51476244142e-08
1.54911985826e-05
2.74599413903e-08
1.54994175228e-05
2.94385079974e-08
1.55077301708e-05
3.11713018022e-08
1.55161124253e-05
3.27178036235e-08
1.55245665541e-05
3.41147744107e-08
1.55331122494e-05
3.53827037527e-08
1.55417814517e-05
3.652860024e-08
1.55506109703e-05
3.75508043324e-08
1.55596415323e-05
3.84399162574e-08
1.55689079797e-05
3.91831154212e-08
1.55784441048e-05
3.97643752181e-08
1.5588268092e-05
4.01685860921e-08
4.03776849469e-08
1.55983962182e-05
1.88412964648e-05
5.99576539828e-09
1.884726054e-05
8.83497948592e-09
1.88548926169e-05
1.13584587117e-08
1.88636596767e-05
1.3613241182e-08
1.88731725339e-05
1.56378197217e-08
1.88831698468e-05
1.74656880028e-08
1.88934866199e-05
1.9124528685e-08
1.89040261258e-05
2.0634897863e-08
1.89147362253e-05
2.20101244033e-08
1.89255982774e-05
2.32562950332e-08
1.89366092468e-05
2.43738857666e-08
1.89477836611e-05
2.53582731902e-08
1.89591339522e-05
2.62020692202e-08
1.89706829109e-05
2.68952510108e-08
1.89824382417e-05
2.74278877679e-08
1.89944170618e-05
2.77898050259e-08
1.90066097013e-05
2.79731091033e-08
2.79695068994e-08
1.90190222781e-05
2.29679969531e-05
1.3395212256e-09
2.29755252146e-05
1.31109946652e-09
2.2985143045e-05
1.74544441706e-09
2.29962050259e-05
2.55580749717e-09
2.30082395201e-05
3.60831361519e-09
2.30209266121e-05
4.7830703686e-09
2.303405653e-05
5.99930047841e-09
2.30474980705e-05
7.19812476254e-09
2.30611670702e-05
8.34510895473e-09
2.30750188887e-05
9.40974378892e-09
2.30890209014e-05
1.0374903455e-08
2.31031645069e-05
1.12209478287e-08
2.31174307436e-05
1.19376691996e-08
2.31318213591e-05
1.25114896278e-08
2.31463118815e-05
1.29373864253e-08
2.31609018888e-05
1.32074501676e-08
2.31755504026e-05
1.33213757574e-08
1.32760927749e-08
2.31902527765e-05
1.68147682384e-05
-2.71933539212e-09
1.68210773139e-05
-4.99185047159e-09
1.68289039311e-05
-6.0771780971e-09
1.68377094711e-05
-6.24179293569e-09
1.68471340257e-05
-5.81416230023e-09
1.68569669463e-05
-5.04019855164e-09
1.68670561032e-05
-4.08996306832e-09
1.68773265617e-05
-3.06177881832e-09
1.68877013992e-05
-2.03215614542e-09
1.68981615094e-05
-1.03944278221e-09
1.6908657244e-05
-1.24593223027e-10
1.69191921063e-05
6.97398865366e-10
1.69297223377e-05
1.40175354733e-09
1.69402595705e-05
1.98567425472e-09
1.69507560588e-05
2.43371991552e-09
1.69612237646e-05
2.75053788985e-09
1.69716073037e-05
2.92766460354e-09
2.97497459044e-09
1.69819169793e-05
1.46389399146e-05
-7.08639249077e-09
1.46454254518e-05
-1.14726075811e-08
1.46531433736e-05
-1.37894905116e-08
1.46615457453e-05
-1.46394669463e-08
1.46703441582e-05
-1.46046048192e-08
1.4679376671e-05
-1.40691745158e-08
1.46885544069e-05
-1.32578615919e-08
1.4697805876e-05
-1.23123926657e-08
1.47070994538e-05
-1.1316211076e-08
1.47163925006e-05
-1.0332548433e-08
1.47256742635e-05
-9.39723944244e-09
1.47349110935e-05
-8.5409254961e-09
1.47441006513e-05
-7.77860470035e-09
1.4753208389e-05
-7.12502561062e-09
1.47622353783e-05
-6.58446426883e-09
1.47711435264e-05
-6.1630914403e-09
1.47799371427e-05
-5.8578913476e-09
-5.67015557979e-09
1.47885733339e-05
1.27450495223e-05
-1.2000312199e-08
1.27519049043e-05
-1.83243787207e-08
1.2759604842e-05
-2.1484677996e-08
1.27676479988e-05
-2.26775814015e-08
1.27758489014e-05
-2.28003497902e-08
1.27841279077e-05
-2.2341420204e-08
1.27924351178e-05
-2.15606102784e-08
1.28007384108e-05
-2.06090436304e-08
1.28090108375e-05
-1.95841556793e-08
1.28172334716e-05
-1.85498055293e-08
1.28253894682e-05
-1.75478434893e-08
1.28334612568e-05
-1.66087928758e-08
1.28414360786e-05
-1.57474508781e-08
1.28492938343e-05
-1.49803982758e-08
1.285702325e-05
-1.43091450099e-08
1.28646050375e-05
-1.37440618915e-08
1.28720283142e-05
-1.32799621126e-08
-1.29205609681e-08
1.28792812599e-05
1.10966601267e-05
-1.77287092745e-08
1.11040029954e-05
-2.56640724082e-08
1.11116652978e-05
-2.91440549897e-08
1.11193104218e-05
-3.03187680158e-08
1.11269041051e-05
-3.03898308567e-08
1.11344462079e-05
-2.98786239048e-08
1.11419287232e-05
-2.90384909348e-08
1.1149342104e-05
-2.80179205406e-08
1.11566757634e-05
-2.69138479746e-08
1.11639217343e-05
-2.57899852756e-08
1.11710658811e-05
-2.46892926143e-08
1.11781023842e-05
-2.36367224129e-08
1.11850091699e-05
-2.26531692268e-08
1.11917835321e-05
-2.17443913721e-08
1.11983961931e-05
-2.09244969053e-08
1.12048523997e-05
-2.01918765386e-08
1.1211125155e-05
-1.95577468506e-08
-1.90189568193e-08
1.12172309772e-05
9.66208155932e-06
-2.45931282924e-08
9.66993136793e-06
-3.35114173367e-08
9.67744112378e-06
-3.66507992489e-08
9.68460967286e-06
-3.74842451335e-08
9.69157430257e-06
-3.73509978527e-08
9.69839619511e-06
-3.66972513572e-08
9.7050965202e-06
-3.57354051449e-08
9.71168298484e-06
-3.46010904414e-08
9.71815755623e-06
-3.33854542487e-08
9.72451904698e-06
-3.21481218855e-08
9.73076193596e-06
-3.09280188631e-08
9.73687751711e-06
-2.97485189981e-08
9.74285596512e-06
-2.86247269638e-08
9.74868067239e-06
-2.75665915274e-08
9.7543403689e-06
-2.65790987939e-08
9.75982006234e-06
-2.56702118505e-08
9.76511344748e-06
-2.48490084418e-08
-2.41226905732e-08
9.77021923155e-06
8.41374446767e-06
-3.29828225716e-08
8.42197990279e-06
-4.17443992746e-08
8.42915260097e-06
-4.38212660382e-08
8.43576599255e-06
-4.40943297614e-08
8.44209067561e-06
-4.36730269254e-08
8.44821766693e-06
-4.28213761291e-08
8.45418422452e-06
-4.16992322141e-08
8.46001039177e-06
-4.04249586892e-08
8.46570725864e-06
-3.90801210958e-08
8.47127907794e-06
-3.77181719361e-08
8.47672514968e-06
-3.6370893497e-08
8.4820388709e-06
-3.50587510863e-08
8.48721158096e-06
-3.37935114591e-08
8.49222951979e-06
-3.25809687812e-08
8.4970771688e-06
-3.14240544439e-08
8.50173720529e-06
-3.03291941992e-08
8.5062062863e-06
-2.93119901543e-08
-2.84111801614e-08
8.51049452015e-06
7.32765416199e-06
-4.33503545342e-08
7.33596824672e-06
-5.00562540064e-08
7.34260365218e-06
-5.04539552338e-08
7.34861498143e-06
-5.0103050006e-08
7.35430755346e-06
-4.93626781183e-08
7.35977035293e-06
-4.82819294741e-08
7.3650492126e-06
-4.69758296742e-08
7.37017238473e-06
-4.55462769067e-08
7.37515662056e-06
-4.40630836363e-08
7.3800111372e-06
-4.25702459479e-08
7.38473737069e-06
-4.10953786559e-08
7.38933143013e-06
-3.96498437864e-08
7.39378744633e-06
-3.82468236836e-08
7.39809374197e-06
-3.6884995583e-08
7.40223238866e-06
-3.55610300446e-08
7.40617721156e-06
-3.42726363972e-08
7.40989658675e-06
-3.30276457909e-08
-3.1870670306e-08
7.41336178393e-06
6.38290371177e-06
-5.61860860885e-08
6.39077687147e-06
-5.79273299649e-08
6.39672551562e-06
-5.64007574597e-08
6.40213575748e-06
-5.55083105689e-08
6.40722376017e-06
-5.44500036836e-08
6.41206371655e-06
-5.31201955066e-08
6.41670488717e-06
-5.16152030633e-08
6.42117878683e-06
-5.0018786499e-08
6.42550406936e-06
-4.83870934864e-08
6.42969066809e-06
-4.67561731324e-08
6.43374331664e-06
-4.51427260043e-08
6.43765634934e-06
-4.35632379153e-08
6.44143037341e-06
-4.20191886173e-08
6.44505701492e-06
-4.05100503737e-08
6.44852087126e-06
-3.90241421297e-08
6.45179189071e-06
-3.75424377591e-08
6.45481484709e-06
-3.60486809513e-08
-3.45898151036e-08
6.45754224015e-06
5.56117483888e-06
-7.18943254216e-08
5.56775437325e-06
-6.45049190763e-08
5.57274688159e-06
-6.13902581593e-08
5.57726476459e-06
-6.00216893636e-08
5.5813731841e-06
-5.85567914988e-08
5.58514172343e-06
-5.68875977896e-08
5.58862684145e-06
-5.50987071134e-08
5.59186496623e-06
-5.32556979173e-08
5.59487953938e-06
-5.14011637217e-08
5.59768776056e-06
-4.95605957909e-08
5.60029848262e-06
-4.77507717069e-08
5.60271723761e-06
-4.59811908116e-08
5.6049526727e-06
-4.42543949681e-08
5.60701046446e-06
-4.25668318829e-08
5.60889064067e-06
-4.09039551848e-08
5.61057440423e-06
-3.92265285515e-08
5.61196757523e-06
-3.74361180484e-08
-3.5340588476e-08
5.61272145474e-06
4.84316271109e-06
-8.74474818584e-08
4.84424935644e-06
-6.55892334432e-08
4.84394029737e-06
-6.10777473306e-08
4.84235574248e-06
-5.84321079801e-08
4.83965580092e-06
-5.58549313657e-08
4.8360767663e-06
-5.33071993625e-08
4.83180724999e-06
-5.0827462035e-08
4.82699173686e-06
-4.84389350371e-08
4.82174441921e-06
-4.61523571014e-08
4.8161582759e-06
-4.39708539469e-08
4.81030711914e-06
-4.18961592669e-08
4.80425254712e-06
-3.99261081852e-08
4.79805126713e-06
-3.80528123589e-08
4.79175377593e-06
-3.62685255145e-08
4.78540980006e-06
-3.45599754469e-08
4.77907672227e-06
-3.2891993968e-08
4.77280424811e-06
-3.11605415067e-08
-2.85706666303e-08
4.76604009557e-06
4.1152289209e-06
4.04963994717e-06
3.9885626755e-06
3.93013076011e-06
3.87427596273e-06
3.82096896135e-06
3.77014166275e-06
3.72170287693e-06
3.67555100445e-06
3.63158075539e-06
3.58968470664e-06
3.54975861484e-06
3.51170597117e-06
3.47543749159e-06
3.44087762146e-06
3.40798634848e-06
3.37682721354e-06
3.34825626287e-06
1.01002265793e-08
-9.6728889988e-09
-2.22828070266e-08
3.27580863553e-08
-1.09931365377e-07
8.78254470664e-08
-2.23733206571e-07
1.13945117134e-07
-3.49812939519e-07
1.26157309491e-07
-4.83689253998e-07
1.33964108864e-07
-6.23493457856e-07
1.39850652695e-07
-7.67855414929e-07
1.44427677077e-07
-9.15737471944e-07
1.47916681958e-07
-1.06615278155e-06
1.50469355148e-07
-1.21833596942e-06
1.52210622583e-07
-1.37154398372e-06
1.53254061984e-07
-1.52522110725e-06
1.53699206399e-07
-1.67882004991e-06
1.53638225223e-07
-1.83195310119e-06
1.5315050543e-07
-1.98422845475e-06
1.52309135312e-07
-2.13539066673e-06
1.51175447584e-07
-2.28516627175e-06
1.49805850916e-07
-2.43339978439e-06
1.48246022377e-07
-2.57990837558e-06
1.46538226037e-07
-2.72461113261e-06
1.44715571123e-07
-2.86738900345e-06
1.42809254427e-07
-3.00821466812e-06
1.40842124802e-07
-3.14701696463e-06
1.38836843775e-07
-3.28380620615e-06
1.36809039448e-07
-3.41854429275e-06
1.34774913536e-07
-3.55126764283e-06
1.32744342761e-07
-3.68195885529e-06
1.30729135158e-07
-3.81067136277e-06
1.28734751385e-07
-3.93740204344e-06
1.26768614562e-07
-4.0622136042e-06
1.24831834668e-07
-4.1851053058e-06
1.22928121155e-07
-4.30613968745e-06
1.21053679384e-07
-4.4253122235e-06
1.19206770037e-07
-4.5426748743e-06
1.17377891198e-07
-4.65820262722e-06
1.15559793041e-07
-4.77192442816e-06
1.13735630033e-07
-4.88378415057e-06
1.11890850193e-07
-4.99377165909e-06
1.1000048326e-07
-5.10178283686e-06
1.08041528846e-07
-5.20775043138e-06
1.05979419575e-07
-5.31150334942e-06
1.03781475372e-07
-5.41289616863e-06
1.01402453832e-07
-5.51166937088e-06
9.87989156518e-08
-5.60757646572e-06
9.59132314452e-08
-5.70024349155e-06
9.26897032657e-08
-5.78929770669e-06
8.90585126347e-08
-5.87422947974e-06
8.49528420535e-08
-5.95451743125e-06
8.02911072738e-08
-6.0294987985e-06
7.500341863e-08
-6.09850347939e-06
6.90099242408e-08
-6.16071425826e-06
6.2236024252e-08
-6.21531088286e-06
5.46053423739e-08
-6.26134326907e-06
4.60595363203e-08
-6.29789495111e-06
3.65596337922e-08
-6.32396399973e-06
2.60986961334e-08
-6.33858582781e-06
1.46330959955e-08
-6.34072053536e-06
2.1679134977e-09
-6.32950748641e-06
-1.12025139619e-08
-6.30415640602e-06
-2.53136346955e-08
-6.26408000439e-06
-4.00617254652e-08
-6.20872433149e-06
-5.53160676806e-08
-6.13778158597e-06
-7.09320963929e-08
-6.05103463206e-06
-8.6707121671e-08
-5.94860520488e-06
-1.02420000433e-07
-5.83076781079e-06
-1.17795604243e-07
-5.6981933235e-06
-1.32565173859e-07
-5.55171759307e-06
-1.46434868337e-07
-5.3925568609e-06
-1.5915612807e-07
-5.22203443649e-06
-1.70488314023e-07
-5.04177209452e-06
-1.80265979231e-07
-4.85339326153e-06
-1.88352510285e-07
-4.65870497268e-06
-1.9469955704e-07
-4.4593988131e-06
-1.99282731129e-07
-4.25725064067e-06
-2.02157496307e-07
-4.0538277776e-06
-2.03393607654e-07
-3.85069840209e-06
-2.03129088333e-07
-3.64918285791e-06
-2.01483965389e-07
-3.45056842047e-06
-1.98620247888e-07
-3.25582916162e-06
-1.94710719469e-07
-3.0658954468e-06
-1.89939186072e-07
-2.88146084504e-06
-1.84410452076e-07
-2.70312914989e-06
-1.78346694243e-07
-2.53112010166e-06
-1.71986350624e-07
-2.36565516861e-06
-1.65475581943e-07
-2.20677025636e-06
-1.58867453868e-07
-2.05440846817e-06
-1.52388511835e-07
-1.90834300613e-06
-1.46101043139e-07
-1.76852448174e-06
-1.39914267325e-07
-1.63445903972e-06
-1.34233561559e-07
-1.50541169665e-06
-1.29199262123e-07
-1.38156251906e-06
-1.23976985142e-07
-1.26295844715e-06
-1.18707740751e-07
-1.14803946528e-06
-1.15019387175e-07
-1.03540149816e-06
-1.12714560462e-07
-9.25575135645e-07
-1.09889720525e-07
-8.19874410763e-07
-1.05735019585e-07
-7.18441630568e-07
-1.01444458099e-07
-6.21492423322e-07
-9.69354577984e-08
-5.2819516143e-07
-9.32326274572e-08
-4.35883936029e-07
-9.220203978e-08
-3.4307119822e-07
-9.26254517862e-08
-2.50277599982e-07
-9.25209392795e-08
-1.59661096198e-07
-9.02426048371e-08
-7.13446155796e-08
-8.77151947482e-08
1.60176831575e-08
-8.66265796808e-08
9.42673213561e-08
-7.75830161026e-08
1.62490509806e-07
-6.77559354388e-08
2.26806057025e-07
-6.3971208405e-08
2.88644974774e-07
-6.15586596186e-08
3.48584757382e-07
-5.97473081145e-08
4.07009878505e-07
-5.82605182007e-08
4.6412519892e-07
-5.70250259875e-08
5.20156698021e-07
-5.59499743793e-08
5.7521288736e-07
-5.50360681644e-08
6.29468257443e-07
-5.42265129305e-08
6.82985958625e-07
-5.35388381259e-08
7.35898934597e-07
-5.29289009577e-08
7.8825977703e-07
-5.24171117045e-08
8.40209546369e-07
-5.19620081484e-08
8.91797538841e-07
-5.15716577633e-08
9.43101061012e-07
-5.12067695392e-08
9.94078981417e-07
-5.08792884591e-08
1.04475234509e-06
-5.05542303538e-08
1.09506545674e-06
-5.02523199406e-08
1.14505545042e-06
-4.9933108918e-08
1.19466777406e-06
-4.96133457298e-08
1.2439240125e-06
-4.92522630524e-08
1.29274830717e-06
-4.88661302017e-08
1.34113575738e-06
-4.84172709188e-08
1.38899008366e-06
-4.79217989275e-08
1.43628285715e-06
-4.73457976158e-08
1.48290219596e-06
-4.67049910446e-08
1.52879942013e-06
-4.59697774001e-08
1.57385226819e-06
-4.51552731757e-08
1.6179959389e-06
-4.42367385411e-08
1.66110308644e-06
-4.32286437602e-08
1.70309299083e-06
-4.21129113133e-08
1.74384453875e-06
-4.09041735321e-08
1.78328240671e-06
-3.95893681149e-08
1.82131014889e-06
-3.81767706917e-08
1.8578469392e-06
-3.66607270367e-08
1.89279200237e-06
-3.5047947678e-08
1.92605337065e-06
-3.33427926001e-08
1.95754076042e-06
-3.15576702808e-08
1.98718350018e-06
-2.97012920244e-08
2.01491814395e-06
-2.77881699473e-08
2.04070194749e-06
-2.58305249894e-08
2.06450323697e-06
-2.38462629867e-08
2.08631249426e-06
-2.18504871854e-08
2.10613415522e-06
-1.98631292449e-08
2.12399554761e-06
-1.79008639744e-08
2.1399376061e-06
-1.59825441135e-08
2.15402171661e-06
-1.41232214126e-08
2.16632089031e-06
-1.23391513352e-08
2.17692485225e-06
-1.06425046595e-08
2.18593125633e-06
-9.04522342305e-09
2.19344836541e-06
-7.55422956099e-09
2.19958663544e-06
-6.17505087128e-09
2.20446118522e-06
-4.90948805234e-09
2.20818681462e-06
-3.75979330502e-09
2.2108790794e-06
-2.72465976945e-09
2.2126488553e-06
-1.80114528316e-09
2.21364469953e-06
-1.02567807071e-09
2.21394700295e-06
-3.30964612588e-10
2.21348028896e-06
4.39277493406e-10
2.21210048617e-06
1.35360899095e-09
2.20962587203e-06
2.44927951718e-09
2.2058290978e-06
3.77267092525e-09
2.20039593104e-06
5.40950581818e-09
2.19293510866e-06
7.43829076735e-09
2.18296165329e-06
9.95093889286e-09
2.16981960972e-06
1.31205490925e-08
2.15261078201e-06
1.71870677414e-08
2.13010397182e-06
2.2486272949e-08
2.10057347057e-06
2.95099098194e-08
2.06152854627e-06
3.9026061042e-08
2.00915656404e-06
5.23519905367e-08
1.93727114001e-06
7.18634809129e-08
1.06128928625e-07
1.83111316907e-06
-1.03293660329e-07
9.37939869401e-08
-2.27056105814e-07
1.5663487248e-07
-3.37459051953e-07
1.98299811506e-07
-4.53438187201e-07
2.2999471848e-07
-5.79512917633e-07
2.52280574537e-07
-7.13915637903e-07
2.68421652904e-07
-8.54404790838e-07
2.80377704685e-07
-9.99153339963e-07
2.89222595633e-07
-1.14682653321e-06
2.95621181361e-07
-1.29634970811e-06
3.00033414739e-07
-1.44691472631e-06
3.02802671747e-07
-1.59782651946e-06
3.04201845116e-07
-1.74856055464e-06
3.04456231926e-07
-1.89864816502e-06
3.03757096685e-07
-2.04774678573e-06
3.02268223175e-07
-2.19554186199e-06
3.00131247403e-07
-2.34181868678e-06
2.97467933615e-07
-2.48637238351e-06
2.94383456985e-07
-2.62907946952e-06
2.90967295291e-07
-2.76981392787e-06
2.87296060039e-07
-2.90851766184e-06
2.8343405215e-07
-3.04511997142e-06
2.79435791427e-07
-3.17960686857e-06
2.75346288877e-07
-3.3119458197e-06
2.71203391353e-07
-3.442154257e-06
2.67037661171e-07
-3.57022510486e-06
2.62874849757e-07
-3.69619372702e-06
2.58735273557e-07
-3.82006837068e-06
2.54635400469e-07
-3.94189683549e-06
2.5058704939e-07
-4.06169569055e-06
2.46599081128e-07
-4.17951574787e-06
2.42675826589e-07
-4.29537402959e-06
2.38818150382e-07
-4.40931892901e-06
2.35021591184e-07
-4.52136019582e-06
2.31277892769e-07
-4.63153341258e-06
2.27572442064e-07
-4.73983097864e-06
2.23885671397e-07
-4.84626576804e-06
2.20190517831e-07
-4.95080132517e-06
2.16453789237e-07
-5.05341459781e-06
2.12633139713e-07
-5.15402598895e-06
2.08678995956e-07
-5.25255949487e-06
2.04530941413e-07
-5.34887372751e-06
2.00119540882e-07
-5.44281810396e-06
1.95362425025e-07
-5.53416419619e-06
1.90165638557e-07
-5.62265826267e-06
1.84419538527e-07
-5.70795460699e-06
1.78002961669e-07
-5.78966517802e-06
1.70778718014e-07
-5.86729472329e-06
1.62597749199e-07
-5.94028726033e-06
1.53292019457e-07
-6.00796309301e-06
1.42693569021e-07
-6.06957524487e-06
1.30632063286e-07
-6.12425737313e-06
1.16935495787e-07
-6.17108976374e-06
1.01449273609e-07
-6.20906278799e-06
8.40497988448e-08
-6.23714408183e-06
6.4653801181e-08
-6.25423444221e-06
4.32101075769e-08
-6.25927095439e-06
1.96854194326e-08
-6.25125613391e-06
-5.82370335744e-09
-6.22938779191e-06
-3.30514225834e-08
-6.19289138129e-06
-6.17812786644e-08
-6.14108601644e-06
-9.18432739503e-08
-6.07338168198e-06
-1.22989190215e-07
-5.98940011163e-06
-1.54889319614e-07
-5.88895983679e-06
-1.87114989393e-07
-5.77219676484e-06
-2.1915709581e-07
-5.63952547407e-06
-2.50433712266e-07
-5.49172797901e-06
-2.80336957661e-07
-5.32987237454e-06
-3.08259905821e-07
-5.15535424066e-06
-3.33654355313e-07
-4.96977195721e-06
-3.56048745295e-07
-4.77493945711e-06
-3.7508865878e-07
-4.57274370571e-06
-3.90535874949e-07
-4.3651453966e-06
-4.02295429855e-07
-4.15403766308e-06
-4.1038371945e-07
-3.94127140703e-06
-4.14921327641e-07
-3.72853535074e-06
-4.16116547748e-07
-3.517371797e-06
-4.14285441981e-07
-3.3090991441e-06
-4.09744373206e-07
-3.10487859518e-06
-4.02834957412e-07
-2.90560605761e-06
-3.93970715606e-07
-2.71199828549e-06
-3.83542895317e-07
-2.52457491475e-06
-3.71825288087e-07
-2.34367566865e-06
-3.59244080581e-07
-2.1694141747e-06
-3.46235956592e-07
-2.00188194796e-06
-3.33000571175e-07
-1.84095926345e-06
-3.1977932837e-07
-1.68587088511e-06
-3.07482457433e-07
-1.53635391914e-06
-2.95645638204e-07