/*--------------------------------*- C++ -*----------------------------------*\
| =========                 |                                                 |
| \\      /  F ield         | OpenFOAM: The Open Source CFD Toolbox           |
|  \\    /   O peration     | Version:  v1806                                 |
|   \\  /    A nd           | Web:      www.OpenFOAM.com                      |
|    \\/     M anipulation  |                                                 |
\*---------------------------------------------------------------------------*/
FoamFile
{
    version     2.0;
    format      ascii;
    class       volScalarField;
    location    "2";
    object      rho;
}
// * * * * * * * * * * * * * * * * * * * * * * * * * * * * * * * * * * * * * //

dimensions      [0 0 0 0 0 0 0];


internalField   nonuniform List<scalar> 
12225
(
0.600707680778
0.592651052407
0.588425515372
0.588261282153
0.578162880419
0.574183944134
0.568488972712
0.564066712205
0.561339512181
0.561056769666
0.564147300714
0.569546729865
0.571601836867
0.575948768264
0.588144564548
0.599960026542
0.613876802882
0.63554888987
0.603516689516
0.620484088942
0.597360359521
0.602103379211
0.595405377187
0.593641767841
0.590292420429
0.587432678489
0.584784826466
0.582522066763
0.581517345101
0.581811585224
0.580500422385
0.580095771064
0.584023801308
0.588460226768
0.59501049572
0.601407562533
0.591391119271
0.615716819852
0.59690627888
0.601312428845
0.593663669612
0.59128649649
0.587516696811
0.584434601222
0.581725061743
0.579456748406
0.578002697068
0.577388630386
0.576693029565
0.577124359601
0.580022139849
0.583130920273
0.586646127918
0.586672584813
0.583154573362
0.615610706211
0.595498774565
0.60138173016
0.59452761445
0.593233008164
0.590530520332
0.588382440819
0.586440398972
0.584769677464
0.583542194798
0.582814199917
0.582357723157
0.582804620438
0.584590126582
0.586359715566
0.58758646392
0.585357799902
0.578122548148
0.61584386395
0.595150478935
0.601992699911
0.595569922701
0.594920689855
0.592860419497
0.591403643958
0.5902193676
0.589317710816
0.588748690728
0.588505584644
0.588556283837
0.589184222893
0.590355930982
0.591131973859
0.590807459716
0.587756213208
0.574845518247
0.616117864896
0.595195657779
0.602828857469
0.596817070761
0.596726907681
0.595177002417
0.594242080319
0.593606451418
0.593241413813
0.593152839648
0.593290219174
0.593647021402
0.594308479353
0.595036378519
0.595098549547
0.593872694892
0.590578771852
0.572877165682
0.616338824508
0.595462550928
0.603714861535
0.598081914597
0.598448422987
0.597289629783
0.596736837104
0.596475397731
0.596455441196
0.596666574966
0.597035603593
0.59751936904
0.5980969972
0.598462186149
0.598033948359
0.596322489356
0.59298026893
0.571785847051
0.616424196373
0.595802977005
0.604518162081
0.599244202429
0.599991020505
0.599143056165
0.598874218143
0.598845432872
0.59901327419
0.599376083133
0.599844728814
0.600334431305
0.600768080648
0.600822590692
0.600049321786
0.598061182775
0.594783348858
0.571240691471
0.616326715023
0.596107775063
0.605148387885
0.600216758608
0.601293894748
0.600702814804
0.600635351451
0.600732638387
0.600980411232
0.601391933872
0.601856177129
0.602259911918
0.60249709283
0.602275395763
0.601222908721
0.599079357919
0.595881745342
0.570958675777
0.616009188046
0.596228693869
0.605468816951
0.600829078832
0.602173590646
0.601764208186
0.601815743137
0.601975310813
0.602253699871
0.60265066752
0.60302947394
0.603265769187
0.603261950395
0.602771428019
0.601497045207
0.599270003094
0.596217328044
0.570231247155
0.615607345007
0.59592003429
0.605325922603
0.600821883395
0.602284916919
0.601907993251
0.601980792904
0.602140856289
0.602384332266
0.602695168116
0.602950101092
0.603039878876
0.602885835689
0.602276266989
0.600976742011
0.59889613074
0.596164470859
0.567207899509
0.615109676635
0.594516207831
0.604209606944
0.599617297003
0.601096016333
0.600721215811
0.600802325511
0.600919573167
0.601109997616
0.601434431931
0.601753220197
0.601943313561
0.601906274099
0.60145955342
0.600414689549
0.598689053731
0.596412284354
0.565237799794
0.614413081801
0.593463314608
0.603358345726
0.598944747597
0.600539734576
0.600261676517
0.600445382449
0.600720765983
0.601105445491
0.601605423797
0.602080705771
0.602368014786
0.602400916407
0.602003475812
0.601042237121
0.599487597263
0.597459352673
0.562821499824
0.613596747339
0.592387255632
0.602584327902
0.598445164731
0.60037085762
0.600436064131
0.600897808968
0.601384025136
0.601916272914
0.602494505984
0.602956489289
0.603152494258
0.603043900955
0.602539020824
0.60153400118
0.600082693183
0.598220744409
0.559575964459
0.612682821603
0.59102588753
0.601656156985
0.597827933167
0.600149417041
0.600607781795
0.601393625236
0.602115140077
0.602756976845
0.60334588015
0.603700350031
0.603706326601
0.603412141768
0.602763969742
0.601719344781
0.600339610497
0.598679012953
0.556128169619
0.611766938523
0.589481559853
0.60053825109
0.596940906581
0.599613674197
0.600393481224
0.601446295085
0.60233225717
0.603057838758
0.603606868872
0.603860294337
0.603707310382
0.60328358167
0.602549196247
0.601512095943
0.600227345126
0.598722733877
0.552903135596
0.611004808725
0.587937439264
0.599341270706
0.59584932104
0.598754126742
0.599727309744
0.600931255881
0.601904408021
0.602637066764
0.603159121618
0.603331951163
0.603096955655
0.602604156474
0.601860963735
0.60085362497
0.599680383431
0.598289345096
0.54998023593
0.610512371547
0.586514996479
0.598202244377
0.594684948376
0.597694655599
0.598726033093
0.599987525215
0.600979255883
0.601697712558
0.602183578052
0.602304585118
0.602024017167
0.601513508589
0.600785153786
0.599823381115
0.598733915236
0.597449568414
0.548349586915
0.610615622309
0.585838288601
0.597664923685
0.593999618019
0.5969419793
0.597858434051
0.599020674108
0.599902244937
0.600506414017
0.600883351217
0.600913575136
0.600567676103
0.600027538139
0.599298544565
0.598358016304
0.597312128666
0.5960919715
0.551660878155
0.611465344215
0.586900877945
0.598286946682
0.594159299317
0.596576251996
0.596952467953
0.597563597386
0.59794279385
0.598098525434
0.598102271967
0.597849444643
0.597304252928
0.596635293438
0.595843331206
0.594901194081
0.593903562208
0.592797292576
0.554158794214
0.612480919737
0.588104692159
0.599156898632
0.59466291925
0.596649550884
0.59659106597
0.596795790926
0.596787637177
0.596621193725
0.596364561349
0.595930676982
0.595252347335
0.594517055957
0.593695035073
0.59277333889
0.591813938007
0.590788593862
0.556153794608
0.613475017962
0.58922875615
0.599981890368
0.595175836172
0.596772698044
0.596350771739
0.596196991275
0.595876498326
0.595447901019
0.594976032202
0.594391491458
0.593614140999
0.592813304058
0.591968774051
0.591047657949
0.590121410964
0.589127693974
0.558134955101
0.61451141401
0.590291483231
0.600767293584
0.595651438464
0.596864938453
0.596088190423
0.595597493798
0.594986464516
0.594299555785
0.593638923273
0.592897514671
0.592011725355
0.591127348688
0.59024739062
0.589304738318
0.588385328238
0.587428546792
0.560161490141
0.615565053343
0.591356095116
0.601495004865
0.596044446121
0.596888935074
0.59577220467
0.59496033715
0.594075287837
0.59316511491
0.592309137196
0.591425232424
0.590427502281
0.589467823
0.588513896198
0.587529114683
0.586576323253
0.585629928182
0.562400614602
0.616571687128
0.59242306305
0.602163438141
0.596436741137
0.596914950935
0.59548136188
0.594389114652
0.593255948559
0.592127554569
0.591088407519
0.59006814834
0.588958574811
0.587904354429
0.586882496223
0.585830224081
0.584816816997
0.583853407324
0.565483624024
0.61759735772
0.593776118467
0.602985027572
0.597022075315
0.597179771362
0.595485790079
0.594141023532
0.592786770171
0.59145224482
0.590232568736
0.589075975076
0.587872562275
0.586724022943
0.585608970565
0.584477836167
0.58337498716
0.582352079434
0.570400724831
0.618678127973
0.59560748932
0.604127316994
0.598096298811
0.598005440848
0.596123356138
0.594613674897
0.593089630138
0.591570673055
0.590150932071
0.588861754603
0.587543413165
0.586257604702
0.585031189898
0.58377702384
0.582564517463
0.581382319727
0.579406048506
0.620260150621
0.599733728138
0.607057668453
0.600914497604
0.600464044303
0.598355685647
0.596666866212
0.595016806767
0.593376428727
0.591887542576
0.590560134758
0.589220413486
0.587943149135
0.586730490737
0.585474382935
0.584199252925
0.583331421498
0.601523750178
0.630779950024
0.604506500395
0.612128836108
0.606803477608
0.606358712718
0.604349887
0.602535526426
0.600510133204
0.598257238282
0.595929630127
0.593791288096
0.5916242734
0.589357455169
0.587060907327
0.584722394434
0.582383000327
0.579691978958
0.614242219271
0.604749417786
0.602420443344
0.606606475834
0.599559257672
0.599484399625
0.597958202999
0.596808113238
0.595826003711
0.59510762975
0.594802594496
0.594601785284
0.594359334996
0.594464599738
0.594849011214
0.595175062533
0.595414407643
0.595319754598
0.500111404246
0.499784458797
0.499636080511
0.499674307876
0.499867070145
0.500176195258
0.500548496908
0.500957357708
0.501384804195
0.501818534957
0.50225043207
0.502675434153
0.503090562537
0.503494537511
0.503886902901
0.504268308944
0.504639388043
0.505001824307
0.505356487969
0.505704473197
0.506046594839
0.506383625093
0.506716176132
0.507043575897
0.507365967915
0.507682060741
0.507992239658
0.508295726586
0.508592495446
0.508881334784
0.509162274935
0.509434755831
0.509698861534
0.50995358194
0.510199243241
0.510436094002
0.510664461895
0.510883758739
0.511094713815
0.511297333497
0.511492325255
0.511680102155
0.511861393756
0.512037021397
0.512207683124
0.512374504633
0.512538240563
0.512699925491
0.512860380888
0.513020354086
0.513180647036
0.513341416518
0.513503741247
0.513667837319
0.513834384919
0.514003345363
0.514174763858
0.514348123405
0.514523175536
0.514699369569
0.514876271681
0.515052953468
0.515229027079
0.515404399019
0.515578807696
0.515751506319
0.515922377957
0.516091148083
0.516257322966
0.516420823657
0.516581134839
0.516738163726
0.51689152948
0.517041100255
0.517186738487
0.517328464398
0.517465853896
0.517598191664
0.517725348877
0.517847486492
0.517964654408
0.518076355036
0.518182245456
0.518281463915
0.518375895436
0.518465904264
0.518553782988
0.518642653354
0.518732180185
0.518831912183
0.518942078526
0.519057410707
0.51917715648
0.519287417456
0.519384224596
0.519494234386
0.519628696307
0.519772867241
0.519939250022
0.520140750845
0.520405846932
0.520688503662
0.52036399805
0.520108934789
0.520016564479
0.519980831961
0.51997188435
0.519977306897
0.519990966474
0.520009363122
0.52003060999
0.520053572779
0.520077734666
0.520102645682
0.520127996987
0.520153588274
0.520179849421
0.520207976619
0.520237350034
0.520266036792
0.520290172064
0.520307862452
0.520319622321
0.520325727654
0.520328457406
0.520328761651
0.520327246765
0.520324169308
0.520319795179
0.520314281792
0.520307949869
0.52030096822
0.520293525899
0.520285469067
0.520276745835
0.520267182201
0.520256719673
0.520245698184
0.520233920375
0.520221675404
0.520207845459
0.520193799634
0.520179119416
0.520162816642
0.520144087618
0.520122236166
0.520097424879
0.520070137481
0.520041005498
0.520010744926
0.519979865718
0.51994861005
0.519917071518
0.519885251447
0.519852944632
0.519819680668
0.519784532248
0.519746011237
0.519701445585
0.519647124816
0.519576607799
0.519482467608
0.519353759408
0.51917556883
0.518927853396
0.518588166892
0.51812950636
0.517528552088
0.516765668635
0.515809861762
0.514643076899
0.513265762428
0.511696638414
0.509985629001
0.508196978851
0.506300145483
0.504359292724
0.502479319241
0.500771850898
0.499551963648
0.500087118913
0.499800556464
0.499819782314
0.500054817832
0.50038314105
0.500744592607
0.501118011626
0.501494732639
0.501872285626
0.502249839622
0.502627072754
0.50300331909
0.503378360872
0.503751687554
0.504123034965
0.504492213124
0.504859143658
0.505224115755
0.505587332545
0.505948805347
0.506308732099
0.506666885788
0.507023507306
0.507377550161
0.507728611544
0.508075337715
0.508417852767
0.508754967665
0.509086200416
0.509410464961
0.509727791057
0.510037311415
0.51033864213
0.510631236238
0.510915500838
0.511191057367
0.511458259518
0.51171704323
0.51196771109
0.512210332898
0.512445540244
0.51267383396
0.512895919916
0.513112653278
0.513324858736
0.513533620035
0.513740001732
0.513945165741
0.514150425369
0.514357029245
0.514566922287
0.514779337245
0.514993636014
0.51520973426
0.515427985837
0.515648073721
0.515869528811
0.516091607435
0.516313692732
0.516534863897
0.516754304036
0.516971360458
0.517185726675
0.517396846252
0.51760439803
0.517808150645
0.518007687117
0.518202848293
0.518393457186
0.518579575852
0.518761155558
0.518938259586
0.519110850968
0.519279167289
0.519443392792
0.519603441211
0.519759226328
0.519910559423
0.520057188039
0.520199351156
0.520337444476
0.520471210068
0.520599938876
0.520723459335
0.52084358073
0.520958530379
0.521066582306
0.521175935101
0.521300343785
0.521428470398
0.52155151849
0.521698752465
0.521882906166
0.522084423977
0.522261214997
0.522430883826
0.522640028332
0.522697919606
0.522779399061
0.522904231139
0.523027017762
0.523081715267
0.523033080539
0.523029848263
0.523056409145
0.523095385997
0.523138699547
0.523183846925
0.523229960607
0.52327652323
0.523323236534
0.523369969184
0.523416759778
0.52346367916
0.523510909584
0.523558705327
0.52360802405
0.523660136872
0.523715236204
0.52377075931
0.52382310123
0.523870440655
0.523912165735
0.523949252338
0.523983056219
0.524014348382
0.524043699887
0.524071485514
0.524097955488
0.52412330841
0.52414769524
0.524171241724
0.524193936984
0.524215693174
0.524236498269
0.524256454143
0.524275933598
0.524295637516
0.524316279132
0.524337856454
0.524360186829
0.524384006271
0.524409034946
0.524434376535
0.524458691083
0.524481009536
0.524501057323
0.524518988713
0.524535071104
0.524549472919
0.524562372475
0.524573969096
0.524584471673
0.52459409346
0.52460293432
0.524611113763
0.524618659871
0.524625788149
0.524632532329
0.52463982506
0.524648579261
0.52465981411
0.524675228186
0.524697847505
0.52473106013
0.524778667256
0.524849563087
0.524938794307
0.525047851286
0.525178738792
0.525327406903
0.525483805832
0.52563563802
0.525779064092
0.525821116709
0.525858341818
0.525876320981
0.525870628047
0.525839061953
0.52566281216
0.500291023658
0.500146219672
0.500248641542
0.500486769039
0.500767441767
0.501048352861
0.501329735275
0.501615459984
0.501909840867
0.502214767705
0.502530892338
0.502857421913
0.503193027949
0.50353609066
0.503885003407
0.504238377511
0.504594986788
0.504953978965
0.505314741044
0.505676718529
0.506039402518
0.506402132673
0.506764830874
0.507126267927
0.507485925664
0.507842622595
0.508195920116
0.508544554335
0.508888006719
0.509225145229
0.509555527672
0.509878186391
0.510192967053
0.510499082389
0.510796489286
0.511084989512
0.511364753692
0.511635366923
0.51189718385
0.512150257544
0.51239495331
0.512631662905
0.512860904176
0.51308334103
0.513299610755
0.513510496252
0.513716927251
0.513919855461
0.514120253911
0.514319140691
0.514518097189
0.514718106567
0.514920528708
0.515125591625
0.515333755955
0.515545221397
0.515760098584
0.515977993735
0.516198367118
0.516420245913
0.516642784107
0.516864858468
0.517085490181
0.51730391894
0.517519417618
0.517731255632
0.517938972956
0.518142227192
0.518340635261
0.518534120994
0.518722521615
0.518905893508
0.519084259474
0.519257645197
0.519426302752
0.51959023467
0.519749538864
0.519903999414
0.520053664521
0.520198163999
0.520338877702
0.520475695483
0.520607547347
0.520734307751
0.520859785893
0.520985762903
0.521103363279
0.521214120173
0.521335292029
0.521476336437
0.521615962017
0.521748172916
0.521932210072
0.522129686001
0.522317016816
0.522508131992
0.522655010006
0.522704857579
0.52275166513
0.52280815592
0.522853571445
0.522868326863
0.522888768345
0.522953763788
0.523027142818
0.523096148899
0.523160421277
0.523221061986
0.523278877862
0.52333446946
0.523388279459
0.523440753571
0.523492282009
0.523543190301
0.523593767083
0.523644368128
0.523695908469
0.5237491395
0.523803769492
0.523857201867
0.523906929766
0.523952087253
0.523993252034
0.524031800464
0.524068186573
0.524102710076
0.524135605073
0.524167172523
0.52419769459
0.524227471759
0.524256795662
0.524285902519
0.524314866343
0.524343658017
0.524372247131
0.524400701046
0.524429271363
0.524458119591
0.524487415299
0.524516467588
0.524545401689
0.524574926809
0.524605754993
0.524637370686
0.524668455007
0.52469810048
0.5247259393
0.524752119646
0.524776835287
0.524800350944
0.524822790654
0.524844362446
0.524865083566
0.524884932263
0.52490377714
0.524921451023
0.524937573447
0.524951728864
0.524963264379
0.524971687155
0.524976493946
0.524976985004
0.524972555404
0.524963200239
0.524949179289
0.524932014262
0.524916156189
0.52490494409
0.524900059761
0.524907236272
0.524933210098
0.524984301534
0.525067380011
0.52517885274
0.525304099679
0.52543596467
0.525580027677
0.525730663302
0.525877635358
0.526011611504
0.500444980439
0.500566238605
0.500721190018
0.50092324974
0.501135438836
0.501335521671
0.501539704176
0.501756864058
0.501992606835
0.502249098621
0.502525940302
0.50282128028
0.503132844231
0.503458085481
0.503794585786
0.504140166789
0.504492929173
0.504851352933
0.505214170055
0.505580184612
0.505948799044
0.506318963417
0.506689998205
0.507060881442
0.507430963922
0.50779878709
0.508163780043
0.508524728716
0.508880857808
0.509230976028
0.509574556185
0.509910653197
0.510238752309
0.510558188334
0.510869068523
0.51117074375
0.511463403471
0.51174688491
0.512021394279
0.512286905665
0.512543866119
0.512792599107
0.513033664845
0.513267683243
0.513495302932
0.513717268715
0.513934465109
0.51414786036
0.514358637542
0.514567859889
0.514776782238
0.514985701993
0.515195975483
0.515408206005
0.515622964951
0.515840452898
0.516060705392
0.51628337382
0.516507970367
0.516733564391
0.516959150046
0.517183765984
0.517406669535
0.517626780716
0.517843353261
0.518055915397
0.518263862871
0.518466787417
0.518664407417
0.518856526923
0.519043142133
0.519224188574
0.519399611078
0.519569829908
0.519735059749
0.519895102176
0.520050200247
0.520201246441
0.520347092903
0.520487324291
0.520623877864
0.520759484422
0.520889767577
0.521011995202
0.521134892408
0.521264007373
0.521390523498
0.521494682382
0.52162713295
0.52178249447
0.521932225923
0.522079909795
0.522224258094
0.522351865551
0.522465926083
0.522567468434
0.52264909275
0.522725083519
0.522811300758
0.522891026678
0.522953910774
0.523000277372
0.523050590267
0.523120091737
0.523195189946
0.523267364368
0.523334777081
0.523397548099
0.523456284454
0.523511679555
0.523564399031
0.523615070183
0.523664209071
0.523712230263
0.523759425834
0.523806243505
0.523853292808
0.523901080747
0.523948682945
0.523993967001
0.524035157439
0.524072398642
0.524107402543
0.524141091503
0.524173483965
0.524204393445
0.524233809582
0.524261901104
0.524288948479
0.524315304583
0.524341340616
0.524367345023
0.524393444836
0.524419637337
0.524445898826
0.52447231062
0.524498937583
0.524525650924
0.524551921866
0.524576991809
0.52460084619
0.524624813627
0.52465021127
0.524676770111
0.524703389118
0.524729119545
0.524753568485
0.524776744734
0.524798774683
0.524819807826
0.524839933749
0.524859257758
0.52487779783
0.524895530775
0.524912365375
0.524928159281
0.524942666354
0.524955625154
0.524966640763
0.524975343354
0.524981563341
0.524985097477
0.524985947297
0.52498471123
0.524982341729
0.524980616158
0.524983003819
0.524992057754
0.525009749372
0.525040462788
0.52508812419
0.525155777332
0.525247176504
0.525359496815
0.525485914918
0.52562325307
0.525774176676
0.525940064332
0.526128897716
0.526365580152
0.500613104843
0.501056922724
0.501240285266
0.5013998591
0.501555824688
0.501696415637
0.501846574148
0.50201637641
0.50221128271
0.50243227298
0.502678422412
0.502947543335
0.503236933799
0.50354375631
0.503865343279
0.504199180875
0.504543130923
0.50489517947
0.505253894755
0.505617881713
0.505985981752
0.506356985607
0.506730279289
0.507104424575
0.507478611316
0.507851696271
0.508222736923
0.508590383607
0.508953818841
0.509311850632
0.509663691883
0.510008285824
0.510345282286
0.510673853514
0.510993773638
0.511304633386
0.511606548012
0.511899026305
0.512182385294
0.51245655935
0.512721910199
0.512978661008
0.513227351132
0.513468483354
0.513702683386
0.513930513913
0.514152882479
0.514370751503
0.514585164906
0.514797456288
0.515009467148
0.515221402003
0.515434699468
0.515650536102
0.515869523823
0.516091913612
0.516317798825
0.516546777462
0.516778107557
0.51701065976
0.517243230495
0.517474513125
0.517703452284
0.517929011542
0.518150308197
0.518366543273
0.518577194089
0.518782006026
0.518980483423
0.519172606938
0.519358389927
0.519538020806
0.51971102878
0.519878476575
0.520040809225
0.520197336905
0.520347900697
0.52049484691
0.520639490233
0.520776859744
0.520908090965
0.521043281987
0.521177669191
0.521301247422
0.521433676552
0.521585061484
0.521731479019
0.521866152769
0.521985977241
0.522095879935
0.522203542377
0.522314829169
0.522425710762
0.522530609064
0.522628312006
0.522717322285
0.522797290659
0.52287642904
0.522958704259
0.523035153287
0.523100606146
0.523157195401
0.523214391595
0.523278932216
0.523346944899
0.523413909045
0.523477661777
0.523537489085
0.523593501321
0.523646118019
0.52369593752
0.523743520437
0.523789374596
0.523833850371
0.523877232972
0.523919949573
0.523962410374
0.524004651928
0.524045474649
0.524083131848
0.524116732508
0.524147434534
0.524177233114
0.524206741706
0.524235658377
0.524263520167
0.524290148765
0.524315603107
0.524340144526
0.524364148533
0.524388035927
0.524412125092
0.524436586699
0.524461416381
0.524486622225
0.524512274512
0.524538250433
0.524564076468
0.524588588309
0.524610987054
0.524631300661
0.52465147916
0.524673130439
0.524696215455
0.524719810299
0.524742998593
0.524765399028
0.524786903358
0.524807566652
0.524827406127
0.524846458078
0.524864724033
0.524882200828
0.52489882718
0.524914525641
0.524929140924
0.524942465662
0.524954264554
0.524964224673
0.524972079999
0.524977785772
0.524981273435
0.52498273094
0.524982966466
0.524983099135
0.524984930887
0.524991651881
0.525005746106
0.525029392327
0.525066867194
0.525121594632
0.525196305545
0.525294450404
0.525414481645
0.525550908349
0.525702989427
0.525873444899
0.526065684408
0.526293283925
0.526583726498
0.500866098768
0.501640033993
0.501826512928
0.501940764837
0.502051069062
0.502145417883
0.502254310399
0.502386656645
0.502547121796
0.502736561951
0.502953813295
0.50319640772
0.503461843732
0.50374722415
0.504049986026
0.5043675044
0.504697613999
0.505038216064
0.505387629321
0.505744087423
0.506106598116
0.506473724899
0.506844347318
0.507217327625
0.507591744585
0.507966046472
0.508339326747
0.508710282218
0.509077866377
0.509440808197
0.509798270946
0.510149199131
0.510492905721
0.5108285896
0.511156133879
0.511474773844
0.511784523015
0.512085039027
0.512376450434
0.512658540443
0.512931690956
0.513195975396
0.513451914055
0.513699875117
0.513940445683
0.51417403174
0.514401446858
0.514623552598
0.514841583942
0.515056853786
0.515271419493
0.51548569393
0.51570144592
0.515920065713
0.516142640798
0.516369624901
0.516600958492
0.516836205268
0.517074420987
0.517314238462
0.51755399319
0.51779206053
0.518027152709
0.51825799285
0.518483555291
0.518702836037
0.518915467628
0.519121253184
0.519319644642
0.51951009761
0.519693819322
0.519870625564
0.520039714054
0.520201766806
0.520359620723
0.520512245767
0.520656893838
0.520796241044
0.520936638067
0.521075788992
0.521199964211
0.52134952284
0.521505057928
0.521651621611
0.521789429951
0.521916456363
0.522034110385
0.522142638469
0.522240973199
0.522333926715
0.522429047562
0.522527931255
0.522625875538
0.522719438481
0.522807797638
0.52289053563
0.522968267318
0.523044176927
0.523119031968
0.523189042744
0.523252033089
0.523309632402
0.5233664613
0.523426129562
0.523487792741
0.523549152776
0.523608355439
0.523664443108
0.523717174323
0.523766734575
0.523813537374
0.523858039584
0.523900653087
0.52394165858
0.523981336562
0.524020028588
0.524058040751
0.524094956781
0.524129647691
0.524160689576
0.524187962325
0.524213333176
0.524238558621
0.524264097247
0.524289513837
0.524314274038
0.524338082437
0.524360933812
0.524383052651
0.524404822629
0.524426660906
0.524448903698
0.524471709923
0.524495100615
0.524519103698
0.524543768601
0.524568836649
0.524593351945
0.524615991495
0.524635686834
0.524652940666
0.524669934488
0.524688320036
0.524708286934
0.524729039465
0.524749813501
0.52477019851
0.52479006395
0.52480936387
0.524828049896
0.524846067038
0.524863360908
0.524879874528
0.524895536214
0.524910257825
0.524923904241
0.524936294442
0.524947250805
0.524956538939
0.52496401034
0.524969741265
0.524973820254
0.524976606551
0.524979059594
0.524982426932
0.524988515085
0.525000277781
0.525020104444
0.525050185057
0.525094508053
0.525155995004
0.525236921465
0.525340388873
0.525465877419
0.525609700776
0.525772139852
0.525955800272
0.52616554688
0.526417022856
0.526734576346
0.501238750051
0.502329969639
0.502505558836
0.502572338031
0.502641544117
0.502695142028
0.502767032601
0.502864884635
0.502993243873
0.503152041644
0.503340236516
0.503555519958
0.503795522267
0.50405745799
0.504338919839
0.504637288559
0.504950459287
0.505276146915
0.505612725848
0.505958487873
0.506311947676
0.506671623304
0.507036622041
0.507405335515
0.50777667342
0.508149397684
0.508522317631
0.508893956181
0.509263281658
0.509628949036
0.509989971367
0.510345145338
0.510693894662
0.511035275497
0.511368829777
0.511693967672
0.512010595245
0.51231806675
0.512616528073
0.512905716972
0.51318587518
0.513456977296
0.513719455497
0.513973556981
0.514219787514
0.514458326985
0.514689955444
0.514915414796
0.515135776683
0.515352422282
0.515568510565
0.515783772609
0.516000523502
0.516220938241
0.516446470972
0.516677803636
0.516914780455
0.517156728051
0.517402329736
0.517649679067
0.517896965282
0.518141847571
0.518382646549
0.518618036932
0.518847287333
0.519068452153
0.51928168111
0.519487239057
0.519684169739
0.519871310912
0.52005015975
0.520222941767
0.520387544082
0.520542359206
0.520692911059
0.520839898563
0.520981240815
0.521122190052
0.521277191756
0.521431787603
0.521579280401
0.521716439525
0.521844291757
0.521966643135
0.522084343847
0.522196552964
0.522302030955
0.522398647068
0.522485667075
0.522568334839
0.522653995631
0.522743350015
0.522832181391
0.522917530473
0.522998586438
0.523075115627
0.523147674483
0.523217407929
0.523284517907
0.523347544984
0.523405818437
0.523460474957
0.523514195784
0.523569011486
0.523624906906
0.523680666652
0.523734883572
0.523786637002
0.523835536021
0.523881596696
0.523925042066
0.523966206176
0.52400535919
0.524042730784
0.524078582904
0.524113254947
0.524146825904
0.524178727283
0.524207818799
0.524233153125
0.524255274629
0.524276071148
0.524297086881
0.524318662469
0.524340383028
0.524361739948
0.524382420014
0.52440238635
0.524421835069
0.524441126521
0.52446065691
0.524480748793
0.524501545242
0.524523099943
0.524545482725
0.524568726198
0.524592398146
0.524615247389
0.524635754575
0.524652872995
0.524667496077
0.524681774454
0.524697389592
0.524714574294
0.524732690503
0.524751130139
0.524769533135
0.524787784477
0.524805763895
0.524823376309
0.524840471962
0.524856958935
0.524872718854
0.52488768055
0.524901737587
0.524914783627
0.524926660336
0.524937247265
0.52494638611
0.524954026738
0.524960359936
0.524965606291
0.524970279914
0.524975442234
0.524982452498
0.524993071281
0.52501008982
0.525035761501
0.525072225388
0.525123108047
0.525191011063
0.525277783959
0.525386353196
0.525516936568
0.525667287105
0.525838403096
0.52603297648
0.526256618742
0.52652518056
0.526858761916
0.50174790829
0.503139294829
0.503305002829
0.503321055379
0.503348680434
0.503360901057
0.503395445338
0.503458198853
0.503553114705
0.503680197845
0.503838333953
0.504024969043
0.504238047539
0.504474777861
0.504732951313
0.505009953268
0.505303751461
0.505612137555
0.505933352495
0.506265395868
0.506607094294
0.506956832993
0.507313228269
0.507674994019
0.508041011675
0.508409576165
0.508779611475
0.509149684992
0.509518583681
0.509884873651
0.510247550599
0.510605408822
0.510957578874
0.511303082519
0.511641558817
0.511972088352
0.512294419188
0.512608034255
0.512912840398
0.513208423584
0.513494979718
0.513772355639
0.514040848749
0.514300593995
0.514551952177
0.514795058385
0.515030228417
0.515258028543
0.515479607065
0.515696266793
0.515910847534
0.516125066861
0.516340850824
0.516561079698
0.516788110814
0.517023067111
0.517265567792
0.517514356072
0.51776732803
0.518022257257
0.518276685409
0.518528015821
0.518773167708
0.519011837354
0.519242778424
0.519464036563
0.51967486384
0.519877087555
0.520070919212
0.520253418369
0.520424458815
0.52058954574
0.520749332708
0.520895915541
0.521055473419
0.521219828857
0.521376651503
0.521524440124
0.521660819796
0.521789313562
0.521913117453
0.522032529576
0.52214740447
0.522257812331
0.522363813429
0.522464901733
0.522559806412
0.522646422739
0.522724266098
0.522798759504
0.52287666793
0.522958270629
0.523039529279
0.52311769954
0.523191858981
0.523261884711
0.52332815166
0.523391209379
0.523451174596
0.523507654469
0.523560590941
0.523610941595
0.523660427173
0.5237103028
0.523760701093
0.523810933265
0.523859988556
0.523907069424
0.523951766291
0.523993954585
0.524033721165
0.524071245972
0.524106697855
0.524140251157
0.524172184964
0.524202815286
0.524232045157
0.524259255214
0.524283410923
0.524303959181
0.524321768411
0.524338561467
0.524355606229
0.524373208059
0.524391075199
0.52440878643
0.524426069593
0.524442877059
0.524459383599
0.524475903648
0.52449279789
0.524510332626
0.524528651379
0.524547824351
0.524568013906
0.524589225746
0.524610832326
0.524631457035
0.524649447689
0.524664046983
0.5246762937
0.524688227508
0.524701376379
0.524715979417
0.524731599188
0.524747744485
0.524764167126
0.524780744641
0.524797356701
0.524813846262
0.524830023551
0.524845738456
0.524860845327
0.524875251474
0.524888853873
0.524901559412