/*--------------------------------*- C++ -*----------------------------------*\
| =========                 |                                                 |
| \\      /  F ield         | OpenFOAM: The Open Source CFD Toolbox           |
|  \\    /   O peration     | Version:  v1806                                 |
|   \\  /    A nd           | Web:      www.OpenFOAM.com                      |
|    \\/     M anipulation  |                                                 |
\*---------------------------------------------------------------------------*/
FoamFile
{
    version     2.0;
    format      ascii;
    class       volScalarField;
    location    "2";
    object      sensitivity;
}
// * * * * * * * * * * * * * * * * * * * * * * * * * * * * * * * * * * * * * //

dimensions      [0 2 -3 0 0 0 0];


internalField   nonuniform List<scalar> 
12225
(
-8.22087712461
-7.23191658472
-7.80669322696
-7.24367501091
-6.44677028252
-6.08408495934
-5.57856167749
-5.2944886039
-5.09158084556
-4.91783086404
-4.73646212496
-4.60103388356
-4.07296089289
-4.59259930087
-5.01557525769
-5.51181379018
-6.84263321753
-8.64493253023
-11.3990105933
-11.3531315222
-9.1114517838
-9.3995629657
-8.84151579598
-8.59214157914
-8.13268207068
-7.74067444911
-7.34270164505
-6.996649462
-6.77063924625
-6.59199629493
-6.41831098161
-6.98519566558
-7.51184891659
-8.18248601287
-9.18467710791
-9.54599346185
-9.61732201967
-10.4161970669
-9.25374241121
-9.30891377694
-8.65393630113
-8.40231849558
-7.96805977558
-7.63825102932
-7.33915481532
-7.1129612507
-6.99686342158
-6.95161783765
-7.05515855527
-7.50044286276
-7.93222205377
-8.44049472626
-8.97838562521
-8.68441618544
-8.93025141594
-10.7348634385
-9.32361016145
-9.61446218014
-9.08364509925
-8.97412988556
-8.66015807472
-8.43114642325
-8.22076974513
-8.06663830866
-7.99093872494
-7.98400751532
-8.09185992768
-8.35624261318
-8.62278221249
-8.88627348814
-8.99750866524
-8.42386592218
-8.54201467149
-10.8835117688
-9.40564266793
-9.82164662777
-9.36332407156
-9.35407572859
-9.13928695101
-9.01267357735
-8.90247370277
-8.83399469938
-8.81640372855
-8.84593983062
-8.94093731661
-9.0977970391
-9.2283802964
-9.28278013727
-9.1138210659
-8.47624777138
-8.29975202992
-11.0098046303
-9.49449309628
-10.0136916809
-9.6195149206
-9.6899540079
-9.54924737474
-9.49576609234
-9.45257776379
-9.43741030993
-9.4533165667
-9.49554725611
-9.5675938989
-9.64940979178
-9.67502423794
-9.58413688246
-9.26762548354
-8.65937560148
-8.16899480382
-11.1047899931
-9.57480120376
-10.1688610539
-9.8255150832
-9.9545310133
-9.86708842966
-9.86497600174
-9.86692077588
-9.88607515642
-9.92154462228
-9.96587443831
-10.0146976214
-10.0414360804
-9.99096305832
-9.80971985171
-9.43323317659
-8.87213974252
-8.10357872283
-11.1662132715
-9.63935736821
-10.2848204979
-9.98176160488
-10.1527234592
-10.1027588272
-10.1348699783
-10.1650802951
-10.2052892955
-10.2510396426
-10.2913096428
-10.3182354635
-10.3034602799
-10.2010759747
-9.97237979378
-9.57941551998
-9.07583715616
-8.07274348779
-11.1970916587
-9.68677189413
-10.365444329
-10.0940765777
-10.2936109114
-10.2685815146
-10.3221213944
-10.3695587048
-10.4219565418
-10.4710904332
-10.5034026547
-10.5105505895
-10.4655034621
-10.3318181557
-10.0827332954
-9.70267130131
-9.24744853748
-8.04818662134
-11.1955525006
-9.70817402689
-10.4076385637
-10.1617065552
-10.3806870827
-10.3722835923
-10.4405044022
-10.4998555592
-10.559156625
-10.606626288
-10.6284765449
-10.6187443866
-10.5536775037
-10.404342361
-10.1538114891
-9.79498953708
-9.38786182618
-7.97614233965
-11.1829322435
-9.69175285307
-10.4090087936
-10.1802377859
-10.414810697
-10.4201464863
-10.5009272403
-10.5679223249
-10.6290842962
-10.6725310021
-10.6860136478
-10.6648616947
-10.5881528066
-10.4328891497
-10.1889730704
-9.85960724326
-9.49536546853
-7.67848648927
-11.1646463074
-9.58556554876
-10.335090403
-10.1079430242
-10.3598547263
-10.375741049
-10.4624586269
-10.5321294517
-10.5952503503
-10.6379013538
-10.6448721725
-10.6159245924
-10.5325667092
-10.3787898502
-10.1501018977
-9.8489413088
-9.52482247449
-7.46117995959
-11.1064260484
-9.47823052781
-10.2372925923
-9.99958428849
-10.2436768199
-10.2567893226
-10.342908496
-10.4098371579
-10.4659234585
-10.4986302998
-10.4992281419
-10.4640060169
-10.3822370435
-10.2380394837
-10.0303789336
-9.76491597863
-9.48702163219
-7.19697297165
-11.0437388962
-9.36073432529
-10.1336214972
-9.88896702911
-10.129202055
-10.1357474154
-10.2110920143
-10.2657491163
-10.3079384073
-10.3268992007
-10.3127495031
-10.2686771027
-10.1841289229
-10.0500864744
-9.86427030479
-9.63845756668
-9.40284877743
-6.85663473742
-10.9850784893
-9.22148064999
-10.0157714556
-9.76178957183
-9.99825908828
-10.0002972524
-10.0679231295
-10.1129108621
-10.1412985008
-10.1468232855
-10.1197558151
-10.0671140123
-9.98308032993
-9.85882621134
-9.69719315408
-9.50558027624
-9.31646188529
-6.50199487567
-10.9286745445
-9.0666921673
-9.8843182607
-9.61732905961
-9.85063582268
-9.84695662128
-9.90810714147
-9.94196764273
-9.96132847284
-9.95450445217
-9.92055421203
-9.86345664567
-9.78413592841
-9.67187635887
-9.53483985195
-9.37653849986
-9.22351018575
-6.17912704721
-10.8858373341
-8.91833511379
-9.75541627203
-9.47097378468
-9.69705157925
-9.68462369488
-9.73517778052
-9.75942962574
-9.76798619637
-9.75523383603
-9.71608004096
-9.66066622936
-9.58722300901
-9.49030006665
-9.37412124102
-9.2469710003
-9.12057275519
-5.89065550688
-10.8547250917
-8.78392389245
-9.64112750448
-9.33468337028
-9.55091004648
-9.52664647275
-9.56609430877
-9.57945063265
-9.5795881199
-9.56166820787
-9.52081695672
-9.46874352549
-9.40380445016
-9.32120955332
-9.22462351678
-9.12216694235
-9.02083585346
-5.75213829598
-10.8703515788
-8.72621726033
-9.59509680465
-9.26493774486
-9.46735640494
-9.42768494347
-9.45412440649
-9.45533069314
-9.44606868547
-9.4221573994
-9.37907850186
-9.32889986338
-9.27012333824
-9.19749064321
-9.11464177105
-9.02866445266
-8.94419513954
-6.10455662162
-10.9176549384
-8.84635911746
-9.67992609405
-9.33400873852
-9.51784911133
-9.45907803498
-9.46745620199
-9.45422265874
-9.43215536407
-9.39871861409
-9.34892908303
-9.29483747383
-9.2351415244
-9.16467400266
-9.08689509337
-9.00790835493
-8.93160101793
-6.38238597352
-10.9904905428
-8.97453861373
-9.78972389204
-9.43327795279
-9.60641522422
-9.53312725008
-9.5306417312
-9.50498754534
-9.47392399086
-9.43209048161
-9.37676042707
-9.3169027595
-9.25551349024
-9.18322220095
-9.10736714974
-9.02918220166
-8.95727941673
-6.60863180117
-11.0614646959
-9.09501019373
-9.89847272261
-9.53682454474
-9.70073862207
-9.61856707284
-9.6067133159
-9.57277980965
-9.53459589732
-9.48558541469
-9.42448067625
-9.36029457666
-9.29531050707
-9.22185511048
-9.14503375165
-9.06860493024
-8.99486233843
-6.83934219279
-11.1413407244
-9.21510794761
-10.0108039681
-9.64486346429
-9.80152174373
-9.71203494437
-9.69247350505
-9.65258516973
-9.60631803698
-9.55309396357
-9.48624207571
-9.41835186924
-9.3494892094
-9.276053476
-9.198188025
-9.12228965375
-9.0486561378
-7.07709260687
-11.2258352823
-9.33959353901
-10.1224931499
-9.75078340323
-9.90253115597
-9.80667722706
-9.78100889528
-9.73529370499
-9.68525512428
-9.62726170355
-9.55757795013
-9.48618519091
-9.41681671036
-9.34123972904
-9.26368033218
-9.18636946227
-9.11291081984
-7.32712271235
-11.306236515
-9.46727353469
-10.2291379755
-9.85607142481
-10.0008776459
-9.89958933334
-9.86991708013
-9.82015365553
-9.76592430624
-9.70428470851
-9.63307792235
-9.5604266117
-9.48991114906
-9.41484313674
-9.33728834027
-9.2576703048
-9.18409589402
-7.65251245963
-11.3833641848
-9.62079178159
-10.3425208491
-9.96571359968
-10.101800934
-9.99662231113
-9.96192567527
-9.9081365546
-9.84960638328
-9.78523023587
-9.71298821339
-9.64158271366
-9.57161337889
-9.49605065673
-9.4192606456
-9.3387238535
-9.2623096896
-8.15664344738
-11.4786114987
-9.82629158574
-10.4887872435
-10.1186214594
-10.2418704777
-10.1283496448
-10.0845045483
-10.0203019275
-9.95129378466
-9.87435179825
-9.79710037911
-9.72312778739
-9.64796744908
-9.57140466327
-9.49293152933
-9.41128773627
-9.31389096637
-8.82974552359
-11.2981881156
-10.1772362067
-10.6596739466
-10.2756031104
-10.3684201652
-10.2509421511
-10.2106380046
-10.1580603775
-10.101197441
-10.043619108
-9.98647670233
-9.93125948551
-9.87510605291
-9.8123270878
-9.74437479255
-9.66686758879
-9.64546806783
-12.6434228871
-13.1622533453
-10.5452146919
-11.1942768184
-10.8372442896
-10.8654494761
-10.6895311784
-10.5536759918
-10.3845208848
-10.2002223896
-10.0128594144
-9.8432332868
-9.67584988418
-9.50652317853
-9.34996829841
-9.21583712067
-9.08032169074
-8.70539299167
-10.4833988088
-9.04896543019
-10.3005750307
-10.1488088136
-9.64624561589
-9.63068931241
-9.37553961944
-9.21500271144
-9.07063202535
-8.94179824014
-8.81883654958
-8.70148609421
-8.60821878111
-8.53138963493
-8.44504604499
-8.35061103804
-8.283211678
-8.39101629078
-0.000175389349433
-0.00669380526124
-0.0069964616412
0.0229516051439
0.0495687564638
0.0657427529307
0.0853751518608
0.110478007793
0.141174929752
0.177167489892
0.21799948765
0.263169752972
0.312090143009
0.364258260042
0.419096806168
0.476159051259
0.534932472139
0.595045145858
0.656138969546
0.717942713283
0.780217543286
0.842777390803
0.905477925651
0.968267103852
1.03110846564
1.09390789052
1.15655143282
1.21891617754
1.28091911038
1.34244478976
1.40337244359
1.46352377872
1.52274249681
1.58091098285
1.63780627656
1.69324076962
1.74700178645
1.79899699736
1.84895581721
1.89676390997
1.94214749289
1.98500082105
2.02504502704
2.06216868682
2.09608177041
2.12664687852
2.15361242567
2.17676016361
2.19586172851
2.21071852447
2.22126248578
2.22725699042
2.22827360585
2.22382602185
2.21365235034
2.19760568644
2.17567527224
2.14790900923
2.11445186171
2.07554426711
2.03151911732
1.98278833479
1.92980969266
1.87308507591
1.81317465684
1.75070940158
1.68626485661
1.62039546762
1.55365099758
1.48648442099
1.4193530232
1.35260825042
1.28656763059
1.22147874238
1.15758048261
1.09500773183
1.03391218493
0.97440902101
0.916492882392
0.860127795716
0.805227415737
0.751714552482
0.699535216261
0.648662898224
0.598672246339
0.549135570572
0.499965949812
0.450652830318
0.400161065668
0.348252564594
0.296374126324
0.24359737928
0.188722169933
0.138708077139
0.0957925672662
0.0412324955465
-0.0329099829128
-0.116282385021
-0.217719969106
-0.346487850502
-0.52353185822
-0.717985117676
-0.492952665805
-0.322838105519
-0.271418167259
-0.263245073023
-0.275676646702
-0.299086042006
-0.328653573802
-0.361740756354
-0.396828974119
-0.433013607575
-0.469745503756
-0.506689369926
-0.54363168467
-0.580437341457
-0.617059748286
-0.653532631124
-0.689773801793
-0.725620944332
-0.760760676632
-0.795049083056
-0.828482819667
-0.861032140493
-0.892751608395
-0.923599447828
-0.95350807748
-0.982412479908
-1.01024793287
-1.03696332301
-1.06250333006
-1.08681737205
-1.1098534308
-1.13156833839
-1.15193070676
-1.17090258055
-1.18845191506
-1.20461898176
-1.21938830929
-1.23279534385
-1.24465981726
-1.25511779861
-1.26419002565
-1.27190115095
-1.27827045517
-1.28329972179
-1.28704644869
-1.28963571016
-1.29121311203
-1.29206700073
-1.29237539916
-1.29219869982
-1.29152747317
-1.29037034785
-1.28865157563
-1.28622458517
-1.28282204103
-1.27804530667
-1.2713346261
-1.2619011935
-1.24879809601
-1.23102385849
-1.20724143917
-1.17604034254
-1.13606785628
-1.08617682813
-1.02561857685
-0.954220330128
-0.871443083462
-0.777743152398
-0.67496937193
-0.565431599012
-0.451765749885
-0.337775944731
-0.227273578905
-0.115166072943
-0.0104092447008
0.0828986852899
0.158327269122
0.174611035316
0.0104740148803
0.0270745570475
0.0271788036177
0.0306738700575
0.0392131955
0.0521770937097
0.0703838081031
0.094092378034
0.123088340304
0.157043848822
0.195543620472
0.238209228065
0.284540132012
0.334137263953
0.386512127022
0.441287268522
0.498026120817
0.556380979843
0.616010215191
0.676676150913
0.738128295835
0.800174862799
0.862676169533
0.925538478499
0.988674683991
1.05198649201
1.11532297541
1.17854553077
1.24153240093
1.3041107559
1.36608437291
1.42726523927
1.48745543231
1.54643543089
1.60392896142
1.65973033349
1.71355735734
1.76520278317
1.81437844869
1.86087151296
1.90434752374
1.94457833263
1.98121846383
2.01400264505
2.04256857895
2.06664370957
2.08584219111
2.09978110885
2.10800525154
2.10995891758
2.10481145458
2.09326147461
2.0760247929
2.05304917502
2.02440455395
1.99027885675
1.95099400612
1.90691757223
1.85848701461
1.8061778784
1.7504871969
1.69189917621
1.63086397686
1.56786744242
1.50335742444
1.43776148483
1.37148338598
1.30488492938
1.23827776681
1.17192711976
1.10606909833
1.040888794
0.976552196495
0.913168888029
0.850827496057
0.789608901441
0.729514139383
0.670477204171
0.612544647523
0.555520646571
0.498965661387
0.442784054287
0.387119512516
0.331449533451
0.274950237357
0.219316382918
0.166710907487
0.111641015629
0.0467071243793
-0.0177344258218
-0.0723217639942
-0.138293436969
-0.22931592919
-0.333318576884
-0.42161355669
-0.506610788882
-0.6208873477
-0.630660755921
-0.658448402239
-0.718341446861
-0.779607131634
-0.797324479854
-0.748175161629
-0.736311695163
-0.750121675213
-0.776182526658
-0.807586758086
-0.841846382244
-0.877876984049
-0.915062940454
-0.952999080578
-0.99138611368
-1.03002099896
-1.06876030985
-1.10751754681
-1.14623177791
-1.18492223958
-1.22361402906
-1.26225695338
-1.30059683714
-1.33834596803
-1.37538031892
-1.41169239012
-1.44734646496
-1.4823891991
-1.51679452084
-1.55053093437
-1.58355904903
-1.61585107607
-1.64737667519
-1.67811423284
-1.7080429444
-1.73715849494
-1.76547066169
-1.79301880199
-1.8198350568
-1.8459822709
-1.87152973686
-1.89653416518
-1.92092125138
-1.94456464047
-1.96748536755
-1.98968990288
-2.01116202204
-2.03181503936
-2.05154006974
-2.07027457317
-2.08798108451
-2.10464940509
-2.12019796133
-2.13462036741
-2.1479338288
-2.16023474276
-2.17161704788
-2.18216605402
-2.19199865705
-2.20126328218
-2.21019425403
-2.21902368458
-2.22826414007
-2.23839906997
-2.24985664881
-2.26320102663
-2.2790728022
-2.29792034317
-2.31991152331
-2.34463787596
-2.37043546644
-2.39685151361
-2.42231532719
-2.44414768021
-2.45948411676
-2.46537908527
-2.46107206122
-2.44158772932
-2.41632449444
-2.38094773553
-2.33572034608
-2.28004249654
-2.17646558198
0.0456826630822
0.0662100416923
0.0683758677805
0.0743881855124
0.0844067744439
0.0986572698082
0.116699231536
0.138343001235
0.16345130434
0.192002113787
0.223902906696
0.259068922518
0.29732219355
0.338480670509
0.382279505594
0.42846871475
0.476749252079
0.526850201551
0.578493855677
0.631429390834
0.685459322601
0.740397644301
0.796072888822
0.852389372773
0.909250698234
0.966536786369
1.02413051145
1.08191583673
1.13975763373
1.19751388924
1.25502149049
1.31211003716
1.36858193612
1.42426176319
1.4789311911
1.53239009587
1.58441693324
1.63485004848
1.68344205985
1.73001327376
1.77431377418
1.81616903594
1.85531126689
1.89153907746
1.92458422464
1.954264326
1.98026475671
2.00228575325
2.02002071866
2.03310533642
2.04096426259
2.04303712711
2.03868672228
2.027827619
2.01031923582
1.98604591766
1.95504609019
1.917507869
1.87380481549
1.82444558531
1.77004329278
1.71128003716
1.64888157932
1.5835582018
1.51600183417
1.44689260089
1.37681001925
1.30628744217
1.23576807573
1.16561664302
1.09614711085
1.02758309523
0.960115946246
0.893872134946
0.828909364861
0.765367268021
0.703121589788
0.64217867899
0.582504085519
0.524328650343
0.466831342222
0.409959838504
0.354129170157
0.299220530352
0.242840087688
0.184227144555
0.129817169557
0.0786580860085
0.0181374810401
-0.0541689845959
-0.119678838576
-0.175865599872
-0.266161113789
-0.366468298627
-0.461101442864
-0.560075407052
-0.629732904392
-0.633084555353
-0.636003356532
-0.647749061589
-0.654662607434
-0.644100475665
-0.642278829631
-0.676012329187
-0.719297459669
-0.762088081593
-0.803586097212
-0.844147849287
-0.884079819806
-0.923538066082
-0.96258960496
-1.00126217304
-1.03957850459
-1.07756950498
-1.11527126466
-1.15272824061
-1.19000630776
-1.22715043001
-1.26412108727
-1.30072023742
-1.33678761662
-1.37231291831
-1.40740307407
-1.44218259998
-1.47666016475
-1.51080249248
-1.54456678641
-1.57792411671
-1.61085479243
-1.6433458626
-1.67538429119
-1.70695905307
-1.73806051569
-1.76869687026
-1.79888438432
-1.82864276401
-1.85799345898
-1.88693110172
-1.91543572827
-1.94334183892
-1.97054638817
-1.99703836125
-2.0229152534
-2.04819797521
-2.07280547347
-2.09665771531
-2.11970884166
-2.14196475649
-2.16344688344
-2.18418692557
-2.20419845289
-2.22353255539
-2.24218673587
-2.260114731
-2.27727824104
-2.29363257442
-2.30911200795
-2.32364270099
-2.33719166707
-2.34982897751
-2.36156466846
-2.37240411442
-2.38246648803
-2.39191525182
-2.4009691948
-2.41008589969
-2.41968242729
-2.43003011338
-2.44151356253
-2.45475198944
-2.47013484847
-2.48769763669
-2.50669812867
-2.52481148559
-2.54146667207
-2.55736432924
-2.57025990028
-2.57684964924
-2.57299804802
-2.54817756363
0.0841531153763
0.12013520998
0.132640727246
0.145707263651
0.159206133061
0.174628668297
0.191811443096
0.211116089076
0.232809502785
0.257132194051
0.284229280696
0.314184932007
0.346935995502
0.382386344553
0.420354236134
0.46064074066
0.503016868269
0.547237193189
0.593073162077
0.64030767256
0.688726513495
0.738154804665
0.788458773328
0.8395026152
0.891165784723
0.943365023029
0.995964124265
1.04884604113
1.10187267167
1.15490607965
1.20776496832
1.26028320507
1.31226617506
1.36351458372
1.41379662852
1.46292877937
1.51067646177
1.55683452428
1.60117001732
1.64348092221
1.68350564142
1.72104459338
1.75581327298
1.7875731185
1.81604213148
1.84099725979
1.86210690987
1.87901729144
1.89134966103
1.89865694014
1.90045187078
1.89687667811
1.8873295205
1.87144198662
1.8490412659
1.8200770046
1.78465453272
1.74300703246
1.69552269808
1.64270465317
1.58516612065
1.5235663027
1.45859070425
1.39095690996
1.32136057973
1.25043101919
1.17876673703
1.10691222238
1.03527570369
0.964272585884
0.894133848489
0.82513989255
0.757515847682
0.691250146125
0.626404936231
0.563205605622
0.501604994224
0.440952632222
0.382070909435
0.325346170556
0.269659896583
0.213102299605
0.158493879291
0.107479852411
0.0541123639572
-0.00522881185541
-0.0644787117593
-0.111019643116
-0.18021965746
-0.265596121926
-0.343078147131
-0.4138473
-0.480300086138
-0.535229203309
-0.581828960374
-0.621144992944
-0.648100514742
-0.672756392578
-0.706302986611
-0.737384019092
-0.759400411547
-0.773407141323
-0.793835391145
-0.830973785673
-0.874368774311
-0.917543300266
-0.959035926836
-0.998864694089
-1.03732649739
-1.07470247234
-1.11119335137
-1.14695013061
-1.18208686316
-1.21670661245
-1.25089415091
-1.28472811823
-1.31826362863
-1.35153439379
-1.38446496766
-1.41690920727
-1.44877116733
-1.48013476333
-1.51119280916
-1.54205143996
-1.57270275526
-1.60309398988
-1.63317452767
-1.66291366782
-1.69229514698
-1.72131330114
-1.74996373852
-1.77824433703
-1.80615618831
-1.83371689259
-1.8609522835
-1.88789474756
-1.91455155729
-1.940888266
-1.96679950358
-1.99211106609
-2.01669045321
-2.04059879268
-2.06399283749
-2.08692231681
-2.10932700953
-2.13112729197
-2.15227261091
-2.17275834307
-2.19259569011
-2.2118090485
-2.23041471794
-2.24844519771
-2.26590948584
-2.28279608198
-2.29908990863
-2.31478122695
-2.32986495407
-2.34435124908
-2.35826886978
-2.37164380621
-2.38453071608
-2.39706388305
-2.4094215829
-2.42180831772
-2.43446548942
-2.44770936042
-2.4617873327
-2.47682568727
-2.49298371605
-2.51042363323
-2.52908840618
-2.54874951539
-2.56878969892
-2.58821873483
-2.60725119896
-2.62613851952
-2.64399089146
-2.65984012334
-2.67334080454
-2.68553193289
0.133779952515
0.195313700902
0.222128832592
0.239812215925
0.253359083898
0.266153396989
0.27898725462
0.292863304434
0.308390741617
0.326063864414
0.346140887957
0.368773789278
0.393991925044
0.421755424973
0.451956414244
0.484449779358
0.519065785151
0.55561582495
0.593906762113
0.633734702662
0.674939245131
0.717356223629
0.760822125472
0.80523571109
0.850472351166
0.896418207408
0.942950759054
0.989969267278
1.03731377987
1.08485552287
1.13241425843
1.17982984718
1.22688645554
1.27340278567
1.31916638276
1.36397076475
1.4076016194
1.44987089897
1.49054700774
1.52942021846
1.56625544861
1.60085162465
1.63294215209
1.66228383941
1.68861939193
1.71174523159
1.73132750423
1.7469880873
1.75831855329
1.76472888928
1.76539413034
1.76039293962
1.74906976768
1.73090411152
1.70558358049
1.67299860719
1.63327257965
1.58675195021
1.53400168618
1.47572578263
1.41273999739
1.34588198975
1.27599823352
1.20391091713
1.13035944343
1.0560268707
0.981550014686
0.907350043147
0.833966157539
0.761679056879
0.690674897154
0.6211078893
0.553564217112
0.487494158148
0.422819022906
0.360265683323
0.300054658612
0.240592694248
0.181079294018
0.125160678086
0.0723936362305
0.0157809950236
-0.041624311483
-0.0930553211274
-0.152253959045
-0.226237159779
-0.298794555603
-0.366581858016
-0.428379459168
-0.484235247138
-0.534715319204
-0.583123278635
-0.629071788439
-0.670973314878
-0.708899537697
-0.742133088199
-0.770592015023
-0.800076245878
-0.833494489466
-0.864883522625
-0.891091106886
-0.913994253365
-0.940048150309
-0.973377040263
-1.01051496244
-1.04815264463
-1.08490271902
-1.12042381361
-1.15477188431
-1.18810262432
-1.22057715062
-1.252329664
-1.28348170281
-1.31413559423
-1.34438377878
-1.37428893482
-1.40388915687
-1.43317835933
-1.46207241468
-1.49046395067
-1.51833217371
-1.54583402213
-1.57318405116
-1.60046998949
-1.6276736524
-1.65473516302
-1.68160314412
-1.70824507066
-1.73464877611
-1.76081207928
-1.78673953625
-1.81243414373
-1.83790966805
-1.86318616898
-1.88830244483
-1.91328924453
-1.93813302477
-1.96275729678
-1.98697810363
-2.01061159801
-2.03352399804
-2.05584256969
-2.07775032749
-2.0993109347
-2.12048021028
-2.14117577334
-2.16134854409
-2.18097571031
-2.20005885978
-2.21860286193
-2.23661711769
-2.25411239703
-2.27109126023
-2.28754283877
-2.30345340008
-2.31881022201
-2.33360759598
-2.34785140428
-2.36156165789
-2.37477709969
-2.38756174661
-2.40003496762
-2.41237601697
-2.42481386528
-2.43759805355
-2.45103432188
-2.46537814333
-2.48078245112
-2.49744090749
-2.51553445992
-2.53502682673
-2.55577053477
-2.57728702171
-2.59884653618
-2.62053108099
-2.64256234667
-2.6645347138
-2.68619392733
-2.70862020297
-2.73572448477
0.193323469244
0.296197131797
0.337866038582
0.354846393545
0.364399473958
0.371534094872
0.377856980204
0.384764939269
0.393014310583
0.403096194
0.415325977509
0.429904416521
0.44689668545
0.466313766098
0.488098950327
0.512160774252
0.53837872138
0.566604429672
0.596687814662
0.628476332347
0.661797147437
0.696511039299
0.732489958233
0.769605449622
0.807728282487
0.846777444635
0.886607707153
0.927111582014
0.968135064178
1.00955203071
1.05117463199
1.09284540858
1.13436472227
1.17554437061
1.21616765947
1.25605586866
1.29500069941
1.33279948748
1.36924881732
1.40414199851
1.4372578942
1.46840353353
1.49733335323
1.52380853214
1.54759623333
1.56854187624
1.58632180208
1.60055093356
1.61077066921
1.61632493993
1.6160746647
1.61013029851
1.59758206519
1.57767470766
1.54988464264
1.51399628034
1.47013307108
1.41876266813
1.36063199553
1.29668995562
1.22804762052
1.15573612385
1.08085518641
1.0043199284
0.926981399845
0.849645385026
0.77279900276
0.696777511168
0.622197887284
0.549680013663
0.478632280374
0.409445347765
0.342899832741
0.278842427489
0.215519866456
0.153843624791
0.0959638405444
0.0401432255977
-0.0179363938083
-0.0764198446573
-0.125300600859
-0.192735084465
-0.265414316657
-0.333168645123
-0.396208005219
-0.453267332146
-0.506028888751
-0.55634033853
-0.604102776153
-0.649632958808
-0.693236162241
-0.734995896052
-0.774257222966
-0.810709780114
-0.844644723099
-0.87608612061
-0.905561608863
-0.935359828668
-0.966118673832
-0.9954257213
-1.02207916386
-1.04721743096
-1.07374997894
-1.10347383828
-1.13535794226
-1.16781827488
-1.19988437573
-1.23113823351
-1.26149489877
-1.29099546577
-1.31973829715
-1.34782104976
-1.37534844807
-1.40241099303
-1.4290894968
-1.45542817188
-1.48144668007
-1.50711076536
-1.53235206654
-1.5570969494
-1.58139464569
-1.60544516914
-1.62944341879
-1.65346558008
-1.67749405057
-1.70147435301
-1.72535905294
-1.74911819965
-1.77274316258
-1.79623651137
-1.81960841752
-1.84287098596
-1.86604468915
-1.88916037409
-1.91226360867
-1.93538481088
-1.95849072843
-1.98144364596
-2.0040365811
-2.02604517809
-2.04739880561
-2.0682523291
-2.08879433986
-2.10909809177
-2.12912581904
-2.14880320029
-2.16807792819
-2.18691908742
-2.2053163816
-2.2232607155
-2.2407498255
-2.25777889718
-2.27434194101
-2.29042497525
-2.30601358881
-2.32109369755
-2.33566097734
-2.34972224892
-2.36329885781
-2.37643941173
-2.38921704778
-2.40174679079
-2.41420589238
-2.42681300269
-2.43980303192
-2.45346439944
-2.46804734998
-2.48371752325
-2.50066934818
-2.51906097521
-2.53885115789
-2.55993988134
-2.58198297585
-2.60445101979
-2.62735558657
-2.65085470757
-2.67484020602
-2.69958484076
-2.72677287096
-2.76054233661
0.261071993081
0.424113061135
0.475992059712
0.486295793032
0.489357051303
0.489375973064
0.488379098688
0.487717188846
0.488085272576
0.489996466552
0.493789731319
0.499686857667
0.507812984146
0.518221178925
0.530905287522
0.545823617646
0.562895188803
0.5820263012
0.603090513325
0.625958577269
0.650505384897
0.676607555179
0.704120371756
0.732957455373
0.762993155543
0.794121426503
0.826216865448
0.859180810255
0.892854408987
0.927114028149
0.961781556871
0.996704804533
1.0316793999
1.06653519233
1.10107720432
1.13511479566
1.16846122237
1.20093537185
1.23233843524
1.26247202313
1.29114250629
1.31816874087
1.34334611938
1.3664479085
1.38729288204
1.40580281066
1.42168148669
1.43459638389
1.44406700039
1.44941080937
1.44880864574
1.44267462398
1.42967337094
1.40865765944
1.37879462235
1.33970817743
1.29156096919
1.23499925317
1.17105429792
1.10109788248
1.02644250808
0.948592583222
0.868808064471
0.788171731481
0.707368042185
0.627701100172
0.549310825265
0.472216929595
0.397314988131
0.325663717745
0.256451055844
0.188416034892
0.123331904664
0.062565697917
0.00250514405259
-0.057025860246
-0.114382072423
-0.173067226937
-0.243007095644
-0.313793000347
-0.380335674729
-0.440246182793
-0.494542146907
-0.546236527036
-0.596055884699
-0.643672419188
-0.689005865031
-0.732156813519
-0.773234495042
-0.812576328833
-0.850614285118
-0.887193918041
-0.921862768913
-0.954562694679
-0.985511456803
-1.01482690344
-1.04292325299
-1.07063268477
-1.09817057646
-1.1246764839
-1.14981823165
-1.17420989723
-1.19918606428
-1.2255720605
-1.25308750747
-1.28100271132
-1.30871796609
-1.33589698272
-1.36240268507
-1.38822190017
-1.41339328734
-1.43798701503
-1.46207626474
-1.48573993594
-1.50903108825
-1.53198494668
-1.55459677896
-1.57683116739
-1.59863191821
-1.61997426743
-1.64095416021
-1.6617674425
-1.68258394987
-1.70347171585
-1.72442043845
-1.74538989755
-1.7663411199
-1.78725213419
-1.80811743179
-1.82894646316
-1.84975357059
-1.87056169921
-1.89139649809
-1.91230321241
-1.93333180111
-1.95450931591
-1.97577776505
-1.99696153488
-2.01783029671
-2.0381663727
-2.05795463577
-2.07735722669
-2.09655999138
-2.11563170845
-2.13453869552
-2.15322043111
-2.17162394475
-2.18971934084
-2.20748225759
-2.22489550233
-2.24194011299
-2.25860115893
-2.27486017241
-2.29069986472
-2.30610089776
-2.3210481483
-2.33553588042
-2.3495711625
-2.36317647031
-2.3764036894
-2.38933037176
-2.40206655933
-2.41478531355
-2.42769140651
-2.44100759384
-2.4549992876
-2.46991341592
-2.48592129435
-2.50321253296
-2.5219207646
-2.54202337614
-2.56344824047
-2.58596486243
-2.60916240155
-2.63303810171
-2.6577207931
-2.68329178233
-2.71032927673
-2.74066546401
-2.77777928664
0.336103238141
0.577619727517
0.628911811097
0.627860937853
0.62381606758
0.61642922086
0.607910456235
0.599397483877
0.591510247733
0.584713943153
0.579476750989
0.576085899715
0.574724193922
0.575488977923
0.578420683513
0.583518678436
0.590741325799
0.600025600471
0.611279839421
0.624417756047
0.639307462519
0.655857574943
0.673957354899
0.693504672302
0.714384479961
0.736520668644
0.75978052505
0.784063638209
0.809230749338
0.83516052485
0.861685808101
0.888659766281
0.915907410002
0.943256662764
0.970526655699
0.997555571672
1.02416939766
1.05019315748
1.07546119214
1.09979445519
1.1230258583
1.14499473684
1.16556191249
1.18452499995
1.2017732711
1.2172289084
1.23085874577
1.24237051373
1.25129801334
1.25695088396
1.2575626378
1.2522817486
1.24002628876
1.21898634324
1.18777948255
1.14582259249
1.09335043557
1.03134546919
0.961451574191
0.885320319267
0.804725195021
0.721436647016
0.637637987318
0.553624558425
0.470488304924
0.389658350814
0.3117309268
0.235620777428
0.161445239306
0.0914900761563
0.0261366699788
-0.0381943061484
-0.101706895466
-0.158516299808
-0.226697831823
-0.300282422553
-0.370359801356
-0.435656340566
-0.494321644179
-0.548516217618
-0.600086404927
-0.649123130949
-0.695826973033
-0.74060768695
-0.783683394926
-0.825007896331
-0.864468248939
-0.902043500941
-0.937781029682
-0.972151012763
-1.00553004474
-1.03772976122
-1.0684750749
-1.09773591698
-1.1256085868
-1.15220450497
-1.17777115535
-1.20267033649
-1.22703621372
-1.25067537626
-1.2735443295
-1.29602085046
-1.31868600234
-1.34193957988
-1.36570410663
-1.38965972044
-1.41345601672
-1.4368651143
-1.45975548132
-1.48209343925
-1.50388374431
-1.52517115051
-1.54600449332
-1.56644150645
-1.58651784107
-1.6062532392
-1.62563274117
-1.64462779348
-1.66320139144
-1.68136965839
-1.69924414161
-1.7170010676
-1.73478061925
-1.7526480217
-1.77060373112
-1.78862372249
-1.80668003963
-1.82475918262
-1.8428607689
-1.86099892701
-1.87919460302
-1.89747645663
-1.91588184356
-1.93446515083
-1.95328923342
-1.97237114672
-1.99162671842
-2.01086411747
-2.02983674507
-2.04837497693
-2.06649538671
-2.08436522405
-2.10215048492
-2.11991260318
-2.13762660867
-2.155240953
-2.17270994384
-2.19000288801
-2.20709026281
-2.22394607804
-2.24054001491
-2.25684624383
-2.27283582291
-2.28848500687
-2.30376852482
-2.3186678705
-2.33317366189
-2.34729150381
-2.36104201436