/*--------------------------------*- C++ -*----------------------------------*\
| =========                 |                                                 |
| \\      /  F ield         | OpenFOAM: The Open Source CFD Toolbox           |
|  \\    /   O peration     | Version:  v1806                                 |
|   \\  /    A nd           | Web:      www.OpenFOAM.com                      |
|    \\/     M anipulation  |                                                 |
\*---------------------------------------------------------------------------*/
FoamFile
{
    version     2.0;
    format      ascii;
    class       volVectorField;
    location    "2";
    object      Ua;
}
// * * * * * * * * * * * * * * * * * * * * * * * * * * * * * * * * * * * * * //

dimensions      [0 1 -1 0 0 0 0];


internalField   nonuniform List<vector> 
12225
(
(0.776291147721 37.0353787587 0)
(0.728019719525 19.2215106949 0)
(0.809377017031 17.8367178587 0)
(0.766911666628 16.8550324677 0)
(0.695545453294 15.4828196609 0)
(0.673027907063 14.2533800714 0)
(0.631665322932 13.0137326093 0)
(0.615490909568 11.8606218968 0)
(0.608217168449 10.8157072361 0)
(0.603669508709 9.87837255753 0)
(0.59727753148 9.02232155244 0)
(0.596440291857 8.163314639 0)
(0.539745008237 7.23998036969 0)
(0.62989677299 6.3088558944 0)
(0.710366721055 5.30209938513 0)
(0.805367095785 4.04653346241 0)
(1.03194775691 2.47985247977 0)
(1.34555714433 0.476843723613 0)
(1.22677818224 -14.9346145955 0)
(1.19651489687 -7.27081849254 0)
(0.967888320336 -7.01651852235 0)
(1.00026433268 -6.52720851534 0)
(0.94313928771 -5.96378540264 0)
(0.918005721172 -5.41244936633 0)
(0.870707889436 -4.86748794755 0)
(0.830415923923 -4.37413398437 0)
(0.789727793806 -3.95648974565 0)
(0.754708687991 -3.61604543577 0)
(0.732532727969 -3.33250754334 0)
(0.715399058239 -3.0597430369 0)
(0.697843127088 -2.70019252318 0)
(0.759088133186 -2.36891302018 0)
(0.81761413088 -2.09291902925 0)
(0.891934555791 -1.77109764243 0)
(1.00306977388 -1.44868784908 0)
(1.04650858579 -1.23475260793 0)
(0.965586030943 2.95573748155 0)
(1.05377247328 1.67495404332 0)
(0.930657612346 1.63909659514 0)
(0.936129720713 1.56608687792 0)
(0.868483397889 1.42446982229 0)
(0.84302126194 1.27098217234 0)
(0.799278656751 1.10420785872 0)
(0.766465862586 0.93301407609 0)
(0.736966442021 0.766473577312 0)
(0.714954079187 0.611483039121 0)
(0.704185108533 0.4695353056 0)
(0.70065469299 0.344814010557 0)
(0.711994218263 0.253252617966 0)
(0.758183810867 0.147658762467 0)
(0.803700102242 0.0131379795691 0)
(0.85721507204 -0.130688577928 0)
(0.914265736199 -0.320532182477 0)
(0.88716930778 -0.602217190558 0)
(0.907960298611 -0.451600723654 0)
(1.09474700599 -0.135162142938 0)
(0.946719430557 -0.144656723386 0)
(0.975951542972 -0.0685297990761 0)
(0.919916014813 -0.00819049901249 0)
(0.907531808021 0.0597514045282 0)
(0.874400951336 0.121935445623 0)
(0.8500958812 0.173819080084 0)
(0.827873847407 0.212072146232 0)
(0.81153321158 0.234319202738 0)
(0.803335355587 0.237284248948 0)
(0.802306842797 0.220272349898 0)
(0.813019511773 0.184022128099 0)
(0.839879544222 0.109584854726 0)
(0.86750510034 -0.00752668861938 0)
(0.895092003376 -0.15486241232 0)
(0.907707782674 -0.350614795305 0)
(0.851506060008 -0.59867892236 0)
(0.866552150155 -0.0541583288709 0)
(1.10920053035 0.12758230242 0)
(0.954141789106 0.10847580409 0)
(0.996407591656 0.13642690791 0)
(0.947906563841 0.149799992795 0)
(0.945965224287 0.167668443565 0)
(0.923123324369 0.181704287197 0)
(0.90939498977 0.191356863609 0)
(0.897474395384 0.194661597146 0)
(0.889917612515 0.188755943452 0)
(0.887668160707 0.169596836368 0)
(0.890351108423 0.1350229052 0)
(0.89981211499 0.0828395014266 0)
(0.915794652786 0.00397445703223 0)
(0.929482174722 -0.10609879423 0)
(0.935684072958 -0.242032217188 0)
(0.919577063599 -0.410136569101 0)
(0.856268480043 -0.593845872432 0)
(0.841705831598 -0.0921766915632 0)
(1.12258684144 0.0972519322592 0)
(0.963633932806 0.0855867408263 0)
(1.01661458676 0.105678504887 0)
(0.974658965831 0.117271939988 0)
(0.980893690873 0.131661525827 0)
(0.965609487811 0.141989493086 0)
(0.959338605867 0.147305553167 0)
(0.954256383889 0.145205749562 0)
(0.952153842588 0.132998364791 0)
(0.953351481869 0.107653652209 0)
(0.957366675283 0.0678926003323 0)
(0.964563492417 0.0114315669358 0)
(0.97297192171 -0.0659221525131 0)
(0.975943683325 -0.166501797078 0)
(0.967282314921 -0.286480635212 0)
(0.93594494936 -0.424107093098 0)
(0.875111087815 -0.558288125627 0)
(0.828264025128 -0.108325026433 0)
(1.13264323443 0.0861569376522 0)
(0.97218471802 0.0792635088302 0)
(1.03298833034 0.0903092700657 0)
(0.996256567732 0.0971298025811 0)
(1.00854860009 0.10506762339 0)
(0.998734908711 0.10939668436 0)
(0.997735754804 0.109002248627 0)
(0.99728413802 0.101635630523 0)
(0.998707138151 0.0850728267268 0)
(1.0019215988 0.0573378576211 0)
(1.006170719 0.017069217778 0)
(1.01102312794 -0.0379979033844 0)
(1.013819437 -0.10995487766 0)
(1.00897266308 -0.199478337925 0)
(0.990987845736 -0.302888903435 0)
(0.953301856335 -0.414283995128 0)
(0.896880041853 -0.516514235393 0)
(0.821554975327 -0.127435934393 0)
(1.13920953015 0.0733048093823 0)
(0.979122559766 0.0706359719561 0)
(1.04533394117 0.0757683299415 0)
(1.01276343248 0.0796408758011 0)
(1.02941780445 0.0832359543119 0)
(1.02347013192 0.0833656760323 0)
(1.02599955063 0.0788860698227 0)
(1.02845647672 0.0677829112496 0)
(1.03204131559 0.0486148739035 0)
(1.03631168382 0.0199749905556 0)
(1.04014868486 -0.0194905964823 0)
(1.04275989214 -0.0718237036379 0)
(1.04128716288 -0.13783789893 0)
(1.03105714483 -0.217107064287 0)
(1.00808911477 -0.305589446834 0)
(0.968495504041 -0.396640172978 0)
(0.91762270105 -0.477910380516 0)
(0.818411005267 -0.147619825828 0)
(1.14257993619 0.0607971388969 0)
(0.984281183293 0.0609973493007 0)
(1.05402006942 0.0625997386871 0)
(1.02474617418 0.0646859267472 0)
(1.04440033653 0.0655009899836 0)
(1.04104464731 0.0626231764647 0)
(1.04579796946 0.0551148986183 0)
(1.05003016462 0.0415076966107 0)
(1.05486177246 0.0209571951761 0)
(1.05947387024 -0.00794124381647 0)
(1.06248628748 -0.0463481842646 0)
(1.06304987504 -0.0958444478187 0)
(1.05842697913 -0.156212078272 0)
(1.04489555767 -0.226166808887 0)
(1.0196890218 -0.301655278994 0)
(0.98119571437 -0.376981471231 0)
(0.935002247473 -0.443451531033 0)
(0.81592018942 -0.164042150841 0)
(1.14255617277 0.0507266519365 0)
(0.986731898621 0.0510421379232 0)
(1.05869851655 0.0520552471675 0)
(1.03208591213 0.0533538604119 0)
(1.05379949494 0.053231541277 0)
(1.05217822062 0.0493438240618 0)
(1.0584519717 0.0409521381723 0)
(1.06390452317 0.0267963805627 0)
(1.06943766434 0.0057865060023 0)
(1.07386977633 -0.0231878550553 0)
(1.07578949251 -0.0607639355539 0)
(1.07457996762 -0.107552637219 0)
(1.0678314356 -0.162787807867 0)
(1.05258221402 -0.224576773019 0)
(1.02707186366 -0.289508075667 0)
(0.990560185493 -0.352836209482 0)
(0.949069616881 -0.408813746355 0)
(0.808558758671 -0.187900372333 0)
(1.14137738482 0.029591274608 0)
(0.985285595084 0.0224100039733 0)
(1.05915480531 0.0263859355394 0)
(1.0343546879 0.0259325716183 0)
(1.05771164065 0.0254751342758 0)
(1.05750637023 0.0220659011748 0)
(1.0650647098 0.0147193044333 0)
(1.07129118003 0.00172540894542 0)
(1.07699871563 -0.0179740399584 0)
(1.08099040226 -0.0449408014703 0)
(1.0820107636 -0.0793540459946 0)
(1.0795749553 -0.121588650947 0)
(1.07155823778 -0.170218776462 0)
(1.05560442722 -0.223711364255 0)
(1.03065058307 -0.278624735672 0)
(0.997009879439 -0.33155962041 0)
(0.959749753968 -0.378232981209 0)
(0.778033221207 -0.209872829058 0)
(1.13954216884 0.0163806954585 0)
(0.974447355298 0.00579867090041 0)
(1.05168728841 0.00934555076848 0)
(1.02709089518 0.0070776346417 0)
(1.05225272713 0.0032967023921 0)
(1.05315433657 -0.00346773657948 0)
(1.06134411039 -0.0136173119287 0)
(1.06785053758 -0.0283220003421 0)
(1.07375093001 -0.0483247351533 0)
(1.07765823519 -0.0742334107086 0)
(1.07801426323 -0.106098197932 0)
(1.07477571258 -0.14370556023 0)
(1.06606119529 -0.186324853835 0)
(1.0502186616 -0.231519782507 0)
(1.02676394094 -0.277534635006 0)
(0.995928917977 -0.320873081371 0)
(0.962675289145 -0.359640740598 0)
(0.75576947865 -0.208828002083 0)
(1.13354978279 0.0178963467117 0)
(0.963477564291 0.0109615794783 0)
(1.04175979238 0.0117505978277 0)
(1.01617248569 0.00926786723807 0)
(1.04060297293 0.00313138163885 0)
(1.04127653217 -0.00629898302153 0)
(1.04945641483 -0.0195291554105 0)
(1.05573951023 -0.0367118150008 0)
(1.06098147445 -0.0583239163218 0)
(1.06392247019 -0.0847189747129 0)
(1.06365644581 -0.115588985666 0)
(1.0597794867 -0.150532505121 0)
(1.05119752427 -0.188608415995 0)
(1.03627332823 -0.227964751942 0)
(1.01488085094 -0.267041943743 0)
(0.987591057642 -0.303864801429 0)
(0.958935017675 -0.335922581622 0)
(0.728716266132 -0.208909836136 0)
(1.12708187427 0.0141672729638 0)
(0.951489798661 0.00776231644901 0)
(1.0312595364 0.00966548198818 0)
(1.00506580326 0.00783325406997 0)
(1.02919752051 0.00306271102082 0)
(1.02929196993 -0.00497182386785 0)
(1.03644987083 -0.017090907275 0)
(1.04154191181 -0.0336459656958 0)
(1.04540906929 -0.0543029309064 0)
(1.04696885675 -0.0793923819541 0)
(1.04519066615 -0.107754446221 0)
(1.04037424566 -0.140065928164 0)
(1.03144150405 -0.17388443224 0)
(1.01747079761 -0.209183827491 0)
(0.998209415128 -0.243197905197 0)
(0.974864726644 -0.275557553332 0)
(0.950416567951 -0.303578825806 0)
(0.693867424702 -0.193767157707 0)
(1.12099443668 0.0104066262225 0)
(0.937237505389 0.0036744174413 0)
(1.01928174278 0.00591868703852 0)
(0.992251758727 0.00376425041229 0)
(1.01611060269 -0.00110070225015 0)
(1.01584895375 -0.00903767112748 0)
(1.02230480777 -0.0205579491518 0)
(1.02647019939 -0.0356439735301 0)
(1.0289603637 -0.05453583114 0)
(1.02914936216 -0.0766119176643 0)
(1.02602262204 -0.101964519568 0)
(1.02026804504 -0.129484707931 0)
(1.01131052047 -0.158972562935 0)
(0.998246101236 -0.188389078983 0)
(0.981360240874 -0.21780047148 0)
(0.961408757823 -0.244589567273 0)
(0.941612522932 -0.269417037835 0)
(0.657572906323 -0.160141640629 0)
(1.11512163534 0.00985802533739 0)
(0.921360416658 0.00319680308348 0)
(1.00586256495 0.00453537698919 0)
(0.977607829354 0.00132581637538 0)
(1.00124225234 -0.00417747191492 0)
(1.00048650037 -0.0124168517533 0)
(1.0063534454 -0.0236760293103 0)
(1.00943068711 -0.0378310036685 0)
(1.0110210997 -0.0549899284346 0)
(1.00994136452 -0.0744489949388 0)
(1.00607797378 -0.0962487691759 0)
(0.999813623359 -0.119472681596 0)
(0.991270094137 -0.143873275663 0)
(0.97935767751 -0.168227551885 0)
(0.964905410304 -0.192194365049 0)
(0.94827937192 -0.214533568838 0)
(0.932090477979 -0.234877732515 0)
(0.624548480186 -0.108641644913 0)
(1.11064904005 0.00994187531178 0)
(0.90612203301 0.00279503681829 0)
(0.992661970238 0.00284766071622 0)
(0.962702126295 -0.0015426857465 0)
(0.985668901885 -0.00751372013647 0)
(0.984082659432 -0.0160139096769 0)
(0.98891622266 -0.0265790509081 0)
(0.991041772856 -0.0396505718971 0)
(0.991536537441 -0.0544899294716 0)
(0.989842780485 -0.0714357760768 0)
(0.985420946847 -0.0892533879671 0)
(0.979291190417 -0.108618444483 0)
(0.971301805391 -0.127906745864 0)
(0.960907994387 -0.147789780709 0)
(0.9485332593 -0.166531171953 0)
(0.935037207037 -0.184887463956 0)
(0.921519307213 -0.201016833709 0)
(0.595076073475 -0.0543520632958 0)
(1.10741229295 0.00650193234198 0)
(0.89230102734 -0.000491346098521 0)
(0.980921506895 -0.00174210813341 0)
(0.948759577904 -0.00658918206856 0)
(0.97075792059 -0.0125165899382 0)
(0.967994827934 -0.0203054001737 0)
(0.971719946196 -0.0295407409169 0)
(0.972746642159 -0.0404006656469 0)
(0.97238400113 -0.0526095880813 0)
(0.970153836194 -0.0660384923222 0)
(0.965542375046 -0.0802521432022 0)
(0.959731062888 -0.0951653972556 0)
(0.952586810025 -0.110289549594 0)
(0.943630148909 -0.125462235538 0)
(0.933230555204 -0.140216868635 0)
(0.922229555113 -0.154331262654 0)
(0.911252459477 -0.167346785386 0)
(0.580909384855 0.0518780338619 0)
(1.10902932018 0.0123875221907 0)
(0.886344360083 0.00635560122303 0)
(0.976160000364 0.00131815994507 0)
(0.941575702885 -0.00533847957513 0)
(0.962159429564 -0.0120638325728 0)
(0.957814595749 -0.0199026501206 0)
(0.960202232623 -0.0281680047933 0)
(0.959976351173 -0.0374741996338 0)
(0.958639207867 -0.0471891125758 0)
(0.955781231549 -0.0578211203809 0)
(0.950927810995 -0.0685919780204 0)
(0.945298123014 -0.0799548681374 0)
(0.938775470477 -0.0912280142304 0)
(0.930831955301 -0.102695590485 0)
(0.921833569514 -0.11371365464 0)
(0.91251738786 -0.124402341301 0)
(0.903274732418 -0.134184366094 0)
(0.616854883673 0.134340753479 0)
(1.11399635857 0.0181250334001 0)
(0.898660483711 0.0130665826976 0)
(0.984816038892 0.00513789436213 0)
(0.948519777359 -0.00226213924112 0)
(0.967104054761 -0.00971874134962 0)
(0.960709964303 -0.0169217000051 0)
(0.961154550582 -0.0246551107654 0)
(0.959366704021 -0.0321640667351 0)
(0.956647507787 -0.0404173956933 0)
(0.952758526341 -0.0485052883319 0)
(0.947180615303 -0.0572234636185 0)
(0.941129736892 -0.0656525853147 0)
(0.934505662425 -0.0746612961683 0)
(0.92678971093 -0.0831248994547 0)
(0.918327487885 -0.0919221688189 0)
(0.909754995954 -0.099770538143 0)
(0.901392505439 -0.107612419274 0)
(0.645214290658 0.154189546103 0)
(1.12157426353 0.0150115027225 0)
(0.911785418192 0.0100023702872 0)
(0.996004467213 0.00271108679694 0)
(0.958530363237 -0.00386375217226 0)
(0.975923086749 -0.0103177222536 0)
(0.967957480186 -0.0163059746665 0)
(0.967211217402 -0.0224426954167 0)
(0.964085241673 -0.0282019480561 0)
(0.960391938946 -0.0344801150738 0)
(0.955606730645 -0.0404717078836 0)
(0.949440842587 -0.0471021362267 0)
(0.9427929802 -0.0533888107801 0)
(0.935999186711 -0.0603122112874 0)
(0.928111838192 -0.066757346795 0)
(0.919868829474 -0.0735965674715 0)
(0.911409537532 -0.0796918817367 0)
(0.903535809823 -0.0858010847394 0)
(0.66833677869 0.185686742111 0)
(1.12893519548 0.0155789958815 0)
(0.924083606557 0.0103561258543 0)
(1.00702913447 0.00339434632724 0)
(0.968919708746 -0.00287332005233 0)
(0.985271053211 -0.00858669712815 0)
(0.976313406052 -0.014031874079 0)
(0.974534349753 -0.0188774889358 0)
(0.970500996701 -0.0237956942452 0)
(0.966034319032 -0.028311313795 0)
(0.960482964426 -0.0333602364996 0)
(0.953711707627 -0.0379918419292 0)
(0.946616338521 -0.0433211332125 0)
(0.939461253488 -0.0482322847527 0)
(0.931467457556 -0.0538235145113 0)
(0.923148231178 -0.058645824028 0)
(0.914893195784 -0.0640218136858 0)
(0.906868885379 -0.0683048649232 0)
(0.691919886372 0.204153983802 0)
(1.13717878977 0.015074674688 0)
(0.936294754455 0.0112728497913 0)
(1.01835770474 0.00500705388974 0)
(0.979702213221 -0.000600855239065 0)
(0.995207821709 -0.00581438003864 0)
(0.98541802869 -0.010282742509 0)
(0.982776321747 -0.0144701106492 0)
(0.978075058678 -0.0182529084752 0)
(0.972736835053 -0.0219558695491 0)
(0.966724476657 -0.0256631685752 0)
(0.959347621481 -0.029346250543 0)
(0.951866740567 -0.0332184556171 0)
(0.944315675878 -0.0371954559747 0)
(0.936332689161 -0.0412332445066 0)
(0.927921145334 -0.0452650143117 0)
(0.919741912781 -0.0491732718702 0)
(0.911757563521 -0.0529698986426 0)
(0.716222697567 0.210365999398 0)
(1.14585090207 0.0120212345385 0)
(0.948903121277 0.0115278491016 0)
(1.02955023549 0.00558637068255 0)
(0.990194639503 0.000761792817186 0)
(1.00509342436 -0.00360791584189 0)
(0.994570112318 -0.00744242478146 0)
(0.99123149777 -0.0107831171044 0)
(0.985878430457 -0.013704732877 0)
(0.980111388268 -0.0165347975145 0)
(0.973580444181 -0.0191649849534 0)
(0.96589419013 -0.0220467474869 0)
(0.95804693537 -0.024586434316 0)
(0.950439922116 -0.0276414741587 0)
(0.942241447777 -0.0303085573634 0)
(0.93386799077 -0.0334811792977 0)
(0.925559848408 -0.0361581750719 0)
(0.917614919366 -0.0395107807089 0)
(0.74179660521 0.211089340726 0)
(1.15404375691 0.0101449376336 0)
(0.961791266648 0.0159253411933 0)
(1.04016589742 0.00906603242243 0)
(1.00057303732 0.00518549086976 0)
(1.01465819984 0.000856647518463 0)
(1.0035015588 -0.00254559867213 0)
(0.99968651489 -0.005445342851 0)
(0.993866156609 -0.00787145052477 0)
(0.987628712146 -0.0100964329927 0)
(0.980692987926 -0.0123119223732 0)
(0.972830047486 -0.01438898761 0)
(0.9648394007 -0.0163202641056 0)
(0.957107899237 -0.0181330850038 0)
(0.948957333743 -0.0201183282002 0)
(0.940585598638 -0.0221208774489 0)
(0.932049247604 -0.0242316593698 0)
(0.924108687861 -0.0267115302165 0)
(0.775013571855 0.157221789345 0)
(1.16174108029 -0.0315968036928 0)
(0.977192404239 -0.0139757353689 0)
(1.05132634671 -0.0210970990508 0)
(1.01126755173 -0.0212960577348 0)
(1.02437522878 -0.0226043509282 0)
(1.01275998576 -0.0229729843182 0)
(1.00837839326 -0.0230796473273 0)
(1.00210449353 -0.0231506729607 0)
(0.995392412049 -0.0234563069938 0)
(0.98814776039 -0.0241248769943 0)
(0.980156602009 -0.0253432932435 0)
(0.972279353627 -0.0259360042623 0)
(0.96459098759 -0.0267886645565 0)
(0.956381300148 -0.0278259620379 0)
(0.948082125017 -0.0288799254351 0)
(0.939450997987 -0.0301458543118 0)
(0.931236303389 -0.0315278226866 0)
(0.827769220654 0.668315090121 0)
(1.17219298585 0.285301590674 0)
(0.999020056271 0.31448366392 0)
(1.06696474825 0.279806623798 0)
(1.02750002677 0.258290684816 0)
(1.0391753792 0.233442926853 0)
(1.02660278582 0.211673947422 0)
(1.02119356589 0.192677297193 0)
(1.01377845014 0.176969800028 0)
(1.00593179905 0.164291135327 0)
(0.997353447912 0.153802973283 0)
(0.988816962658 0.145512854791 0)
(0.980652850973 0.139522434174 0)
(0.972419310762 0.135024800246 0)
(0.964097142836 0.131418567819 0)
(0.955617258495 0.127943633241 0)
(0.946867938227 0.123913159702 0)
(0.936536992702 0.118515233883 0)
(0.887879927742 -2.99121439797 0)
(1.14792794458 -1.58140300007 0)
(1.02854643223 -1.51996026495 0)
(1.07787788368 -1.46944370782 0)
(1.03710129984 -1.38159157543 0)
(1.04589593627 -1.30280274258 0)
(1.03324326386 -1.22085938955 0)
(1.02856217794 -1.14324597758 0)
(1.02270566057 -1.07246084795 0)
(1.01645463904 -1.0101357728 0)
(1.01018494647 -0.956701771972 0)
(1.00402260775 -0.908598884976 0)
(0.998076444367 -0.866410529413 0)
(0.992066242309 -0.830720995424 0)
(0.985422179066 -0.800616114752 0)
(0.978282560775 -0.773538892318 0)
(0.970230760391 -0.747451946557 0)
(0.967909601482 -0.723717710549 0)
(1.33190851428 14.4285531192 0)
(1.37144923033 7.05059061303 0)
(1.10162584617 6.88957007705 0)
(1.17021849273 6.56527761176 0)
(1.13317392992 6.2106247016 0)
(1.13605722879 5.86915940392 0)
(1.11768388302 5.52964769933 0)
(1.10337684385 5.20065354745 0)
(1.08567453485 4.89041690193 0)
(1.06646071918 4.60188818656 0)
(1.04700883563 4.33501492584 0)
(1.0294790352 4.08571068088 0)
(1.01224820208 3.85407692808 0)
(0.994879585238 3.6418141165 0)
(0.978876915305 3.44684362573 0)
(0.965197936772 3.26513641246 0)
(0.951376312652 3.09614718003 0)
(0.912746374736 2.94596570006 0)
(1.03305689579 -32.3550792968 0)
(0.918392346584 -17.2783436271 0)
(1.06336616766 -16.2829150286 0)
(1.0620072426 -15.7336717136 0)
(1.02101634087 -14.868821334 0)
(1.03435944539 -14.1350469531 0)
(1.02072900943 -13.3814460777 0)
(1.01732515823 -12.6536954467 0)
(1.01531124357 -11.9565007901 0)
(1.01460480109 -11.2946863578 0)
(1.01409341973 -10.6694406762 0)
(1.01368630849 -10.0758230788 0)
(1.01561065307 -9.50930604288 0)
(1.01908710679 -8.96992355625 0)
(1.02095473094 -8.45350358947 0)
(1.02131759478 -7.9519162212 0)
(1.02461868738 -7.46099057159 0)
(1.05021114077 -6.96648411415 0)
(0.0562178784063 -0.0954677549132 2.1435564951e-19)
(0.110120601239 -0.127020974209 0)
(0.103098759678 -0.134119269198 0)
(0.0833617160032 -0.134527320319 0)
(0.0844866582833 -0.134104149941 0)
(0.0961563827921 -0.120705123366 -7.38739185819e-20)
(0.111315649748 -0.10321034019 0)
(0.127899769018 -0.0845720388214 0)
(0.145118292014 -0.0654258888324 3.43531769094e-20)
(0.162401888878 -0.0462024554689 0)
(0.179416386998 -0.0270348085267 -2.5228552463e-20)
(0.195946302897 -0.00811224808264 0)
(0.211825573973 0.0105567515073 -1.99247118735e-20)
(0.226989625114 0.02888131702 -1.80311864674e-20)
(0.241360093235 0.0469022988897 0)
(0.254938394927 0.0645761904274 1.51581069631e-20)
(0.267694805218 0.0819552008635 1.40448693154e-20)
(0.279660955562 0.0990123312879 1.30888243696e-20)
(0.290865895183 0.115788149257 0)
(0.301359854381 0.132262189535 0)
(0.311194194279 0.148471988826 0)
(0.320423588557 0.164392094094 0)
(0.329107122274 0.180051206484 0)
(0.337321296299 0.195437281585 0)
(0.345135286007 0.210577413371 -8.96887497082e-21)
(0.352587291878 0.225465756088 -8.60033350628e-21)
(0.359704571283 0.240134240578 0)
(0.366506331447 0.254572025797 7.95827984346e-21)
(0.373021917799 0.268814464948 7.67662516375e-21)
(0.37926717473 0.282857523498 7.41749273301e-21)
(0.38525606313 0.296735178928 0)
(0.390985457399 0.310435756906 0)
(0.396459952039 0.323996802994 -6.74885208358e-21)
(0.401693354571 0.337412773919 0)
(0.406674139997 0.350712766151 0)
(0.411400665754 0.363880747453 -6.21114132909e-21)
(0.415867388572 0.37694433043 0)
(0.420097760034 0.38989047564 0)
(0.424075199827 0.402738701346 0)
(0.42782019124 0.415479942235 0)
(0.431319128157 0.428130571394 0)
(0.434597113436 0.440683691082 1.08657181275e-20)
(0.437642902789 0.453151819079 0)
(0.440484871152 0.465534093229 0)
(0.443114720248 0.477841062959 1.03458974524e-20)
(0.445558865527 0.490078395237 1.02096964986e-20)
(0.447821715058 0.502247679623 0)
(0.449919688162 0.514362177935 0)
(0.451870133396 0.526426213573 9.91866983501e-21)
(0.453699439906 0.538446940634 0)
(0.455467649987 0.550411660524 -9.82575901618e-21)
(0.457202582518 0.561739711355 0)
(0.458881036835 0.571967581375 9.79044373117e-21)
(0.460463728332 0.581265629075 0)
(0.461942217838 0.58971098114 9.84242780585e-21)
(0.463315751176 0.59734663634 9.90724149067e-21)
(0.464594031664 0.604169818115 0)
(0.465778803371 0.610163103288 0)
(0.466871295324 0.615277667653 0)
(0.467871659179 0.619461499043 1.0449698411e-20)
(0.468780021435 0.622640936438 0)
(0.469595329318 0.624752621893 0)
(0.470311356951 0.6257139335 0)
(0.470919453669 0.625448043857 0)
(0.47141694127 0.623872580888 0)
(0.471816619393 0.620912980311 0)
(0.472119150203 0.616475401682 0)
(0.472324191113 0.610484091143 -1.31222238017e-20)
(0.472441435205 0.602846159232 0)
(0.472464255794 0.593473726386 -1.41824681139e-20)
(0.472405237422 0.582271438778 -1.47810592764e-20)
(0.472260963741 0.569132011634 0)
(0.472035486738 0.553947645665 1.61262033755e-20)
(0.471728052741 0.536595262911 0)
(0.47135623118 0.516936339872 -1.76876753487e-20)
(0.470920883365 0.494804307804 0)
(0.470443143731 0.470041277919 1.94959190805e-20)
(0.469950955018 0.442428677608 -2.05052886424e-20)
(0.469439394954 0.411736269771 0)
(0.468906257757 0.377684446488 0)
(0.468351016593 0.339993441571 0)
(0.467796571395 0.298325842685 0)
(0.467239335611 0.25229698027 -2.69199344202e-20)
(0.466639812291 0.201434866552 2.85528571733e-20)
(0.465885985442 0.145223384008 -6.0663289549e-20)
(0.465016878297 0.0828984539008 -6.45837099859e-20)
(0.463906928219 0.0129817869446 -6.8998229269e-20)
(0.462113816293 -0.0655602875434 0)
(0.459271523549 -0.153456133379 0)
(0.45554506897 -0.253542967054 0)
(0.45177472661 -0.369828887548 -9.2365233305e-20)
(0.446915589195 -0.502703183805 0)
(0.44131202596 -0.646330496276 0)
(0.439306904168 -0.802376507764 -1.16006573756e-19)
(0.441725210136 -0.990545683806 0)
(0.436378575626 -1.23282565996 1.44068841e-19)
(0.409801320989 -1.50004177768 0)
(0.382200989989 -1.74905366441 -1.76525378264e-19)
(0.379618705956 -2.02179586037 0)
(0.398063870739 -2.42180901735 0)
(0.427406455186 -3.1341226944 0)
(0.477329561101 -4.17268466613 -4.41408148808e-19)
(0.512274979775 -2.46009671381 0)
(0.501962447466 -0.97030587347 -2.45093859017e-19)
(0.499367486128 -0.168422547482 -1.86334454196e-19)
(0.49339814891 0.352780897222 0)
(0.488242607984 0.733236372908 0)
(0.484384072075 1.03022941922 0)
(0.481577046871 1.27249854485 -1.05043639106e-19)
(0.479496690511 1.47638020098 0)
(0.477896233209 1.65207577177 0)
(0.476598136287 1.80630854412 -8.24897677177e-20)
(0.475495851061 1.94378626357 -7.73193324601e-20)
(0.474522719576 2.06785959464 0)
(0.473644054837 2.18103796088 6.90329293518e-20)
(0.472839629588 2.28518354633 6.56565471929e-20)
(0.47213497895 2.3817525703 -6.26690206104e-20)
(0.471585692376 2.47182844605 0)
(0.471164144492 2.55619664544 0)
(0.47079597036 2.63545596709 0)
(0.47033549152 2.70999862303 5.35548956045e-20)
(0.469751829609 2.78030227033 0)
(0.469094980846 2.84676278804 5.0264922634e-20)
(0.468394213015 2.9098082417 0)
(0.467719310637 2.96984162362 0)
(0.467081802508 3.02717086815 0)
(0.466481948189 3.08206303699 -4.53652711308e-20)
(0.465917306137 3.13473096714 -4.44149988113e-20)
(0.465387402794 3.185374166 0)
(0.464893918694 3.23416473672 0)
(0.464437447676 3.28127551528 0)
(0.464016514166 3.32686182362 0)
(0.463629049023 3.37108011855 0)
(0.463272392709 3.41406988103 0)
(0.46294772757 3.45597711967 -7.98699384534e-20)
(0.462649149735 3.49693614898 0)
(0.462371512362 3.53707998871 0)
(0.462133125185 3.57652438017 0)
(0.461927820963 3.61532392438 7.72280824776e-20)
(0.461764432907 3.65354838899 7.67773796604e-20)
(0.461567689159 3.69112744266 -7.64064018151e-20)
(0.461377921675 3.7281641545 -7.60936907808e-20)
(0.461188454235 3.76453113188 0)
(0.460990463053 3.80033816189 0)
(0.460770014718 3.83551922253 0)
(0.460501801679 3.87015285842 -7.53831760469e-20)
(0.460180127261 3.90419814548 0)
(0.459809536854 3.93778800158 0)
(0.459399144512 3.97082220349 7.52807974081e-20)
(0.458959737957 4.00333099591 0)
(0.458505990639 4.03498363075 7.53065239324e-20)
(0.458032763461 4.06572610053 0)
(0.457517201351 4.09636958015 7.53418078363e-20)
(0.456948751763 4.12697194255 0)
(0.456289857032 4.15734423306 0)
(0.455479892949 4.18744413611 0)
(0.454418656737 4.21692805529 0)
(0.452962252368 4.24554829977 0)
(0.450910934764 4.27265732323 0)
(0.447980670485 4.29756193089 0)
(0.443827733489 4.31917503292 0)
(0.438085651636 4.33630779915 7.63724761661e-20)
(0.430262784742 4.34710742014 0)
(0.419833650318 4.34953197482 0)
(0.406285108873 4.34093323621 7.76668670637e-20)
(0.389168059535 4.31873477891 0)
(0.368166872938 4.28022745481 0)
(0.343163807322 4.22345814045 8.02729410591e-20)
(0.313893323849 4.14691756255 0)
(0.280437326602 4.05005533268 0)
(0.243375870938 3.93409048879 8.49768643701e-20)
(0.203443892863 3.80314153823 -8.71015949845e-20)
(0.16147588385 3.66423315574 8.95192505857e-20)
(0.118713835542 3.52820463911 0)
(0.0763237542323 3.41936400297 0)
(0.0319387231363 3.35413103671 1.96072655088e-19)
(-0.011653761003 3.3530687132 0)
(-0.0539961747635 3.44688406442 -2.08070619703e-19)
(-0.094659177972 3.6774839714 -2.1351051863e-19)
(-0.12914699714 4.10655584485 0)
(-0.0135637709245 -0.166172506336 -4.81196937064e-19)
(-0.0363477883177 -0.169141260201 0)
(-0.0442446557999 -0.157701827584 1.21696425992e-19)
(-0.0376581235493 -0.149673093206 -8.96345896182e-20)
(-0.0248655692092 -0.149176808195 -7.40179752047e-20)
(-0.00900157934209 -0.15334743902 3.26422864442e-20)
(0.00875958489312 -0.159706107913 5.63295800283e-20)
(0.0277252517787 -0.166926090033 0)
(0.0471920815505 -0.174409302987 -2.28771462893e-20)
(0.066642554865 -0.182050981838 4.03951870156e-20)
(0.0857646671554 -0.189765639116 5.55798142673e-20)
(0.104379409378 -0.197641749187 -3.36436783397e-20)
(0.122345294547 -0.205654845259 4.69461766636e-20)
(0.139612134367 -0.213878693605 1.48018948952e-20)
(0.15612555349 -0.222281522858 0)
(0.171887855648 -0.230903849196 -1.29342399805e-20)
(0.186887309912 -0.239706674392 -1.21675800148e-20)
(0.201142701251 -0.248705191789 -1.14894351807e-20)
(0.214677054478 -0.2578593393 2.09401894228e-20)
(0.227539649697 -0.267179966228 0)
(0.239769600855 -0.276630438132 1.89135307028e-20)
(0.251412858761 -0.286216309407 0)
(0.262528564607 -0.29590094606 -1.72726915248e-20)
(0.273175574029 -0.305693915943 0)
(0.283409732938 -0.315561278809 2.42765057249e-20)
(0.293270722014 -0.325518286678 -7.28287549622e-21)
(0.302781944189 -0.335529025007 -1.47994625543e-20)
(0.311963746009 -0.345603550534 -2.18337963051e-20)
(0.320843272965 -0.35570054473 -7.29555696528e-21)
(0.329427242225 -0.365834845503 -7.07949476508e-21)
(0.337720269635 -0.375966404666 0)
(0.345725771007 -0.38611322899 -1.26680410522e-20)
(0.353449394072 -0.396232874761 6.51587263165e-21)
(0.360888597947 -0.406348005263 0)
(0.368032166004 -0.416424100964 0)
(0.374885311196 -0.426482006469 6.05741064555e-21)
(0.381439592743 -0.436489599684 0)
(0.387704159505 -0.446468873268 0)
(0.393673638931 -0.456397708532 0)
(0.399360743246 -0.466295378115 0)
(0.404755484564 -0.476149412598 0)
(0.409872065986 -0.485976743378 9.49289398673e-21)
(0.414705315471 -0.495777059728 1.99642881194e-20)
(0.419271367344 -0.505566078754 0)
(0.423569701176 -0.515358474661 9.068921866e-21)
(0.427613766962 -0.525168690056 -1.02548032928e-20)
(0.431410333781 -0.535027138896 0)
(0.43497191927 -0.544955664859 0)
(0.438300012365 -0.555000633607 -2.88356722087e-20)
(0.441378423752 -0.565199880164 -1.871142368e-20)
(0.444160373832 -0.575658669788 1.00307934768e-20)
(0.446779109428 -0.583637694125 1.86073427104e-20)
(0.449368260549 -0.588700465943 8.54905590487e-21)
(0.451907835384 -0.591551018614 0)
(0.454387196495 -0.592752884149 -2.85442885996e-20)
(0.456801891408 -0.592731556498 -1.0095966512e-20)
(0.459157522534 -0.591845123188 0)
(0.461451864412 -0.590396185451 1.87758789603e-20)
(0.463684148176 -0.588666205937 -1.8963100505e-20)
(0.46585133819 -0.586905991346 -1.06349041198e-20)
(0.46794996956 -0.585361246251 0)
(0.469970451097 -0.584254499651 0)
(0.471896051724 -0.583804416691 0)
(0.473721489259 -0.584199082481 2.08177130981e-20)
(0.475438928021 -0.585622640877 0)
(0.477042465659 -0.588227177052 -2.2067063328e-20)
(0.478530826223 -0.592165332958 0)
(0.479902210699 -0.597552604599 -1.01996665833e-20)
(0.481152796203 -0.604504638149 0)
(0.482279623689 -0.613108627147 -1.10178940548e-20)
(0.483282804839 -0.623448206981 -1.15036287377e-20)
(0.484161536897 -0.635598521956 0)