/*--------------------------------*- C++ -*----------------------------------*\
| =========                 |                                                 |
| \\      /  F ield         | OpenFOAM: The Open Source CFD Toolbox           |
|  \\    /   O peration     | Version:  v1806                                 |
|   \\  /    A nd           | Web:      www.OpenFOAM.com                      |
|    \\/     M anipulation  |                                                 |
\*---------------------------------------------------------------------------*/
FoamFile
{
    version     2.0;
    format      ascii;
    class       volScalarField;
    location    "19";
    object      alpha;
}
// * * * * * * * * * * * * * * * * * * * * * * * * * * * * * * * * * * * * * //

dimensions      [0 0 -1 0 0 0 0];


internalField   nonuniform List<scalar> 
12225
(
0.391776316372
0.328962652164
0.349166037908
0.348907717389
0.360629429578
0.364818710122
0.370649409936
0.374575273758
0.376628706962
0.375647843808
0.370201783137
0.36166485873
0.354800093735
0.343235834203
0.320320187783
0.290266173858
0.251262934199
0.21866927394
0.222476705741
0.281327665262
0.312750292266
0.308211046054
0.31702435988
0.319288990339
0.322864387888
0.325040829551
0.32617672684
0.325610473756
0.322030405077
0.315687919508
0.309087212693
0.299378714429
0.282120982516
0.259651801581
0.234855297357
0.23226672945
0.371949386507
0.299016190161
0.317451465339
0.315555990645
0.325083001746
0.328286399
0.332651900536
0.335537258564
0.337478598279
0.337982998094
0.336384335478
0.332568272021
0.327037068372
0.31821785267
0.303748419675
0.285448695944
0.268403462512
0.272963719739
0.305471572087
0.287486144282
0.313143311583
0.307481456388
0.315996102905
0.317635835509
0.320680092999
0.322461949181
0.323614778074
0.323739121983
0.322528754089
0.319832567693
0.315525526318
0.308682748635
0.298367319768
0.286534007379
0.278769152665
0.287959869879
0.339819916847
0.287737039193
0.311981808554
0.305160136458
0.312877293593
0.313596336758
0.31577425723
0.316663017282
0.316902812014
0.316183583111
0.314386698057
0.311435057955
0.307116577824
0.300990105977
0.293075107602
0.285568849754
0.283382082889
0.293479084642
0.326170315989
0.284050890352
0.308749560125
0.30064349938
0.307792882208
0.307809361186
0.309453609223
0.309857378065
0.30967775698
0.308662410591
0.306771509984
0.303973739634
0.300117606213
0.295089698183
0.289431284523
0.285305161708
0.286373287046
0.295942425775
0.329801419033
0.282728426069
0.306289470118
0.2973397518
0.303823391482
0.303199177538
0.304333747511
0.304301500974
0.303778117485
0.302560722158
0.300658720522
0.298082637893
0.294802081097
0.290930753545
0.28724575609
0.285620893329
0.288502186242
0.297245427975
0.327550827565
0.281275452355
0.304146095978
0.294466718727
0.300404674382
0.299264501971
0.300017197637
0.299681056602
0.298975023725
0.297713869835
0.295929320073
0.29367254648
0.291030171175
0.28826327939
0.286211233966
0.286346403737
0.290188141058
0.298088126264
0.326607879395
0.28054023945
0.302400869615
0.292228503894
0.297643794284
0.296064768995
0.296500374121
0.295954543904
0.295178498313
0.293980119296
0.292400776447
0.290538320047
0.288565966468
0.286821765927
0.286075333356
0.287428844295
0.291732102892
0.298913516235
0.325731676339
0.280220005051
0.301204112619
0.290671057727
0.295649727958
0.293710910383
0.293915122714
0.293249662212
0.292472838192
0.291384926302
0.290059913013
0.288641532392
0.287351680142
0.286530544357
0.286816353282
0.288984410347
0.293462034756
0.299974000375
0.325770467661
0.28015068716
0.300832459724
0.289974169649
0.294702035285
0.292559523548
0.292686980713
0.292001357824
0.291281176722
0.290353743176
0.289327619688
0.288350700218
0.287647727759
0.287519264355
0.28846831204
0.291013850027
0.295324077794
0.301096657716
0.329660712113
0.280270069076
0.302267059389
0.29085248976
0.295639464954
0.293406005433
0.29351983015
0.292839715117
0.292217631348
0.29145208443
0.290595167428
0.289815058834
0.289347700951
0.289480590305
0.290599272318
0.293058729141
0.296928178631
0.301911928281
0.332862585435
0.280931647659
0.303715473793
0.291907457333
0.296523729701
0.294127080315
0.294146484254
0.293395863249
0.292691471043
0.291852938231
0.290989654402
0.290274732355
0.289977567006
0.290307117553
0.291579001006
0.29400447406
0.297555021852
0.301969816654
0.336768113331
0.281758093425
0.305371822072
0.293046661506
0.297458206588
0.294720904169
0.294446227806
0.293485747482
0.292678755007
0.291841932063
0.291091144375
0.29061401592
0.29064494599
0.291329374209
0.292834325704
0.295286191546
0.298546503739
0.302468498294
0.341870262046
0.282664048133
0.307458293563
0.294431772413
0.298634195919
0.295494021
0.294885394217
0.293676171257
0.292749048993
0.291954389777
0.291374368502
0.291205482753
0.291621440873
0.292645460631
0.294359430397
0.296789491702
0.299782822762
0.303200216412
0.347254293704
0.28363350837
0.309848130161
0.296126622496
0.300224652177
0.296738838671
0.295884083961
0.294493898973
0.293519120519
0.292776700854
0.29239103431
0.292474359478
0.293183335972
0.294416929998
0.296217722796
0.298536115916
0.301239163464
0.304230186795
0.352145753839
0.284522100993
0.312282295438
0.297995069001
0.302136175578
0.298446278292
0.297492815306
0.29605107174
0.295107406301
0.294483223217
0.294245942668
0.294518124775
0.295380351169
0.296703678056
0.298460669537
0.300621700157
0.303021191121
0.305662201676
0.35678653271
0.285207521367
0.314614294188
0.299865402926
0.304190696519
0.300439333505
0.299530034245
0.298132292286
0.297280233727
0.296773898791
0.296662223248
0.29704919553
0.297981267079
0.299297768414
0.300959290865
0.302940421231
0.305080788722
0.307414519557
0.359329660742
0.285297869496
0.315864334788
0.300937144157
0.305555668533
0.301948954363
0.301264659666
0.300070168893
0.299430906042
0.299126113283
0.29918955559
0.299703341439
0.300700052474
0.302004339067
0.303583221832
0.305422902206
0.307374211612
0.309479975361
0.354135652618
0.284699192845
0.314316790882
0.300229802127
0.305314299471
0.302363548064
0.302303886599
0.301747545177
0.301682695013
0.301888489734
0.302368893398
0.303189348714
0.304386370298
0.305797926938
0.307395698999
0.309175617675
0.311003461794
0.312912742585
0.349546723609
0.283566113202
0.31248025833
0.299009192308
0.304456217168
0.302027772131
0.30246235657
0.302368684734
0.302744367078
0.303313433347
0.304087683864
0.305108996024
0.306446572448
0.307915073706
0.309524380619
0.311251499273
0.31300474996
0.314790983954
0.347657042293
0.282758076289
0.31063565311
0.297688213972
0.303402132985
0.30143304961
0.302268145248
0.302576471665
0.303294231442
0.304151967625
0.305160046925
0.306338770352
0.307770319289
0.309291568474
0.31090029394
0.312597451638
0.314285384342
0.316009146551
0.340042595546
0.281011424657
0.308930170815
0.296468527573
0.302476117059
0.30093987539
0.302158499189
0.302829274724
0.303863143471
0.304998914561
0.306205385997
0.307544757072
0.3090808768
0.31067178466
0.312292822179
0.313992497936
0.315651399921
0.317314005398
0.346078950844
0.280614214528
0.306737686772
0.294837216561
0.301100991289
0.300013462995
0.301601690405
0.302639415437
0.303976511214
0.305359121152
0.306776509286
0.308268541738
0.309919326954
0.311582109867
0.313274332283
0.315007136661
0.316695060561
0.318349743508
0.320749796392
0.278295719915
0.305221008702
0.294079937928
0.300566598236
0.299897225774
0.301815141171
0.303131492661
0.304708957608
0.306291160733
0.307865339963
0.309451129658
0.311165052726
0.312865737885
0.314562081421
0.316309474703
0.318028940945
0.319705241853
0.361270320009
0.278314464324
0.302163376853
0.291452337342
0.298170655142
0.297881926464
0.300056806864
0.30165513246
0.303479290914
0.305301901522
0.307079975532
0.308840039281
0.310689970287
0.312524764892
0.314346530825
0.316190727935
0.317982946824
0.319589790638
0.270271782785
0.275133667215
0.29981696717
0.2911321271
0.297764002697
0.298054297769
0.300546196589
0.302461601641
0.304570776105
0.306675663122
0.308750115444
0.310664692441
0.31259388492
0.314499812314
0.316333830608
0.318187995143
0.320059362862
0.32210042456
0.411904344813
0.2794581589
0.292136236222
0.285175025993
0.291751470945
0.292182207055
0.294580587052
0.296331612736
0.298216147189
0.300088900204
0.301819526092
0.303433656682
0.30511791678
0.306790877926
0.308444617437
0.310225095121
0.312105224976
0.313621595589
0.152759391982
0.260842422391
0.284960637782
0.278875719768
0.285025070916
0.286089899556
0.289026616229
0.291672524533
0.294682915035
0.297937461145
0.301326254138
0.304502186027
0.307720385384
0.311072155314
0.314475058698
0.317943365864
0.321524476389
0.324996290481
0.329302598981
0.29686586321
0.301542668837
0.299918274426
0.307435467378
0.308407841202
0.310973423393
0.312957807117
0.314973401785
0.316743703488
0.318171861742
0.319505126573
0.320899244015
0.321974181812
0.322733993405
0.323371040153
0.323694503017
0.324437704967
0.476040523542
0.476400426506
0.476586381088
0.476568126917
0.476354450832
0.475979797693
0.475546383712
0.475087766082
0.474630530258
0.474193164255
0.47378767711
0.473421053706
0.47309661788
0.472815238401
0.472576041238
0.472376983807
0.472215430018
0.472088034888
0.47199171246
0.471923524681
0.471880241618
0.47185973788
0.471858833583
0.471876927374
0.471912241993
0.471965325345
0.472034677941
0.472120706458
0.472222917437
0.472342244953
0.472478559423
0.472632487288
0.472803747434
0.472993212713
0.473200755614
0.47342630219
0.473668762444
0.473928905754
0.474205575649
0.474498723787
0.474806970942
0.475129562616
0.475464791374
0.475810999964
0.476166043127
0.476527372653
0.4768923753
0.477257917851
0.477620734323
0.477977864202
0.478326448102
0.478665100474
0.478990686159
0.47929898492
0.479584637242
0.479842521016
0.48006724622
0.480253427149
0.48039555013
0.480488362808
0.480527799803
0.480512652148
0.480441967567
0.480312766651
0.480124129139
0.479879163955
0.479579936479
0.479228557096
0.478828338126
0.478382059446
0.477893985406
0.477367973419
0.476808779032
0.476220622756
0.475608153856
0.474975339011
0.474326126734
0.473665053992
0.472995904591
0.472321302604
0.471643284675
0.470965136005
0.470288903796
0.469617281317
0.468949493693
0.46828820042
0.467633490477
0.466979105429
0.466328780131
0.465678985567
0.465028963869
0.46437850615
0.463725430712
0.463096076653
0.462504964338
0.461914276518
0.461292403472
0.460654120861
0.460001343049
0.459340047718
0.458564874467
0.457697063
0.457555868593
0.457509715214
0.457294347708
0.456856501352
0.456229442502
0.455887806154
0.455489058077
0.455130598929
0.454836536087
0.45458401995
0.454368402778
0.454166585794
0.453981131976
0.453808756949
0.453646795941
0.45349193322
0.453343195939
0.453201472532
0.453070039743
0.452950096175
0.452840346438
0.452739706338
0.452645358346
0.452556054899
0.45247106204
0.452389885478
0.452312165847
0.452237508493
0.452165547052
0.452096066929
0.452028881113
0.451963963688
0.451901245605
0.451840806597
0.451782662801
0.451726461201
0.451672682132
0.451621495037
0.451574674592
0.451530838824
0.451490805548
0.451456078063
0.451428344469
0.451409405629
0.451400364917
0.451402016923
0.451415056339
0.45144001859
0.451477985811
0.451530471116
0.451599188183
0.451685756526
0.451791939029
0.451919535572
0.452070588385
0.452247320521
0.452452687279
0.452690264889
0.452965398419
0.45328376544
0.453653404121
0.454085558335
0.454595619795
0.455200511534
0.455921133476
0.456774042317
0.457772552001
0.458939546683
0.460288082454
0.461814776927
0.463501287182
0.465306923109
0.467172177787
0.469152119388
0.471194619686
0.473224509286
0.475134467792
0.476640834146
0.4761421292
0.47637573
0.476275370784
0.4759890394
0.475640905733
0.475284453225
0.474941259535
0.474621678034
0.474330250311
0.474069179028
0.473838815312
0.473639773701
0.473471157217
0.473332562393
0.47322258676
0.47314010682
0.473083279189
0.473050301953
0.473038703378
0.473046999299
0.4730726613
0.473114270395
0.473169501826
0.473238165387
0.473318879826
0.473412494426
0.473518162342
0.473636722528
0.473768387298
0.473914467981
0.474075137629
0.474251380063
0.474443780024
0.474653522149
0.474880271971
0.475124740503
0.475386620286
0.475666196303
0.475962957356
0.476277042772
0.476607473618
0.476953488449
0.477313600414
0.477686070447
0.478068639706
0.478458542462
0.478852400962
0.479246595921
0.479636484074
0.480016885191
0.480380202243
0.480721389572
0.481037547913
0.481325706242
0.481581969704
0.481802472085
0.481983407882
0.482119069947
0.482203525725
0.482234685267
0.482211095863
0.482130514121
0.481993344323
0.481803581449
0.481560194262
0.481260601364
0.480904657162
0.480492735396
0.4800258038
0.47950491105
0.478932001197
0.478309213423
0.477639885336
0.476927589388
0.476176438464
0.475391093831
0.47457666995
0.473738495995
0.472882088437
0.472011474181
0.471129754692
0.470240767126
0.469348682818
0.46845536203
0.46755915087
0.466665334288
0.465780630817
0.464895498229
0.463989203137
0.463080178224
0.462199039657
0.461312544422
0.46038102436
0.459434885506
0.458559123783
0.45775889066
0.456925935759
0.456242075243
0.455564341168
0.454854369373
0.454171982333
0.453358978557
0.452757449787
0.452108768614
0.451511157415
0.450935522725
0.450594668533
0.450334729091
0.45010267429
0.449861439646
0.449618019265
0.449365840037
0.44910665166
0.448844737495
0.448586157977
0.448330328464
0.448076482426
0.447822945881
0.447569137248
0.447317784673
0.44707268421
0.446835659732
0.446606804303
0.446384466077
0.446166731683
0.445952664327
0.445741546977
0.44553293215
0.445326324686
0.445121537243
0.444918481156
0.444717129449
0.444517341646
0.444318990742
0.444121680674
0.443925032128
0.443728401129
0.443531003771
0.44333213548
0.443132101445
0.442931114936
0.442727931499
0.442522151067
0.44231405811
0.442104517452
0.441893950873
0.441681952264
0.441467522947
0.441249428366
0.441026640851
0.440798035994
0.440562393828
0.440318490087
0.440065621004
0.43980390993
0.439534168246
0.439258368561
0.438979098138
0.438699927729
0.438424129461
0.438156700809
0.437903181566
0.437668973632
0.437458116511
0.437274322496
0.437120572729
0.436993275862
0.436900150312
0.436840468272
0.436812807779
0.436818861562
0.436865590656
0.436962668997
0.437114306527
0.437387964151
0.437691538989
0.438044515755
0.438440873107
0.438837815415
0.4392556877
0.475774259241
0.47585006003
0.475815094412
0.475699170944
0.475576414541
0.475475247273
0.475386614565
0.475304045838
0.47522380051
0.475145743975
0.475070431163
0.474999454704
0.47493443896
0.474877261524
0.474829303955
0.474791776483
0.474765171856
0.474749822
0.474745328946
0.474751252377
0.474766694221
0.474791649256
0.474824591307
0.474865903853
0.474915228281
0.474973328697
0.475040045677
0.475116660633
0.475203637518
0.475302347797
0.475413387021
0.475538221437
0.475677234269
0.475831467917
0.476001265217
0.476187154845
0.476388684655
0.476606430519
0.47683983078
0.477088614158
0.477351862318
0.477628563551
0.477917144761
0.478215716153
0.478521916315
0.478833017078
0.479145722195
0.479456434676
0.479761108099
0.480055399431
0.48033313647
0.480587907439
0.480812798923
0.481003291714
0.481155873168
0.481267723106
0.481336497361
0.481362263527
0.481345901382
0.481285894363
0.481179565622
0.481024730235
0.480816016183
0.480549689272
0.48022749588
0.479848673844
0.479412088286
0.478917648338
0.478366946058
0.477762475462
0.477108031933
0.47640811017
0.475667845051
0.474892643815
0.474087987731
0.473259336838
0.472411925696
0.471550950915
0.470681287524
0.469807617207
0.468932042034
0.468057468807
0.467188288435
0.466327260321
0.465470561537
0.464616560969
0.463779422991
0.462961988203
0.462140400903
0.461304873976
0.460489046248
0.459720481408
0.45892400142
0.45812350357
0.457354643865
0.456616145781
0.45593466505
0.45540806599
0.454808306995
0.454021303394
0.453165629153
0.452554218555
0.452228565254
0.451889656166
0.451702204228
0.451466180857
0.451076423829
0.450514731873
0.449977796137
0.449511721064
0.449081916438
0.448681365132
0.448311622168
0.447968500013
0.447647621226
0.447342907031
0.447050202272
0.446766189172
0.446489506009
0.446221974111
0.445965729127
0.44572122546
0.445487110002
0.445261166796
0.445042269498
0.444829687321
0.444622925607
0.444421586222
0.444225326046
0.444033650823
0.443845867556
0.443661269688
0.443479386009
0.44329990889
0.4431225677
0.44294701982
0.442772681093
0.442599159502
0.442426315625
0.442255305884
0.442086219787
0.441918076175
0.441749682996
0.441581367979
0.441414622618
0.441250598462
0.441089789767
0.440932181388
0.4407778815
0.440627038785
0.440479832786
0.440336237811
0.440196371104
0.440060199309
0.439927466402
0.439797646952
0.439670010873
0.439543393984
0.439416603283
0.439287933981
0.43915569006
0.439018166568
0.43887364799
0.438720258979
0.438556642042
0.438381181937
0.438191244319
0.437986411693
0.437769924165
0.437544811777
0.437316166898
0.437094050498
0.436890858685
0.436731835328
0.43664279811
0.436640570488
0.436743107269
0.43695585166
0.437231414761
0.437418442626
0.475306246842
0.475424323496
0.475684527233
0.475823862919
0.475899311304
0.475957905216
0.475993795818
0.476007210808
0.476000288608
0.475976086391
0.475937769121
0.475889250745
0.475833799635
0.475774897468
0.475715272771
0.475657430289
0.475603097376
0.475553653807
0.475509620402
0.475472021676
0.475440517053
0.475415426873
0.475396602748
0.475384696059
0.475379345104
0.475381956294
0.475392869866
0.475413409241
0.475444383408
0.475487451426
0.475543517282
0.475613927795
0.475699552965
0.475801754254
0.475920476486
0.476056652167
0.476210217879
0.476381303113
0.47656931324
0.476773956287
0.476994021173
0.477228225187
0.477474621587
0.477730888923
0.477994221662
0.478261361407
0.47852848396
0.47879169663
0.479046488157
0.479288013898
0.479511610583
0.479713715563
0.47988862671
0.480031493295
0.480137844674
0.480203936803
0.480226348562
0.480203434545
0.480136607321
0.480028593103
0.479880055816
0.479689921018
0.479455475836
0.479171373562
0.478831121578
0.478430723782
0.477968111586
0.47744220466
0.47685328603
0.476203247943
0.475495513133
0.474735164919
0.473928723207
0.473083124569
0.472205744999
0.471304877522
0.470387893782
0.469460405877
0.468529547591
0.467602063884
0.466680198079
0.465763263972
0.464859289191
0.463977520802
0.46310967707
0.46224787008
0.461406150085
0.460617699148
0.45983645439
0.45905206406
0.458298558173
0.457592643899
0.456922146806
0.456266151687
0.455655827256
0.455041479189
0.454363763368
0.453630618474
0.452795225618
0.452001069493
0.451442732732
0.451193594202
0.451014739815
0.450796892846
0.4506107831
0.450293974873
0.449770407798
0.449104189062
0.448458435741
0.447877743703
0.447354706144
0.446891340903
0.446481222676
0.446112741067
0.44577616021
0.4454630781
0.4451679824
0.444886816015
0.444618255346
0.444363199703
0.444122661254
0.44389560635
0.443679071588
0.443470804928
0.443269649566
0.443074919415
0.442885967547
0.442702147603
0.442522770975
0.442347183761
0.442174500071
0.442004148255
0.441835917018
0.441669483283
0.441504441691
0.441340083269
0.441175824543
0.441011518507
0.440847939632
0.440686417631
0.440527259362
0.440368815303
0.440209198294
0.440048442995
0.439887697839
0.439727900699
0.439569327102
0.43941183221
0.439255187219
0.439099134856
0.438943496098
0.438788085025
0.438633040896
0.438478493391
0.438324563654
0.438171389226
0.438019249406
0.437868654238
0.437720252321
0.437574736887
0.437432503026
0.437293975922
0.437159502569
0.437028806204
0.436901168583
0.436775129748
0.436647267867
0.436515386465
0.43637768814
0.436231148187
0.436074191427
0.435908555788
0.435737902881
0.435570373103
0.435423983095
0.435305437485
0.435228234298
0.435190925964
0.435137944609
0.434942444915
0.474764190075
0.475424323554
0.476077670288
0.47631757489
0.476402700732
0.476458484221
0.476491875
0.47650586437
0.476500061094
0.476475898122
0.476434518434
0.476378411383
0.476310230508
0.476233311442
0.476150368975
0.476064313987
0.475977067094
0.475890824975
0.475806686884
0.475725738306
0.475648478726
0.475576101437
0.475508271801
0.475446169321
0.475390261437
0.475341605674
0.475300817319
0.475269585277
0.475248847278
0.475240254926
0.475244833647
0.475264337401
0.475299414486
0.475351228659
0.475420329226
0.475507431713
0.475612189482
0.475735114974
0.475875563806
0.476033084196
0.476206491739
0.476394517708
0.476595191055
0.47680627962
0.477024982376
0.477248271804
0.477472483691
0.477693782249
0.47790807788
0.478110714365
0.478295521056
0.478458154373
0.478593297498
0.47869582688
0.478761718718
0.478787502351
0.478769379027
0.478704844506
0.478593468762
0.47843382708
0.478224788335
0.477965813026
0.477656749353
0.477298505716
0.476890159036
0.476429150982
0.475913108525
0.475340329413
0.474710860936
0.474025859814
0.47328810513
0.472501910327
0.471674104486
0.470810448495
0.469917586645
0.46900404671
0.468078487935
0.467144313347
0.466205244361
0.465274030145
0.464356916162
0.463443792792
0.462540924672
0.461666467975
0.460808737761
0.459953454064
0.459120769715
0.458330210549
0.457590108854
0.45686577717
0.456140222484
0.455465307096
0.454802336958
0.454167841285
0.453508177949
0.45273822909
0.45190904223
0.451099283063
0.450394170965
0.449929437154
0.449720299124
0.449639884836
0.449496525581
0.44928150673
0.449018384794
0.448621105655
0.448089100556
0.44749519468
0.446916177691
0.446375179658
0.445886359106
0.445456103362
0.445077315309
0.444739424048
0.444433188213
0.444150778232
0.443886525524
0.443636453434
0.443399103764
0.443174701745
0.44296320852
0.442762448205
0.442569225491
0.442381679961
0.44219919692
0.442021614544
0.441848773615
0.441680421173
0.441516181686
0.441355663777
0.441198589322
0.441044663091
0.440893435448
0.440744489919
0.440597250427
0.440451047556
0.440305533208
0.440161087083
0.440019291828
0.43988151457
0.439747941593
0.439616053467
0.439483538168
0.439349991545
0.439216160008
0.439082905459
0.438950526547
0.438818994738
0.438688114142
0.438557642345
0.43842743656
0.438297377611
0.438167320737
0.438037165457
0.437906835083
0.437776380422
0.437645813332
0.437515114134
0.437384388859
0.437253765861
0.437123083687
0.436992179079
0.436860794718
0.43672827175
0.436593959645
0.436456740033
0.43631428186
0.436165546447
0.436010315588
0.435847242
0.435677024893
0.43550269906
0.435327385809
0.435157036954
0.435001714679
0.434863710973
0.434743071943
0.434622282704
0.434434391556
0.43406872981
0.474273793634
0.476101582308
0.476960947404
0.476958439599
0.476855174517
0.47680765612
0.47678621325
0.476771179149
0.476748821843
0.476712916842
0.476660530429
0.476592931934
0.476511522405
0.476419408391
0.476318820894
0.476212717684
0.476102965736
0.475991767236
0.475880205861
0.47577019306
0.475662029414
0.475556802422
0.475455171456
0.475358213912
0.475266134709
0.475180662795
0.475102590828
0.475033500567
0.474974524059
0.474927472667
0.474893509011
0.474874130797
0.474870328004
0.474883475475
0.474913653343
0.474961745788
0.475027671172
0.475111468382
0.475212369866
0.475329883617
0.475462515338
0.475608841257
0.475766639644
0.475933558844
0.47610667956
0.476282985435
0.476458843893
0.476630827741
0.476794957105
0.476946705
0.477080173252
0.477191122374
0.477273806866
0.477323027174
0.477334136507
0.47730302833
0.477225946465
0.477103593154
0.476937545807
0.476728785386
0.476477389214
0.476183257999
0.475844481981
0.475459227447
0.475022531252
0.47453087526
0.473980703743
0.473369839503
0.472698653508
0.471970093745
0.471186650505
0.4703542492
0.469481888698
0.468578169666
0.46764717489
0.466698731466
0.465746546406
0.464796092177
0.46384356983
0.462898301061
0.461984729365
0.461067489053
0.46016302508
0.459284495399
0.458443016687
0.457642515513
0.456860452843
0.456102869243
0.455369442703
0.454641992701
0.453962159376
0.453285976497
0.452538123961
0.451778005066
0.450999450711
0.45023509779
0.449551598586
0.448992890062
0.448583357656
0.448356762861
0.448246561154
0.448128430646
0.44793095932
0.447675760633
0.447352661939
0.446928443785
0.446434368384
0.445917611076
0.44541026113
0.444928676007
0.44448889799
0.444095595805
0.443743874193
0.443426555211
0.443136796213
0.442868504726
0.442616950557
0.442379222027
0.442154403141
0.441942968947
0.441744617228
0.441556932298
0.441377301457
0.441204309097
0.44103759913
0.440877125276
0.440722781652
0.440574261791
0.440431077377
0.440292606806
0.440158130666
0.440026723126
0.439897631288
0.439770205128
0.439643706245
0.439517377508
0.439390991754
0.439265581889
0.439143052541
0.439025212606
0.438911802057
0.438800196622
0.438688105065
0.438574869219
0.43846106591
0.438347350863
0.438234042824
0.438121166223
0.438008608733
0.437896397523
0.437784474731
0.437672790907
0.437561276406
0.437449775976
0.437338195267
0.437226417123
0.437114372317
0.437001954242
0.436889138863
0.436775852056
0.436661791887
0.436546649946
0.436429939155
0.436310800469
0.436188219376
0.436060856884
0.435926435717
0.435783779823
0.435632356694
0.435470779653
0.435299895129
0.435122525819
0.434941029678
0.434759738904
0.434586709103
0.43442231382
0.434262599201
0.434085458339
0.43382667128
0.433400362161
0.474020772174
0.477503010242
0.478075154322
0.477496890438
0.477154254154
0.477004921364
0.476929953573
0.476876336598
0.476818565866
0.476748949118
0.476663624552
0.476563841432
0.476450624218
0.476327006593
0.476194703125
0.476056601925
0.475914096835
0.475769616259
0.475624090886
0.475478925034
0.475334855546
0.47519340261
0.475054556867
0.474919792391
0.474789821524
0.474665832752
0.474548665651
0.474440096394
0.474341148822
0.474253539598
0.474178353256
0.474117310995
0.474071096227
0.474040805038
0.474026959813
0.474030125942
0.474049910991
0.474086568182
0.474139201213
0.474207088336
0.474288699937
0.474382564493
0.474486464932
0.474598204378
0.474715075962
0.474834607069
0.474953684219
0.475069505459
0.475179154709
0.475279177061
0.475362980718
0.475427016142
0.475464928815
0.475469501639
0.475434349631
0.475353610964
0.475224063364
0.475048997929
0.474830200498
0.474569623786
0.474268307885
0.473929009088
0.473552016895
0.473134798575
0.47267012099
0.472153973929
0.471580813649
0.470946323429
0.470250855286
0.469498500928
0.46869239644
0.467835409138
0.46694033904
0.466021291602
0.465081258392
0.464126152558
0.463170974715
0.462221583632
0.461268432477
0.460328667091
0.459410932626
0.458529161221
0.457686670735
0.45685718094
0.456050012744
0.455275656831
0.454534816229
0.45382653609
0.453113640163
0.452372068132
0.451644870045
0.450898842715
0.450144829863
0.449428054432
0.448752399581
0.448163516346
0.447688685603
0.447332790081
0.447076076557
0.44690509506
0.446752662815
0.446561431802
0.446320638491
0.446036492528
0.445689379694
0.445276982509
0.444831049089
0.444378060849
0.44393478038
0.443513838526
0.443126010747
0.442773634375
0.442454167073
0.442163545531
0.441897447357
0.44165153058
0.441422354444
0.441207780119
0.441007254073
0.440820864867
0.440647504843
0.440484530568
0.440329245347
0.440180108628
0.440036461243
0.439898016026
0.439764490562
0.439635509929
0.439510565675
0.439389060753
0.439270412478
0.43915415155
0.439039901426
0.438927151361
0.43881518392
0.438703306541
0.438591562613
0.438481380385
0.438374883166
0.438273809865
0.438177394666
0.438083066682
0.437988552059
0.437893207863
0.437797432978
0.437701668333
0.43760609525
0.437510613462
0.437415226376
0.437319877344
0.437224577594
0.437129276213
0.437033917936
0.436938451023
0.436842756381
0.436746679944
0.436650112944
0.436552936637
0.436455091087
0.436356403562
0.436256493061
0.436154933025
0.436051174046
0.435944192328
0.435832837211
0.435715732461
0.435590750172
0.435456683377
0.435312853614
0.435157900601
0.434992426424
0.43481876874
0.434638200477
0.434453221294
0.434269368672
0.434084732429
0.433891801091
0.433666261542
0.433350749057
0.432881561089
0.474133689795
0.479418589997
0.479077224672
0.477801935885
0.477322898706
0.477107776697
0.476977225993
0.476863846363
0.476746050396
0.476618817923
0.476478771776
0.476328227138
0.476167188485
0.475998542171
0.475823047749
0.475643321947
0.47546020171
0.475275763331
0.475090483201
0.474906252987
0.474723227344
0.474542726401
0.474365374159
0.474192225079
0.474023474736
0.473860789831
0.473704780414
0.473556874485
0.473417996151
0.473289744136
0.473173014206
0.473069066832
0.472978657442
0.472902837747
0.472841568879
0.472795479541
0.472764307591
0.472747864117
0.472745252825
0.472755813334
0.472777956265
0.472810319373
0.472850913618
0.472897919165
0.472949293498
0.473003350495
0.473058369412
0.473112942131
0.473165514289
0.473214334504
0.473254190785
0.473279037085
0.473280925033
0.473248349502
0.473169752024
0.473034988892
0.472843685094
0.472602655434
0.472316144118
0.471989379024
0.471629229774
0.4712432748
0.470836396451
0.47039832723
0.469920750989
0.469395917424
0.468816312464
0.468173363593
0.467464143918
0.466697133827
0.465880208982
0.465012849696
0.464105538748
0.463184821935
0.462236279105
0.461273959425
0.460320502729
0.45938371674
0.458475230687
0.457599856591
0.45673639367
0.455896509385
0.455091405122
0.45431959484
0.453583172523
0.452876084182
0.452175057666
0.451459549384
0.450726618627
0.449992041579
0.449287533141
0.448592461106
0.447944528949
0.447356911824
0.44683160377
0.446390574443
0.446038512475
0.445768051054
0.445552133737
0.445368769922
0.44517618009
0.444955630534
0.444703304759
0.444410277731
0.444066460997
0.443684481668
0.44328816379
0.442892576004
0.442508226749
0.442143623131
0.441804767398
0.441492944072
0.44120716476
0.440945349006
0.440704718376
0.440482106046
0.440274884719
0.440081421355
0.439901293234
0.439734324378
0.439579152301
0.43943335887
0.439294727327
0.439161983214
0.439034599786
0.438912405322
0.438795263155
0.438682945362
0.438575071528
0.438471142461
0.438370611478
0.438272952301
0.438177540484
0.438083620161
0.437990208411
0.43789657353
0.437803001547
0.437711139417
0.437623280758
0.43754077615
0.437462660734
0.43738650654
0.437310294781
0.437233459573
0.437156234206
0.437078928561
0.437001553931
0.436924046736
0.436846333399
0.436768400659
0.436690288617
0.436611970751
0.436533404132
0.436454489273
0.43637508611
0.436295007169
0.436214086762