/*--------------------------------*- C++ -*----------------------------------*\
| =========                 |                                                 |
| \\      /  F ield         | OpenFOAM: The Open Source CFD Toolbox           |
|  \\    /   O peration     | Version:  v1806                                 |
|   \\  /    A nd           | Web:      www.OpenFOAM.com                      |
|    \\/     M anipulation  |                                                 |
\*---------------------------------------------------------------------------*/
FoamFile
{
    version     2.0;
    format      ascii;
    class       surfaceScalarField;
    location    "19";
    object      phi;
}
// * * * * * * * * * * * * * * * * * * * * * * * * * * * * * * * * * * * * * //

dimensions      [0 3 -1 0 0 0 0];
oriented        oriented;


internalField   nonuniform List<scalar> 
24170
(
3.07346887355e-06
1.14938936813e-07
2.98650053886e-06
8.6969925035e-08
2.90647256831e-06
8.00301349804e-08
2.82937763982e-06
7.7097828937e-08
2.75543928693e-06
7.39406020371e-08
2.68478516331e-06
7.06568272625e-08
2.61726027203e-06
6.75269827082e-08
2.55263976287e-06
6.46229925004e-08
2.4906873835e-06
6.19544046726e-08
2.4311556253e-06
5.95340655134e-08
2.3737739602e-06
5.73836047692e-08
2.31824069151e-06
5.5535398627e-08
2.26420575774e-06
5.40368498474e-08
2.21124056713e-06
5.29671968067e-08
2.15876837718e-06
5.24741757443e-08
2.10587443244e-06
5.28962813475e-08
2.05057253798e-06
5.53047685764e-08
6.38605158913e-08
1.9867146217e-06
3.43156565856e-06
1.00623683348e-07
3.42646650558e-06
9.20704302764e-08
3.41951552527e-06
8.69830051742e-08
3.40954073702e-06
8.70751203963e-08
3.39701740952e-06
8.6465984118e-08
3.38259254404e-06
8.50840529109e-08
3.36661810582e-06
8.35033583559e-08
3.34930727729e-06
8.19359886595e-08
3.33080795165e-06
8.04556259343e-08
3.31121184323e-06
7.91322065802e-08
3.2905481441e-06
7.80491484134e-08
3.26877867365e-06
7.73067945514e-08
3.24578335623e-06
7.70340263864e-08
3.2213303197e-06
7.74221367223e-08
3.19500760962e-06
7.87988620172e-08
3.16609423278e-06
8.18118981291e-08
3.13345169252e-06
8.7949982907e-08
9.92125063513e-08
3.09810157706e-06
3.67998203712e-06
8.31601150036e-08
3.68435928541e-06
8.76947607616e-08
3.68698485694e-06
8.43594198136e-08
3.68848817648e-06
8.55742148402e-08
3.68864325454e-06
8.63128711307e-08
3.68766065906e-06
8.60688042176e-08
3.68566305066e-06
8.55027204907e-08
3.68268271725e-06
8.49182206594e-08
3.67871966441e-06
8.4420296839e-08
3.67375404615e-06
8.40995166135e-08
3.66773886695e-06
8.40658049314e-08
3.66059367212e-06
8.44534861426e-08
3.65219349521e-06
8.54355737935e-08
3.64235388546e-06
8.72630824182e-08
3.63081446129e-06
9.03395832438e-08
3.61727173288e-06
9.53560078755e-08
3.60169955037e-06
1.03523613507e-07
1.15506870981e-07
3.58540565427e-06
3.93968986203e-06
6.88598767574e-08
3.94572923229e-06
8.16567502541e-08
3.94917010826e-06
8.09203381003e-08
3.95190329136e-06
8.28432206232e-08
3.95372111887e-06
8.44969979687e-08
3.95471421664e-06
8.50777841925e-08
3.95499821665e-06
8.52205695504e-08
3.95460248651e-06
8.53158702806e-08
3.95351220582e-06
8.55123623676e-08
3.95169247425e-06
8.59210469717e-08
3.9490884879e-06
8.66714979752e-08
3.94562369292e-06
8.79199832372e-08
3.94119720775e-06
8.98637114663e-08
3.93568604727e-06
9.27758655852e-08
3.92896539783e-06
9.70618407556e-08
3.92099481921e-06
1.03328239192e-07
3.91208989945e-06
1.12430170029e-07
1.24648722617e-07
3.90294930251e-06
4.21850210228e-06
5.74864464375e-08
4.2250023229e-06
7.51581470167e-08
4.22855876105e-06
7.73658010729e-08
4.23137321003e-06
8.0030925213e-08
4.23341221107e-06
8.2459855618e-08
4.23467574744e-06
8.38161644329e-08
4.23526424667e-06
8.46337280455e-08
4.23521987724e-06
8.5361928155e-08
4.23453662121e-06
8.61971344274e-08
4.23318757763e-06
8.72715931903e-08
4.2311307823e-06
8.8729669401e-08
4.2283105991e-06
9.07415020749e-08
4.22466112324e-06
9.35144373341e-08
4.22011912715e-06
9.73190370015e-08
4.21465974711e-06
1.02522329668e-07
4.20838238148e-06
1.09606695266e-07
4.2016827643e-06
1.19130792882e-07
1.31231961596e-07
4.19509974807e-06
4.51811430659e-06
4.84605483178e-08
4.52462163332e-06
6.86522234648e-08
4.52833235859e-06
7.36568175033e-08
4.53117463117e-06
7.71905946596e-08
4.53330635982e-06
8.03299962126e-08
4.53467708673e-06
8.24472984767e-08
4.53535632655e-06
8.39562638311e-08
4.5353918148e-06
8.53281815665e-08
4.53478638056e-06
8.6804259853e-08
4.53352133138e-06
8.85382761956e-08
4.53156728358e-06
9.06853137759e-08
4.52888889297e-06
9.34214326585e-08
4.52545271453e-06
9.69520944459e-08
4.52124586894e-06
1.01527272395e-07
4.51631506538e-06
1.0745443518e-07
4.51083671221e-06
1.15086249632e-07
4.50521726323e-06
1.24751279385e-07
1.36454487008e-07
4.49999585657e-06
4.83987230667e-06
4.13097391398e-08
4.8460973628e-06
6.24287909772e-08
4.84994175117e-06
6.98142514497e-08
4.85281099375e-06
7.43232511203e-08
4.85500282468e-06
7.81399307461e-08
4.85646239733e-06
8.09894235833e-08
4.85722624195e-06
8.31940012015e-08
4.85733997313e-06
8.52159649342e-08
4.85681362003e-06
8.73320499692e-08
4.85563667797e-06
8.97165836876e-08
4.85379228962e-06
9.25310063001e-08
4.85126542368e-06
9.59495405524e-08
4.84805368515e-06
1.00165006739e-07
4.84418787099e-06
1.05394165162e-07
4.83976735953e-06
1.11875924348e-07
4.83501029017e-06
1.19844233314e-07
4.83030267355e-06
1.29459857851e-07
1.40627017014e-07
4.82612992984e-06
5.18526413978e-06
3.56278767879e-08
5.19103313971e-06
5.6661267825e-08
5.19495256431e-06
6.58964944668e-08
5.19786548209e-06
7.14121166614e-08
5.20012151139e-06
7.5885630578e-08
5.20168605572e-06
7.94266011026e-08
5.20256657979e-06
8.23151183182e-08
5.20279985101e-06
8.49843181565e-08
5.20240153612e-06
8.77319115291e-08
5.20137092081e-06
9.07487238345e-08
5.1997055644e-06
9.41978273733e-08
5.19741203689e-06
9.82444866636e-08
5.19451808724e-06
1.03060268073e-07
5.19109208432e-06
1.0882137763e-07
5.18727118088e-06
1.15697898301e-07
5.18329300381e-06
1.23823392533e-07
5.17951371227e-06
1.33239567596e-07
1.43782346308e-07
5.17635914766e-06
5.55587718212e-06
3.10896147075e-08
5.56110815537e-06
5.14318823334e-08
5.56503051753e-06
6.19758273442e-08
5.56799626547e-06
6.84480821275e-08
5.57032419905e-06
7.35593249387e-08
5.57200565689e-06
7.77466977588e-08
5.57302900743e-06
8.12932438499e-08
5.57342026837e-06
8.45944657387e-08
5.57320014228e-06
8.79533881393e-08
5.57237944129e-06
9.15707165067e-08
5.57097174012e-06
9.56067932501e-08
5.56900525666e-06
1.00212166304e-07
5.56653514044e-06
1.05531523891e-07
5.56365970871e-06
1.11697837642e-07
5.56054019202e-06
1.18818339523e-07
5.55741677395e-06
1.26947572615e-07
5.55460747546e-06
1.36049729901e-07
1.45928124237e-07
5.55246147124e-06
5.95343463964e-06
2.74324512831e-08
5.95811336472e-06
4.67546477025e-08
5.96197233236e-06
5.81184733187e-08
5.96499259604e-06
6.54294539178e-08
5.96740755589e-06
7.11460118556e-08
5.96922675947e-06
7.59290917367e-08
5.97042937358e-06
8.00922179711e-08
5.97103117603e-06
8.39941913795e-08
5.97105623632e-06
8.79298368916e-08
5.97052667898e-06
9.21017796943e-08
5.96947178389e-06
9.66631340415e-08
5.9679396003e-06
1.01745709739e-07
5.96600806313e-06
1.07464342833e-07
5.96379703378e-06
1.13910031176e-07
5.96147994353e-06
1.21136480534e-07
5.9592886365e-06
1.29139837156e-07
5.95750266193e-06
1.37836066986e-07
1.47019268579e-07
5.95641234287e-06
6.37979635883e-06
2.4449776749e-08
6.38395498674e-06
4.25976782328e-08
6.38770383625e-06
5.43713326613e-08
6.39077823338e-06
6.23567836864e-08
6.39330223024e-06
6.86236686676e-08
6.39528871862e-06
7.39442332221e-08
6.39671376377e-06
7.86687244928e-08
6.39758490484e-06
8.3124583064e-08
6.39792803748e-06
8.75882070285e-08
6.39777555226e-06
9.22557420509e-08
6.39717138712e-06
9.72687190917e-08
6.39618081769e-06
1.02737688198e-07
6.39489936862e-06
1.08747102207e-07
6.39346032131e-06
1.15350328064e-07
6.3920395209e-06
1.22558412222e-07
6.39085247132e-06
1.30327820084e-07
6.39013945641e-06
1.38550184093e-07
1.470297397e-07
6.39012933377e-06
5.7429630368e-06
2.2322762436e-08
5.74612066016e-06
3.94417597298e-08
5.74918553608e-06
5.13081663221e-08
5.75182735908e-06
5.97166672908e-08
5.7540664295e-06
6.63862602922e-08
5.75590454332e-06
7.21077408041e-08
5.75732087878e-06
7.72539471438e-08
5.75831732312e-06
8.21296518085e-08
5.75891624518e-06
8.69907421699e-08
5.75915146497e-06
9.20219469723e-08
5.75906958934e-06
9.73520545527e-08
5.75873589941e-06
1.03072382085e-07
5.75824000026e-06
1.0924417951e-07
5.75769855276e-06
1.15892653283e-07
5.7572559938e-06
1.2300189456e-07
5.75707885379e-06
1.30505730207e-07
5.75734393499e-06
1.38285379931e-07
1.46153016264e-07
5.75822140156e-06
7.00024466949e-06
2.02350239912e-08
7.00350887265e-06
3.61791245652e-08
7.00689713625e-06
4.79215104383e-08
7.00997457348e-06
5.66408051218e-08
7.01268148678e-06
6.36809240415e-08
7.01500079189e-06
6.97899590257e-08
7.01690736913e-06
7.53488835977e-08
7.01840028589e-06
8.06382045411e-08
7.01950558993e-06
8.58868982655e-08
7.02026794464e-06
9.12611474589e-08
7.02074925188e-06
9.68716350828e-08
7.02103345602e-06
1.02789361829e-07
7.02122865009e-06
1.09049648992e-07
7.0214689491e-06
1.1565323926e-07
7.02191028775e-06
1.22561081818e-07
7.02272300234e-06
1.29693430686e-07
7.02407785725e-06
1.36931093342e-07
1.44106552482e-07
7.02612457973e-06
8.53289147478e-06
1.81921325951e-08
8.53624686255e-06
3.28253428679e-08
8.53997362366e-06
4.41961725606e-08
8.54356640298e-06
5.30495406e-08
8.54687767385e-06
6.0371018797e-08
8.54985801337e-06
6.6811075063e-08
8.55247431663e-06
7.27339079757e-08
8.55472240963e-06
7.83915069948e-08
8.55663117912e-06
8.39795316218e-08
8.55825518433e-06
8.963809724e-08
8.55967181094e-06
9.54561278782e-08
8.56098094533e-06
1.01480859732e-07
8.56230650804e-06
1.0772493194e-07
8.56379294885e-06
1.14167376161e-07
8.56560024269e-06
1.20754415e-07
8.56789332375e-06
1.2740085666e-07
8.57082922733e-06
1.33995487913e-07
1.40396014329e-07
8.57454035608e-06
1.04012502407e-05
1.61624338582e-08
1.04047349432e-05
2.93420113516e-08
1.04088630253e-05
4.00696043227e-08
1.0413100413e-05
4.88133776603e-08
1.0417219885e-05
5.62529601098e-08
1.04211285439e-05
6.29035495443e-08
1.04247795759e-05
6.90842078929e-08
1.04281635574e-05
7.50086326804e-08
1.04313101234e-05
8.08340548202e-08
1.04342809401e-05
8.6668220855e-08
1.04371639587e-05
9.25738859553e-08
1.04400701694e-05
9.85753817895e-08
1.0443130615e-05
1.0466539466e-07
1.04464907841e-05
1.108080536e-07
1.04503032362e-05
1.16942782468e-07
1.04547170454e-05
1.22987823649e-07
1.04598666434e-05
1.288466149e-07
1.34404652558e-07
1.04658587902e-05
1.26788954904e-05
1.40582094914e-08
1.26826412345e-05
2.55977687583e-08
1.26873381209e-05
3.53739165822e-08
1.26924571785e-05
4.3695678896e-08
1.26977089758e-05
5.10022596997e-08
1.27029529475e-05
5.76608772042e-08
1.27081200669e-05
6.3918094554e-08
1.27131916168e-05
6.9938286248e-08
1.27181924327e-05
7.58341238479e-08
1.27231843739e-05
8.16772770226e-08
1.27282567661e-05
8.75022223074e-08
1.27335209813e-05
9.33123806201e-08
1.27391022627e-05
9.90851473404e-08
1.27451341605e-05
1.0477742868e-07
1.27517486788e-05
1.10329510368e-07
1.27590674883e-05
1.15670091756e-07
1.27671934529e-05
1.20722019918e-07
1.25399393042e-07
1.27761994544e-05
1.54555301301e-05
1.17094643523e-08
1.54598163829e-05
2.13127669138e-08
1.54654329754e-05
2.97586176404e-08
1.5471862822e-05
3.72670779652e-08
1.54787706342e-05
4.40957263016e-08
1.54859671833e-05
5.04655472991e-08
1.5493353592e-05
5.653294965e-08
1.55008922369e-05
6.24008019007e-08
1.55085943207e-05
6.81332226937e-08
1.55165091069e-05
7.37635524528e-08
1.55247138153e-05
7.9298784679e-08
1.55333033055e-05
8.47241386272e-08
1.55423820762e-05
9.00078089403e-08
1.55520555009e-05
9.51054504452e-08
1.55624219951e-05
9.99644671122e-08
1.55735655138e-05
1.04528111735e-07
1.55855488582e-05
1.08739950095e-07
1.12541339258e-07
1.55984085158e-05
1.88405244257e-05
8.82374321037e-09
1.88458583857e-05
1.59801632609e-08
1.88530349761e-05
2.25834365887e-08
1.88615131433e-05
2.87902943131e-08
1.88709064729e-05
3.47038590517e-08
1.88809735938e-05
4.03998262237e-08
1.88915754876e-05
4.59325727966e-08
1.89026428313e-05
5.13348642836e-08
1.89141586677e-05
5.6618919008e-08
1.89261438755e-05
6.17797445522e-08
1.89386455769e-05
6.67986421327e-08
1.89517248928e-05
7.16463205808e-08
1.89654483408e-05
7.62859502324e-08
1.8979879318e-05
8.06760909122e-08
1.89950714868e-05
8.47737869236e-08
1.9011064058e-05
8.85372170251e-08
1.90278766587e-05
9.1928496065e-08
9.49110799533e-08
1.90455085514e-05
2.29673141688e-05
4.84849510126e-09
2.29746224356e-05
8.67359581924e-09
2.29845008353e-05
1.27068555777e-08
2.29962750914e-05
1.70177021367e-08
2.30094660037e-05
2.1514806432e-08
2.3023766464e-05
2.61010312202e-08
2.30389845393e-05
3.07164042357e-08
2.30550035644e-05
3.53175413268e-08
2.30717624704e-05
3.98619511109e-08
2.30892379356e-05
4.43060368982e-08
2.31074309273e-05
4.86075768987e-08
2.31263535439e-05
5.27256012404e-08
2.31460203055e-05
5.66210672097e-08
2.31664414323e-05
6.02570197179e-08
2.31876165866e-05
6.36003742863e-08
2.32095334381e-05
6.66225800038e-08
2.32321620857e-05
6.93012552166e-08
7.16176557747e-08
2.32554578055e-05
1.68142640226e-05
1.29115074752e-09
1.68206662081e-05
2.2731349666e-09
1.68291437638e-05
4.23103532289e-09
1.68390838328e-05
7.0793673489e-09
1.68501135556e-05
1.04867203074e-08
1.68620125524e-05
1.42037419433e-08
1.6874634602e-05
1.80958772101e-08
1.6887881764e-05
2.20721248151e-08
1.69016923516e-05
2.60527481497e-08
1.69160304556e-05
2.9969714894e-08
1.69308724486e-05
3.37668656544e-08
1.69462021101e-05
3.73977671114e-08
1.69620023439e-05
4.08219353734e-08
1.69782559709e-05
4.40053048934e-08
1.69949382023e-05
4.69190536775e-08
1.70120212861e-05
4.95414819202e-08
1.70294665451e-05
5.18564740097e-08
5.38530886363e-08
1.70472329767e-05
1.46383768624e-05
-2.51541632708e-09
1.46450749435e-05
-4.42323267888e-09
1.46536397618e-05
-4.33209963489e-09
1.46634004931e-05
-2.6796285305e-09
1.46740500865e-05
-1.61132856527e-10
1.46854255768e-05
2.82992467108e-09
1.46974077009e-05
6.11553601761e-09
1.4709912485e-05
9.56886969481e-09
1.4722887584e-05
1.30794130439e-08
1.47362981699e-05
1.65605738572e-08
1.47501172643e-05
1.99494749629e-08
1.47643192309e-05
2.3197131214e-08
1.47788793213e-05
2.62635738958e-08
1.47937699422e-05
2.91158856321e-08
1.48089625869e-05
3.17282348083e-08
1.48244240026e-05
3.40810124884e-08
1.48401213422e-05
3.61610540001e-08
3.79593139728e-08
1.4856015631e-05
1.27443704264e-05
-6.75233177934e-09
1.27515253966e-05
-1.15766731629e-08
1.27601767005e-05
-1.2981765632e-08
1.27696542274e-05
-1.21555130541e-08
1.27797835413e-05
-1.02887753089e-08
1.2790467984e-05
-7.85284274736e-09
1.28016126829e-05
-5.02750888557e-09
1.28131549162e-05
-1.97166926677e-09
1.28250604464e-05
1.17548883066e-09
1.28373046959e-05
4.31792075886e-09
1.28498642392e-05
7.39156998395e-09
1.28627142168e-05
1.03486153064e-08
1.28758283763e-05
1.31510445799e-08
1.28891776523e-05
1.57679915665e-08
1.29027307471e-05
1.81767281503e-08
1.29164530745e-05
2.03599980133e-08
1.29303080726e-05
2.23073853763e-08
2.40123571398e-08
1.29442564338e-05
1.10958655474e-05
-1.16873774842e-08
1.11036257366e-05
-1.93353906892e-08
1.11122868031e-05
-2.16413969203e-08
1.11213564533e-05
-2.12236068707e-08
1.11308661946e-05
-1.97970093855e-08
1.1140775967e-05
-1.77610717911e-08
1.11510146271e-05
-1.52645869335e-08
1.11615469731e-05
-1.2502465465e-08
1.11723569975e-05
-9.63302228197e-09
1.11834281734e-05
-6.75172333982e-09
1.11947406863e-05
-3.91953011084e-09
1.12062730489e-05
-1.18207955974e-09
1.12180010221e-05
1.42436237674e-09
1.12298983293e-05
3.87249661567e-09
1.12419353304e-05
6.14076535642e-09
1.12540846015e-05
8.21249653025e-09
1.12663198416e-05
1.00729136146e-08
1.17101274419e-08
1.12786237584e-05
9.66120076924e-06
-1.76722345766e-08
9.66965783815e-06
-2.77910894322e-08
9.67816891013e-06
-3.01510325466e-08
9.6867082774e-06
-2.97615391831e-08
9.69551920033e-06
-2.86065078749e-08
9.70457347142e-06
-2.68138954028e-08
9.71382648719e-06
-2.45161495332e-08
9.72328065308e-06
-2.1955234389e-08
9.73294304365e-06
-1.92941291925e-08
9.74280885622e-06
-1.66161780267e-08
9.75286429451e-06
-1.3973631532e-08
9.7630906209e-06
-1.14070620288e-08
9.77346468822e-06
-8.94821514614e-09
9.78395920592e-06
-6.62071674739e-09
9.79454418074e-06
-4.44274303932e-09
9.80518743388e-06
-2.42955868257e-09
9.81585706382e-06
-5.95450023661e-10
1.04560059457e-09
9.82652273702e-06
8.41294755337e-06
-2.52659405949e-08
8.42205797679e-06
-3.69000662113e-08
8.43019793793e-06
-3.82896083676e-08
8.4381538365e-06
-3.77159814216e-08
8.44628052517e-06
-3.67318027363e-08
8.45451829973e-06
-3.50503905002e-08
8.46285517339e-06
-3.28515967978e-08
8.47132411661e-06
-3.04228611772e-08
8.47994437159e-06
-2.79131403801e-08
8.48871713201e-06
-2.53878430215e-08
8.49763459456e-06
-2.28898833391e-08
8.50668311066e-06
-2.04543935019e-08
8.51584394256e-06
-1.81078287161e-08
8.52509300565e-06
-1.58685157837e-08
8.53440140115e-06
-1.37499369487e-08
8.54373833709e-06
-1.17653731271e-08
8.55307954415e-06
-9.93531153966e-09
-8.29666569103e-09
8.56242270222e-06
7.32708102574e-06
-3.50613156198e-08
7.33654544441e-06
-4.63631164954e-08
7.34405598872e-06
-4.57988293455e-08
7.35134607657e-06
-4.5004591177e-08
7.3587006691e-06
-4.40850261983e-08
7.36605376776e-06
-4.2402156483e-08
7.37345108139e-06
-4.02475796463e-08
7.38094775856e-06
-3.79182926989e-08
7.38856544986e-06
-3.55297620529e-08
7.39630696717e-06
-3.31282872671e-08
7.40416725041e-06
-3.07491068565e-08
7.41213542252e-06
-2.84214916819e-08
7.42019504084e-06
-2.61663594538e-08
7.42832330228e-06
-2.39957004833e-08
7.43648958265e-06
-2.19151790675e-08
7.44465334526e-06
-1.99282027409e-08
7.45276452574e-06
-1.80454099487e-08
-1.63058847377e-08
7.46077491486e-06
6.38301359442e-06
-4.8007685447e-08
6.39227125915e-06
-5.56194903598e-08
6.39916261071e-06
-5.26889293858e-08
6.40592078271e-06
-5.17613967457e-08
6.41256747578e-06
-5.07304454702e-08
6.41909698855e-06
-4.89306156475e-08
6.42561879514e-06
-4.67681506607e-08
6.43219988968e-06
-4.44982642835e-08
6.43886483383e-06
-4.21937272805e-08
6.44562150321e-06
-3.98840764068e-08
6.45247013656e-06
-3.75966302002e-08
6.45940415201e-06
-3.53546797884e-08
6.46641168799e-06
-3.31730338434e-08
6.47347481909e-06
-3.10578936793e-08
6.48056679264e-06
-2.90063135534e-08
6.48764523138e-06
-2.70058405211e-08
6.49464431954e-06
-2.5043681568e-08
-2.31395702445e-08
6.50147913905e-06
5.56208265637e-06
-6.46245133574e-08
5.56981297148e-06
-6.33484698539e-08
5.57586580143e-06
-5.87405495425e-08
5.58178881957e-06
-5.76827621503e-08
5.58736578486e-06
-5.6305896091e-08
5.59271253903e-06
-5.42762214566e-08
5.59796346256e-06
-5.20178371459e-08
5.60317827704e-06
-4.97119521537e-08
5.60838494648e-06
-4.73994525919e-08
5.61360148212e-06
-4.50996647321e-08
5.61883890421e-06
-4.28329779568e-08
5.6241015394e-06
-4.06163811532e-08
5.62938923078e-06
-3.84599104661e-08
5.63469773004e-06
-3.63655328752e-08
5.64001573492e-06
-3.43235383927e-08
5.64531112357e-06
-3.2300566444e-08
5.65048732565e-06
-3.02189885624e-08
-2.78656083217e-08
5.65521428238e-06
4.84614407113e-06
-8.31598657969e-08
4.84793327672e-06
-6.51362097981e-08
4.84890473495e-06
-5.97105396321e-08
4.84862337228e-06
-5.73994952777e-08
4.8472054488e-06
-5.48862506534e-08
4.84508478155e-06
-5.21542027009e-08
4.8425157653e-06
-4.94474205255e-08
4.83964641394e-06
-4.68413168816e-08
4.83659041652e-06
-4.43423542561e-08
4.83344161071e-06
-4.19497160033e-08
4.83027459338e-06
-3.96646744691e-08
4.82714707809e-06
-3.74877987811e-08
4.82410468951e-06
-3.54165685398e-08
4.82118528217e-06
-3.34451533011e-08
4.81842407869e-06
-3.15614642506e-08
4.81585623717e-06
-2.97319066091e-08
4.81350731209e-06
-2.78691205014e-08
-2.51651151593e-08
4.81080790858e-06
4.11951647782e-06
4.05438038338e-06
3.99467001258e-06
3.93727068711e-06
3.88238457519e-06
3.83023053038e-06
3.7807832683e-06
3.73394209675e-06
3.68959989836e-06
3.64765038211e-06
3.60798588761e-06
3.57049825424e-06
3.53508187089e-06
3.5016369001e-06
3.47007560719e-06
3.44034391259e-06
3.41247506592e-06
3.38731014283e-06
6.65088587019e-08
-6.64662732631e-08
1.02839381109e-07
-3.62903387785e-08
9.89767487182e-08
3.90111511577e-09
5.63006807105e-08
4.27166757618e-08
-3.71069159504e-08
9.3442170237e-08
-1.70910092951e-07
1.33828303717e-07
-3.1568391829e-07
1.44789600546e-07
-4.68958490603e-07
1.53289373959e-07
-6.30120168905e-07
1.61172208463e-07
-7.98382903263e-07
1.68274797462e-07
-9.72940615634e-07
1.74566197375e-07
-1.15301724053e-06
1.80087393102e-07
-1.33790911436e-06
1.84899001449e-07
-1.52696435964e-06
1.89065131584e-07
-1.71960530832e-06
1.9264692206e-07
-1.91529766763e-06
1.95701541014e-07
-2.11357353853e-06
1.9828064199e-07
-2.31399625904e-06
2.00431385251e-07
-2.51618709001e-06
2.02195168158e-07
-2.71978789204e-06
2.03609149413e-07
-2.92448883668e-06
2.04704857048e-07
-3.12999013302e-06
2.05509650489e-07
-3.33603109867e-06
2.06045122961e-07
-3.54235144574e-06
2.06328912475e-07
-3.74871958022e-06
2.06372796162e-07
-3.95489547099e-06
2.0618453886e-07
-4.16065691158e-06
2.05766153761e-07
-4.36576413102e-06
2.05115868863e-07
-4.56998539954e-06
2.04226294337e-07
-4.77306343334e-06
2.03086597278e-07
-4.9747395935e-06
2.01680924304e-07
-5.17472218331e-06
1.99990883767e-07
-5.37271133037e-06
1.9799395187e-07
-5.56836968909e-06
1.95666343659e-07
-5.76134726047e-06
1.92981864111e-07
-5.95125468892e-06
1.89915124427e-07
-6.13769084482e-06
1.86440439756e-07
-6.32021885299e-06
1.82535648542e-07
-6.49839568019e-06
1.78181190291e-07
-6.67175216953e-06
1.73364094082e-07
-6.83982481726e-06
1.68076999869e-07
-7.00213940856e-06
1.6232202812e-07
-7.15824451765e-06
1.56109266237e-07
-7.30769736264e-06
1.49460012296e-07
-7.45009778593e-06
1.42404182976e-07
-7.58507338218e-06
1.3498253108e-07
-7.71231213965e-06
1.27242448404e-07
-7.8315442555e-06
1.19239136695e-07
-7.94257042166e-06
1.11029994884e-07
-8.04523810277e-06
1.02675312482e-07
-8.13946560229e-06
9.42322192088e-08
-8.22521243043e-06
8.57556489871e-08
-8.30249887575e-06
7.72925695652e-08
-8.37137295948e-06
6.88840078639e-08
-8.43192839928e-06
6.05622492011e-08
-8.48427273244e-06
5.23552692307e-08
-8.52854632512e-06
4.42816153181e-08
-8.56489164227e-06
3.63571705313e-08
-8.59347278279e-06
2.85895245805e-08
-8.61445075403e-06
2.09905844912e-08
-8.6280126226e-06
1.35712032431e-08
-8.63433765129e-06
6.33814981322e-09
-8.63361108265e-06
-7.17465912951e-10
-8.62610367201e-06
-7.49401791679e-09
-8.61225827989e-06
-1.3835916868e-08
-8.59256629096e-06
-1.96780150871e-08
-8.56756341839e-06
-2.49929816977e-08
-8.53778639439e-06
-2.97626532236e-08
-8.50378953336e-06
-3.39871046427e-08
-8.46609582015e-06
-3.76794172994e-08
-8.42521318443e-06
-4.08731615081e-08
-8.38158369556e-06
-4.36149554256e-08
-8.33560167948e-06
-4.59722611376e-08
-8.28756040784e-06
-4.80252851492e-08
-8.23767283964e-06
-4.98758626046e-08
-8.18601468545e-06
-5.1638918006e-08
-8.13254580096e-06
-5.34535872593e-08
-8.07704951932e-06
-5.54744691321e-08
-8.01915153793e-06
-5.78819284551e-08
-7.95825660663e-06
-6.08712912147e-08
-7.89357627408e-06
-6.46623096898e-08
-7.82406913554e-06
-6.94818770683e-08
-7.74848359569e-06
-7.55673673919e-08
-7.66531276588e-06
-8.31423228924e-08
-7.57287224642e-06
-9.24178119006e-08
-7.46927929603e-06
-1.03560391828e-07
-7.35256355277e-06
-1.16692094012e-07
-7.2206804069e-06
-1.3185800294e-07
-7.07164211409e-06
-1.49027942879e-07
-6.90357792945e-06
-1.68063186556e-07
-6.71486711043e-06
-1.88701866149e-07
-6.50429887087e-06
-2.10547252472e-07
-6.27120325915e-06
-2.33068310941e-07
-6.01555920527e-06
-2.55613488408e-07
-5.73806954111e-06
-2.77458130671e-07
-5.44018645143e-06
-2.97850847366e-07
-5.12408442695e-06
-3.16069438109e-07
-4.79257984213e-06
-3.31470883469e-07
-4.44897232571e-06
-3.43572129219e-07
-4.09687569919e-06
-3.52057147322e-07
-3.74007521424e-06
-3.56754169973e-07
-3.38231080033e-06
-3.5769259866e-07
-3.02717489624e-06
-3.55048508541e-07
-2.67802951621e-06
-3.49015093923e-07
-2.33787101424e-06
-3.40032369788e-07
-2.00930278622e-06
-3.28414158399e-07
-1.6947556663e-06
-3.14429007524e-07
-1.39576616457e-06
-2.98859126316e-07
-1.1154088967e-06
-2.80273235045e-07
-8.52412720766e-07
-2.62871731986e-07
-6.21977229099e-07
-2.30339514935e-07
-4.25138341644e-07
-1.9670685647e-07
-1.95590658276e-07
-2.29420490417e-07
8.73586060273e-08
-2.82800831357e-07
3.71233467471e-07
-2.83804968525e-07
6.15935220119e-07
-2.44620318723e-07
8.23505266382e-07
-2.07544609135e-07
1.002884928e-06
-1.7934603025e-07
1.1599632444e-06
-1.5709423791e-07
1.29852428615e-06
-1.38541569822e-07
1.4210335525e-06
-1.22480122713e-07
1.52932786121e-06
-1.08197744936e-07
1.62474119586e-06
-9.53253387142e-08
1.70843802006e-06
-8.3588899352e-08
1.78134666503e-06
-7.28567412752e-08
1.84437790224e-06
-6.29788206492e-08
1.89827202935e-06
-5.3894849346e-08
1.94378210242e-06
-4.55027763825e-08
1.98151926498e-06
-3.77715252485e-08
2.01212167615e-06
-3.06234510179e-08
2.03610920924e-06
-2.40425179538e-08
2.05404021674e-06
-1.79712343979e-08
2.06638790345e-06
-1.24168676428e-08
2.07371514677e-06
-7.38302265384e-09
2.07667900964e-06
-3.04554229849e-09
2.076067405e-06
5.40162732263e-10
2.07237128056e-06
3.60024759127e-09
2.06586313554e-06
6.41148122272e-09
2.05673382697e-06
9.00435491634e-09
2.04524687548e-06
1.13592274597e-08
2.03165167423e-06
1.34654701477e-08
2.01619337427e-06
1.53466493413e-08
1.99907706951e-06
1.70205106778e-08
1.98048978774e-06
1.85078847632e-08
1.9605968697e-06
1.98215543179e-08
1.93955623861e-06
2.09780640134e-08
1.91750974686e-06
2.19874514131e-08
1.89459255647e-06
2.2863319611e-08
1.8709259528e-06
2.36138000314e-08
1.84662552142e-06
2.42503545565e-08
1.82179525472e-06
2.47795769947e-08
1.79653451732e-06
2.52113584888e-08
1.77093271757e-06
2.55511491205e-08
1.74507554361e-06
2.58074981049e-08
1.7190397401e-06
2.59850864214e-08
1.69289891982e-06
2.60914413693e-08
1.66671866478e-06
2.61305051032e-08
1.64056169679e-06
2.61091098427e-08
1.61448283473e-06
2.60312985347e-08
1.5885340136e-06
2.5903519799e-08
1.56275967408e-06
2.57297565916e-08
1.53720069347e-06
2.55167327688e-08
1.51188997385e-06
2.52693744756e-08
1.48685595334e-06
2.49948612323e-08
1.46211776392e-06
2.46999766958e-08
1.43768725768e-06
2.43941979336e-08
1.4135639576e-06
2.40878881395e-08
1.38973526538e-06
2.37947860904e-08
1.36617089392e-06
2.35312005668e-08
1.34281902594e-06
2.33196756573e-08
1.31959695937e-06
2.31903367888e-08
1.29638072277e-06
2.31848681299e-08
1.27298693015e-06
2.33625926023e-08
1.24914389182e-06
2.38116689559e-08
1.22444323597e-06
2.46694076434e-08
1.19825188793e-06
2.61598184318e-08
1.16954546886e-06
2.86753572783e-08
1.13644201273e-06
3.30714420268e-08
1.0956184878e-06
4.07900273376e-08
6.6232532318e-08
1.02934828162e-06
-3.21825191945e-08
-3.42401347241e-08
-1.15056114128e-07
4.66160061451e-08
-2.30357742923e-07
1.19222042478e-07
-3.54409859093e-07
1.66782261618e-07
-4.71571927002e-07
2.1061473362e-07
-5.86823147051e-07
2.49089073904e-07
-7.19165215882e-07
2.77139948545e-07
-8.65201446309e-07
2.9933415269e-07
-1.02171390387e-06
3.17692065607e-07
-1.18661692365e-06
3.33185883228e-07
-1.35843586243e-06
3.46391888017e-07
-1.53603379369e-06
3.57693096902e-07
-1.7184942873e-06
3.67365676779e-07
-1.90504386262e-06
3.75622139273e-07
-2.0950255023e-06
3.82634117012e-07
-2.28786205081e-06
3.88545120923e-07
-2.48305417528e-06
3.93477646015e-07
-2.68015384601e-06
3.97537616386e-07
-2.87877103272e-06
4.00816777187e-07
-3.07854983329e-06
4.03394427229e-07
-3.27917888942e-06
4.05338138925e-07
-3.48036758297e-06
4.06704622778e-07
-3.68185769094e-06
4.07539704329e-07
-3.88340086627e-06
4.07878749026e-07
-4.08476986838e-06
4.07746584921e-07
-4.2857364565e-06
4.07157860381e-07
-4.48608206357e-06
4.06116900059e-07
-4.68557725631e-06
4.04618164255e-07
-4.88399182522e-06
4.02646333994e-07
-5.08107526979e-06
4.00177115486e-07
-5.27656639568e-06
3.97177634839e-07
-5.47017598161e-06
3.93607616966e-07
-5.66159677176e-06
3.89420311751e-07
-5.85048790158e-06
3.84564393782e-07
-6.03648604414e-06
3.78985443613e-07
-6.21919270403e-06
3.72628562585e-07
-6.39818743088e-06
3.65440585144e-07
-6.57301846044e-06
3.57373432181e-07
-6.74321863419e-06
3.48386837187e-07
-6.90830000846e-06
3.38452143419e-07
-7.06777260899e-06
3.27555004302e-07
-7.22114287739e-06
3.15698757601e-07
-7.36793461603e-06
3.02906182062e-07
-7.50768985607e-06
2.89221398907e-07
-7.63999029785e-06
2.74709459371e-07
-7.76445753586e-06
2.59455568225e-07
-7.88077205005e-06
2.43561634573e-07
-7.98866968263e-06
2.27142634475e-07
-8.08795584122e-06
2.10320996641e-07
-8.17849598414e-06
1.93221598409e-07
-8.26022279438e-06
1.75964691296e-07
-8.33312144759e-06
1.58661628326e-07
-8.39723045046e-06
1.41408344894e-07
-8.45262597526e-06
1.2428767176e-07
-8.49942356782e-06
1.07367677833e-07
-8.53775900171e-06
9.07001591411e-08
-8.56779206477e-06
7.43236572909e-08
-8.58968188158e-06
5.82572796523e-08
-8.60361288173e-06
4.25304882755e-08
-8.60979022457e-06
2.71793539799e-08
-8.60842678821e-06
1.22186344453e-08
-8.59973859965e-06
-2.33804218071e-09
-8.58420321741e-06
-1.62415393201e-08
-8.56246201102e-06
-2.92227526269e-08
-8.53503129904e-06
-4.12547862586e-08
-8.50238017728e-06
-5.23160803317e-08
-8.4649860791e-06
-6.23747893245e-08
-8.42332185855e-06
-7.14136451145e-08
-8.37785715279e-06
-7.94397160014e-08
-8.32903850872e-06
-8.64852473762e-08
-8.27728805432e-06
-9.26119049977e-08
-8.22298062024e-06
-9.79095470161e-08
-8.16644198889e-06
-1.02498895866e-07
-8.10792389327e-06
-1.06529618042e-07
-8.04760125046e-06
-1.1018441266e-07
-7.98554426006e-06
-1.13679018174e-07
-7.92171199269e-06
-1.17268972783e-07
-7.85591728726e-06
-1.21250415207e-07
-7.78781476882e-06
-1.25965915067e-07
-7.71686320429e-06
-1.31801957003e-07
-7.64231696883e-06
-1.39188486955e-07
-7.56319227552e-06
-1.48584553549e-07
-7.47827237235e-06
-1.60465379646e-07
-7.38609340466e-06
-1.75295563886e-07
-7.28498051558e-06
-1.93504363831e-07
-7.17306384907e-06
-2.15447565285e-07
-7.04834639204e-06
-2.41380710031e-07
-6.90875547188e-06
-2.71424811855e-07
-6.75223445894e-06
-3.0553888822e-07
-6.57682439556e-06