/*--------------------------------*- C++ -*----------------------------------*\
| =========                 |                                                 |
| \\      /  F ield         | OpenFOAM: The Open Source CFD Toolbox           |
|  \\    /   O peration     | Version:  v1806                                 |
|   \\  /    A nd           | Web:      www.OpenFOAM.com                      |
|    \\/     M anipulation  |                                                 |
\*---------------------------------------------------------------------------*/
FoamFile
{
    version     2.0;
    format      ascii;
    class       surfaceScalarField;
    location    "19";
    object      phia;
}
// * * * * * * * * * * * * * * * * * * * * * * * * * * * * * * * * * * * * * //

dimensions      [0 3 -1 0 0 0 0];
oriented        oriented;


internalField   nonuniform List<scalar> 
24170
(
2.04711837588e-07
1.16059423403e-07
2.70841406474e-07
-6.45406483618e-08
2.61981170315e-07
8.88356487375e-09
2.70693195945e-07
-9.69073822137e-09
2.79343969525e-07
-9.92325667499e-09
2.8965075999e-07
-1.02062226466e-08
3.00626790127e-07
-1.10965892093e-08
3.13179675971e-07
-1.10460828418e-08
3.26074056407e-07
-1.14203411166e-08
3.39925370079e-07
-1.17137040395e-08
3.54869517699e-07
-1.29906488981e-08
3.7367301153e-07
-1.71192366911e-08
4.0211415277e-07
-2.70521229981e-08
4.4628801057e-07
-4.31695408643e-08
5.02697997753e-07
-5.56859119294e-08
5.4780701996e-07
-4.47221570696e-08
6.05313886949e-07
-5.74206143918e-08
-5.41659559033e-07
1.14689708204e-06
7.28297499512e-07
-2.63673031346e-07
3.65322901185e-07
3.01728915935e-07
4.22406045364e-07
-4.81933417045e-08
4.33082414913e-07
-2.18688773402e-08
4.49342279687e-07
-2.7965949147e-08
4.66478890684e-07
-2.79220574953e-08
4.8505744825e-07
-2.98456155826e-08
5.05426783895e-07
-2.99828820502e-08
5.26818606731e-07
-3.09064128191e-08
5.49760056321e-07
-3.21171827472e-08
5.74663125597e-07
-3.5517870071e-08
6.03609159949e-07
-4.40902076614e-08
6.39184357521e-07
-6.11401792882e-08
6.81182779671e-07
-8.41470276959e-08
7.21348094559e-07
-9.51903060822e-08
7.55605820684e-07
-7.8639244193e-08
8.44799971326e-07
-1.46566639589e-07
-6.60005122854e-07
9.63145634701e-07
-1.0959355285e-07
2.11196753301e-07
4.30249580911e-07
-2.38924859933e-07
3.44559018807e-07
3.65415149444e-08
3.61729280745e-07
-4.0174799398e-08
3.60049610084e-07
-2.73940040087e-08
3.66590307097e-07
-3.46494681176e-08
3.71355438807e-07
-3.48412793763e-08
3.78319531027e-07
-3.63538226217e-08
3.86016502724e-07
-3.8073623452e-08
3.95540754703e-07
-4.08669022027e-08
4.07741038579e-07
-4.7068361642e-08
4.24897293152e-07
-6.0694831548e-08
4.48711877734e-07
-8.45064364748e-08
4.77713769102e-07
-1.1282421371e-07
5.09101775943e-07
-1.26355103568e-07
5.6114650858e-07
-1.30576406116e-07
6.75232877053e-07
-2.60637270558e-07
-6.81825378312e-07
6.97157327312e-07
7.65695288706e-07
-1.58647885778e-07
3.16629662674e-07
2.10728524717e-07
4.3536020614e-07
-8.36221962365e-08
4.23846988169e-07
-3.08375258652e-08
4.37257958884e-07
-4.29045615935e-08
4.44249036281e-07
-4.28010171011e-08
4.53674363554e-07
-4.48552596684e-08
4.63498391495e-07
-4.57571001623e-08
4.73836436544e-07
-4.76037227051e-08
4.85003259462e-07
-5.09043693585e-08
4.97587455751e-07
-5.8602374712e-08
5.12368052599e-07
-7.46046688544e-08
5.2852111172e-07
-1.0001149802e-07
5.42770484356e-07
-1.26631148792e-07
5.57381520802e-07
-1.40692380281e-07
5.95584913908e-07
-1.68644059193e-07
6.58316070691e-07
-3.23325250215e-07
-6.29532637461e-07
6.0607152242e-07
-7.65248090942e-09
2.66688290731e-07
4.72753104233e-07
-2.71773108618e-07
4.06280443972e-07
-1.86100044105e-08
4.16764269425e-07
-4.23297648955e-08
4.21310792384e-07
-4.82621649664e-08
4.29919589531e-07
-5.16257487469e-08
4.38858883518e-07
-5.39766630599e-08
4.49682723311e-07
-5.63984057305e-08
4.62045905554e-07
-5.98421891841e-08
4.76755799877e-07
-6.54222784129e-08
4.94415467791e-07
-7.61239371627e-08
5.14980148434e-07
-9.50378132187e-08
5.36287527622e-07
-1.21196160158e-07
5.55565998558e-07
-1.45802727265e-07
5.78480454946e-07
-1.63521328498e-07
6.19528164222e-07
-2.0963376026e-07
6.50974508818e-07
-3.54727704e-07
-5.61020757477e-07
5.82603891871e-07
7.7047712504e-07
-5.41979751436e-08
4.26009751779e-07
7.09198602679e-08
4.54840932331e-07
-4.92869753408e-08
4.67176515067e-07
-5.64248319787e-08
4.71801070649e-07
-5.42898372337e-08
4.7874433229e-07
-5.93905498325e-08
4.85716459828e-07
-6.13228112332e-08
4.93879409585e-07
-6.44721638726e-08
5.03136331048e-07
-6.88067638393e-08
5.14389516683e-07
-7.62717105455e-08
5.28186544845e-07
-8.95364184395e-08
5.44062122939e-07
-1.10563816074e-07
5.59955481868e-07
-1.36797359265e-07
5.75501919903e-07
-1.61112466851e-07
5.9789129465e-07
-1.85729255835e-07
6.31089586781e-07
-2.42695913221e-07
6.40677909524e-07
-3.64196380916e-07
-5.00024313001e-07
5.79785663744e-07
2.94923301994e-07
1.30639837873e-07
4.9084398124e-07
-1.27507177752e-07
4.83035787027e-07
-4.28969935452e-08
4.8817080679e-07
-6.22745407357e-08
4.95709788696e-07
-6.21639875609e-08
5.03745611774e-07
-6.74601071725e-08
5.12534372852e-07
-7.0089782044e-08
5.22305041597e-07
-7.41533568607e-08
5.33180362495e-07
-7.96508107652e-08
5.45653397952e-07
-8.87293338607e-08
5.59706986597e-07
-1.03583327102e-07
5.74234651288e-07
-1.25057194763e-07
5.87558593326e-07
-1.50056678542e-07
6.00977778655e-07
-1.74443085596e-07
6.20121697171e-07
-2.04772037186e-07
6.41294424293e-07
-2.63762584396e-07
6.36310344513e-07
-3.59119048068e-07
-4.49413170832e-07
5.85938497705e-07
5.73724120135e-07
7.11581143147e-08
5.12015931147e-07
-6.84627431933e-08
5.18278862181e-07
-5.08070348912e-08
5.25464378765e-07
-7.04163401914e-08
5.31463208444e-07
-6.86850739013e-08
5.38639907504e-07
-7.47934737434e-08
5.46574431311e-07
-7.79826231759e-08
5.5567887266e-07
-8.30718474185e-08
5.66104755743e-07
-8.98631543115e-08
5.78091012306e-07
-1.00492883049e-07
5.9116598799e-07
-1.16448608386e-07
6.0396901005e-07
-1.37642237015e-07
6.15437065652e-07
-1.61305512251e-07
6.27302463791e-07
-1.86095188101e-07
6.42090108504e-07
-2.19353755919e-07
6.52423982022e-07
-2.73917920754e-07
6.39460469445e-07
-3.45929331459e-07
-4.07364715614e-07
5.97634891827e-07
5.3678067965e-07
8.67103969546e-08
5.54305416016e-07
-8.80367977862e-08
5.5719729934e-07
-5.47997017111e-08
5.6289832223e-07
-7.65114118351e-08
5.69074907437e-07
-7.48789009044e-08
5.75882143947e-07
-8.14312075593e-08
5.83480157613e-07
-8.53921201253e-08
5.92092206343e-07
-9.15274467469e-08
6.01911957455e-07
-9.95871341748e-08
6.12915009295e-07
-1.11437509661e-07
6.24389840476e-07
-1.27858684349e-07
6.35108106624e-07
-1.48271617228e-07
6.44633655195e-07
-1.70711150149e-07
6.54313031191e-07
-1.95627818529e-07
6.63976566686e-07
-2.28858973687e-07
6.65981766556e-07
-2.75750195351e-07
6.49333061928e-07
-3.29078147313e-07
-3.71666312656e-07
6.13885519214e-07
5.93079835796e-07
8.51874988597e-08
5.92905820419e-07
-9.01882089743e-08
5.98662093568e-07
-6.17133568215e-08
6.0335772321e-07
-8.16519906758e-08
6.09313821521e-07
-8.08226884036e-08
6.15632233569e-07
-8.75311434323e-08
6.22790210955e-07
-9.22235557441e-08
6.30823587062e-07
-9.92305031865e-08
6.39852229951e-07
-1.08309744682e-07
6.49603986813e-07
-1.20898706556e-07
6.59260335153e-07
-1.37255755731e-07
6.6786926893e-07
-1.56630107548e-07
6.75323135868e-07
-1.77924570601e-07
6.82184983836e-07
-2.02251646233e-07
6.86732089974e-07
-2.33180347442e-07
6.82807249741e-07
-2.71614475194e-07
6.64721971474e-07
-3.10759400403e-07
-3.40634405457e-07
6.33979515047e-07
6.36298119288e-07
8.45843971202e-08
6.36878842786e-07
-9.22697061754e-08
6.42904669426e-07
-6.85862884351e-08
6.46900843819e-07
-8.5886078058e-08
6.52388011831e-07
-8.62433161732e-08
6.58105839595e-07
-9.29922570571e-08
6.64630005148e-07
-9.848195772e-08
6.71875172808e-07
-1.06218273293e-07
6.79834913111e-07
-1.1604565524e-07
6.88064755123e-07
-1.28937791232e-07
6.95780313702e-07
-1.447806627e-07
7.02280577099e-07
-1.62938619131e-07
7.07494360134e-07
-1.82931925873e-07
7.11221984848e-07
-2.05774547425e-07
7.11238784999e-07
-2.32994525e-07
7.0330552745e-07
-2.63481632244e-07
6.84864479827e-07
-2.92063300648e-07
-3.13138750553e-07
6.57587929486e-07
5.73231489972e-07
8.33174476613e-08
5.73731811072e-07
-9.42217355579e-08
5.78690286977e-07
-7.43453712197e-08
5.8158029478e-07
-8.90448958202e-08
5.85755877433e-07
-9.04251654817e-08
5.90042716007e-07
-9.71208228241e-08
5.94947000492e-07
-1.03206249412e-07
6.0030808765e-07
-1.11400657407e-07
6.06022549746e-07
-1.21631601103e-07
6.11667578081e-07
-1.34453805814e-07
6.16651869941e-07
-1.49633366503e-07
6.20505837604e-07
-1.66729024512e-07
6.23069163148e-07
-1.85453157186e-07
6.23817599822e-07
-2.06437901139e-07
6.21002491824e-07
-2.30128236022e-07
6.12342791461e-07
-2.5472500736e-07
5.96906936288e-07
-2.76550506802e-07
-2.92027613e-07
5.75996270038e-07
7.00216127693e-07
8.18874052347e-08
7.00131699033e-07
-9.50115273324e-08
7.05221657347e-07
-7.99499982116e-08
7.08075680691e-07
-9.22066909352e-08
7.12218326153e-07
-9.46198431897e-08
7.16426039919e-07
-1.01321039348e-07
7.21209192215e-07
-1.07905866664e-07
7.26307132703e-07
-1.16440224014e-07
7.31534936837e-07
-1.2677843256e-07
7.36391436559e-07
-1.39218599744e-07
7.40269013461e-07
-1.53535591847e-07
7.42756121159e-07
-1.69243560229e-07
7.43516642624e-07
-1.86248310516e-07
7.41729259554e-07
-2.04743810347e-07
7.35881547437e-07
-2.24311721141e-07
7.24377222876e-07
-2.4332269419e-07
7.07065251846e-07
-2.59146281335e-07
-2.69980095505e-07
6.84994865503e-07
8.54252133827e-07
7.97437877945e-08
8.54118721777e-07
-9.56242022422e-08
8.58761959721e-07
-8.53162194982e-08
8.61398906611e-07
-9.5048576712e-08
8.65099763943e-07
-9.86422584404e-08
8.68884066814e-07
-1.05146462532e-07
8.7304540687e-07
-1.12204317018e-07
8.77330089169e-07
-1.20754805021e-07
8.81400798902e-07
-1.30908793405e-07
8.84709237954e-07
-1.42655132138e-07
8.86770005676e-07
-1.55643539963e-07
8.87064575659e-07
-1.69689357119e-07
8.8514034137e-07
-1.84462707012e-07
8.80130733096e-07
-1.99869366085e-07
8.7081958339e-07
-2.15170120083e-07
8.56460843194e-07
-2.29047501604e-07
8.37118520835e-07
-2.39961518437e-07
-2.46842096176e-07
8.1402950064e-07
1.0420156206e-06
7.68905391416e-08
1.04148258761e-06
-9.61045745525e-08
1.04535587036e-06
-8.97512243721e-08
1.04698570444e-06
-9.73487266747e-08
1.04977514744e-06
-1.01599983398e-07
1.05235566822e-06
-1.08084988251e-07
1.05521736174e-06
-1.15164910771e-07
1.05778473481e-06
-1.2355581606e-07
1.05977420515e-06
-1.33090645975e-07
1.06068233579e-06
-1.43668191384e-07
1.05991176994e-06
-1.55108772645e-07
1.05713548101e-06
-1.67001105262e-07
1.05166657044e-06
-1.79191411258e-07
1.04289941948e-06
-1.91177918913e-07
1.02995540593e-06
-2.02441163863e-07
1.01270415632e-06
-2.11895973576e-07
9.91444998418e-07
-2.1885707454e-07
-2.22687296715e-07
9.67161985891e-07
1.27378037654e-06
6.95088462409e-08
1.27057246468e-06
-9.38990949633e-08
1.27238872115e-06
-9.25008597376e-08
1.27241730437e-06
-9.78612577619e-08
1.27317146923e-06
-1.02804669403e-07
1.27377482196e-06
-1.0886693295e-07
1.27416222505e-06
-1.15809433315e-07
1.2739870582e-06
-1.23547246198e-07
1.27281535691e-06
-1.320721021e-07
1.27011996177e-06
-1.41190241684e-07
1.26560574714e-06
-1.5064093302e-07
1.25864629585e-06
-1.6021440425e-07
1.24900376307e-06
-1.6952466645e-07
1.23589430219e-06
-1.78282827146e-07
1.21934557568e-06
-1.85884143407e-07
1.19904555071e-06
-1.91878259026e-07
1.17592076419e-06
-1.95744226304e-07
-1.97428132739e-07
1.15035015828e-06
1.55599327657e-06
5.80418837055e-08
1.54913224973e-06
-8.80643425397e-08
1.54722376681e-06
-9.13154204043e-08
1.54434970192e-06
-9.54459806227e-08
1.5418791028e-06
-1.00563903552e-07
1.53910218597e-06
-1.06196307997e-07
1.53581763653e-06
-1.12569733818e-07
1.53158413976e-06
-1.19355075697e-07
1.52598888811e-06
-1.26526944546e-07
1.51865907041e-06
-1.3388316242e-07
1.50921987299e-06
-1.41236523363e-07
1.49735256847e-06
-1.48370682509e-07
1.48272936869e-06
-1.54976999448e-07
1.46518331582e-06
-1.60810661056e-07
1.44464922229e-06
-1.65510414144e-07
1.4214543466e-06
-1.68826184209e-07
1.39595446371e-06
-1.70508106132e-07
-1.70414500867e-07
1.36877299128e-06
1.88255593885e-06
5.71946428523e-08
1.88616559051e-06
-9.28470041459e-08
1.87976120928e-06
-8.59477945187e-08
1.87231584554e-06
-8.81892500247e-08
1.86498857133e-06
-9.32750493548e-08
1.85746791938e-06
-9.8456762878e-08
1.84918309348e-06
-1.04040763491e-07
1.83971225327e-06
-1.09641784364e-07
1.82865168253e-06
-1.15287646441e-07
1.81574636262e-06
-1.20827836394e-07
1.80064275041e-06
-1.26120326629e-07
1.78334420712e-06
-1.31022765825e-07
1.76351393843e-06
-1.35310327588e-07
1.74149263583e-06
-1.38840815222e-07
1.71709142432e-06
-1.41427985527e-07
1.6910919828e-06
-1.42992320853e-07
1.66364197558e-06
-1.43537923406e-07
-1.43445259127e-07
1.63640074034e-06
2.39546878025e-06
-4.46721204999e-08
2.30690529208e-06
-7.28886619915e-09
2.28025436861e-06
-6.01692433956e-08
2.26401334342e-06
-7.29198053256e-08
2.25012913046e-06
-7.93296428548e-08
2.23613439166e-06
-8.42372289937e-08
2.22132028147e-06
-8.86131650055e-08
2.20502256097e-06
-9.28776518868e-08
2.18694604228e-06
-9.67583334255e-08
2.16696324254e-06
-1.00533320397e-07
2.14479473438e-06
-1.03875185365e-07
2.12081004189e-06
-1.06907466633e-07
2.09459795159e-06
-1.09343778658e-07
2.06697820075e-06
-1.11229027173e-07
2.03747915334e-06
-1.12402743051e-07
2.00719131548e-06
-1.12847526543e-07
1.97531598126e-06
-1.12314945637e-07
-1.09723837177e-07
1.94128009567e-06
1.46965942932e-06
1.60098228114e-07
1.65071254466e-06
-1.92220934055e-07
1.6631899512e-06
-7.71777185225e-08
1.65606375541e-06
-6.73700807258e-08
1.64571636943e-06
-7.00890743753e-08
1.63509158059e-06
-7.33148775842e-08
1.62295797614e-06
-7.67544846812e-08
1.61053084234e-06
-7.95709479835e-08
1.596136103e-06
-8.25973536144e-08
1.5813920017e-06
-8.50549070849e-08
1.56469701246e-06
-8.75360760755e-08
1.54761186397e-06
-8.93960660756e-08
1.5288784391e-06
-9.10275940438e-08
1.50987934159e-06
-9.20043253554e-08
1.48967202985e-06
-9.25638677355e-08
1.46932148072e-06
-9.237178002e-08
1.44867410846e-06
-9.19493224649e-08
-9.36170156186e-08
1.43267044596e-06
1.92016571387e-06
-2.98932812917e-07
1.4861638691e-06
2.37422503915e-07
1.43915333132e-06
-3.05953355687e-08
1.42874154069e-06
-5.95729952949e-08
1.41946727699e-06
-6.16541136595e-08
1.40870544361e-06
-6.37256479053e-08
1.39750399665e-06
-6.50462367567e-08
1.38449041092e-06
-6.69559678176e-08
1.37099769102e-06
-6.85817155009e-08
1.35595778722e-06
-7.03236523945e-08
1.34048287633e-06
-7.18175130507e-08
1.32400551082e-06
-7.3282678438e-08
1.30747236493e-06
-7.44322547337e-08
1.29044268955e-06
-7.53283840702e-08
1.27380671366e-06
-7.59402950524e-08
1.25775821381e-06
-7.66125165382e-08
1.24285610717e-06
-7.70940963372e-08
-7.34842307576e-08
1.22249678024e-06
4.55559814289e-07
5.16384265317e-07
1.23995557232e-06
-5.47278604482e-07
1.28181671123e-06
-7.58273987146e-08
1.26995859165e-06
-4.79653080322e-08
1.25959684904e-06
-5.18986661961e-08
1.24915507133e-06
-5.27543469402e-08
1.23753990296e-06
-5.37432345181e-08
1.22531042473e-06
-5.46050380621e-08
1.21228693008e-06
-5.56450471124e-08
1.19868223077e-06
-5.67016059861e-08
1.18444747866e-06
-5.76295675715e-08
1.16944367117e-06
-5.84124382659e-08
1.15375849572e-06
-5.88796067714e-08
1.13741408702e-06
-5.91389126756e-08
1.12016930238e-06
-5.88532805541e-08
1.10094678415e-06
-5.75167340941e-08
1.07855226365e-06
-5.48573375244e-08
-5.61457352061e-08
1.06112284196e-06
2.36542982973e-06
-7.36372375079e-07
1.10613299008e-06
7.13474174993e-07
1.07468524793e-06
-4.12193815846e-08
1.08403416302e-06
-5.68668416102e-08
1.08023836642e-06
-4.75086546389e-08
1.07396073504e-06
-4.67006004675e-08
1.06659826955e-06
-4.61407327362e-08
1.058787648e-06
-4.67404149512e-08
1.0507008087e-06
-4.75649061788e-08
1.04269099651e-06
-4.86215202166e-08
1.03462487369e-06
-4.96973065571e-08
1.02678011742e-06
-5.05452074162e-08
1.01898074138e-06
-5.1228450739e-08
1.01151417107e-06
-5.16741862821e-08
1.00460880273e-06
-5.20730233045e-08
1.00006416474e-06
-5.30202543263e-08
1.00026535131e-06
-5.51355834839e-08
-5.15278064793e-08
9.95619766375e-07
-7.48068340718e-07
9.81258370634e-07
1.03926994974e-06
-1.06993107227e-06
1.0061829072e-06
-7.14753429828e-09
9.75693087473e-07
-2.41566405093e-08
9.63039596903e-07
-3.36262298001e-08
9.51068823856e-07
-3.35798588101e-08
9.38165880399e-07
-3.30737526493e-08
9.23987185358e-07
-3.25330841174e-08
9.08859892831e-07
-3.2492312554e-08
8.92817458651e-07
-3.26659597638e-08
8.76050405766e-07
-3.29635173503e-08
8.58798100487e-07
-3.33418427191e-08
8.41307939945e-07
-3.37166099119e-08
8.23659932509e-07
-3.40549189829e-08
8.05969668325e-07
-3.43939392716e-08
7.8692111243e-07
-3.39827805364e-08
7.63685168825e-07
-3.18922442475e-08
-3.78106358042e-08
7.49984585303e-07
2.97514563642e-06
-1.14558488031e-06
6.98294446399e-07
1.21239762538e-06
8.20615447112e-07
-1.24866139605e-07
8.43222588824e-07
-4.38712427916e-08
8.46744354385e-07
-3.58349254322e-08
8.43739487714e-07
-3.01988095001e-08
8.41032167171e-07
-2.9845608089e-08
8.38443215353e-07
-2.98179243922e-08
8.35978007249e-07
-3.00630386446e-08
8.33752666674e-07
-3.04936083477e-08
8.31622564287e-07
-3.08901869829e-08
8.29473273084e-07
-3.12356687788e-08
8.27222847734e-07
-3.14590543027e-08
8.24621853199e-07
-3.14248272474e-08
8.21431859489e-07
-3.1164775445e-08
8.18969361237e-07
-3.14873996147e-08
8.20817487227e-07
-3.37013192139e-08
-2.45425776889e-08
8.07619275993e-07
-1.41265259039e-06
1.0067338309e-06
1.00635987021e-06
-1.20068973586e-06
7.35666649102e-07
1.49521489439e-07
7.38436960697e-07
-4.36682812505e-08
7.13853852483e-07
-8.82902324504e-09
7.05627115283e-07
-2.0707817958e-08
6.92906970372e-07
-1.67118746067e-08
6.80559467553e-07
-1.73701159663e-08
6.67682924434e-07
-1.72416786107e-08
6.54643590734e-07
-1.75471683245e-08
6.41500471806e-07
-1.78262060878e-08
6.28200846315e-07
-1.79230628558e-08
6.14840660858e-07
-1.80813576089e-08
6.01575199669e-07
-1.81274589893e-08
5.88529797871e-07
-1.80779334944e-08
5.74243099609e-07
-1.71421175376e-08
5.54018144424e-07
-1.33983181342e-08
-2.32467147203e-08
5.52791925914e-07
2.34767259356e-06
-6.96498329831e-07
3.24609149938e-07
8.27997841883e-07
7.21525200565e-07
-2.43540872703e-07
6.67917309632e-07
1.61857912696e-08
6.89108577628e-07
-3.03523784298e-08
6.78833782879e-07
-9.6127028376e-09
6.77747494683e-07
-1.50290004872e-08
6.73737724442e-07
-1.31464636008e-08
6.70229199851e-07
-1.37016231726e-08
6.66451421426e-07
-1.37875271521e-08
6.62758919851e-07
-1.39769128414e-08
6.58943149446e-07
-1.42511118936e-08
6.55370432934e-07
-1.45133680985e-08
6.52077849403e-07
-1.48123879118e-08
6.49118982429e-07
-1.50855283242e-08
6.48208092142e-07
-1.61830578126e-08
6.55895434816e-07
-2.10430082563e-08
-1.00207896092e-08
6.4273342137e-07
-7.82399707753e-07
6.48378362966e-07
8.26312662072e-07
-7.74990477095e-07
4.96937050291e-07
9.12071400695e-08
5.50282195737e-07
-3.1138391462e-08
5.20257962893e-07
1.10261051564e-09
5.19834671276e-07
-8.3853114761e-09
5.1026166597e-07
-4.73094481207e-09
5.03326750701e-07
-5.91498219516e-09
4.95419757417e-07
-5.71485365115e-09
4.87860048953e-07
-6.06477499564e-09
4.80289416901e-07
-6.31878247931e-09
4.72738355933e-07
-6.72475636762e-09
4.65340498481e-07
-7.16597850835e-09
4.58107497557e-07
-7.57562980267e-09
4.50919292517e-07
-7.88501901788e-09
4.42030381395e-07
-7.277055959e-09
4.22457125159e-07
-1.41979856333e-09
-1.50521678543e-08
4.2753065111e-07
1.335390722e-06
-1.95497252751e-07
4.66228610659e-07
1.00814206207e-07
6.06260641625e-07
-4.25099850607e-08
5.7734213519e-07
4.69442638752e-09
5.84002147807e-07
-3.58706538563e-09
5.77923050745e-07
-1.27727556962e-09
5.76101426758e-07
-2.08986798136e-09
5.72636309939e-07
-2.07893769018e-09
5.69410237486e-07
-2.32597036621e-09
5.65957394719e-07
-2.41862607895e-09
5.62338324922e-07
-2.55063503837e-09
5.58302410833e-07
-2.72161052819e-09
5.53931156313e-07
-2.84414579193e-09
5.49106065768e-07
-2.75755264581e-09
5.43443651017e-07
-2.21760638298e-09
5.38645138892e-07
-2.45405596313e-09
5.44985485446e-07
-7.72144806374e-09
1.02048152257e-08
5.19778203278e-07
2.25278620277e-07
3.2659101982e-07
2.8474374615e-07
2.89638849424e-07
2.8615961882e-07
2.84980845148e-07
2.82940652429e-07
2.80882767232e-07
2.78583855429e-07
2.7619313962e-07
2.73638874076e-07
2.70906717702e-07
2.68060657455e-07
2.65303695871e-07
2.63089974415e-07
2.60644287271e-07
2.5293449923e-07
2.63159856894e-07
-6.56253523811e-08
6.10805490498e-08
-1.34820786116e-07
6.08639398219e-08
-1.61961816406e-07
2.86632181664e-08
-1.78145966987e-07
1.32648410848e-08
-1.96925001233e-07
2.42095953142e-08
-2.21011792347e-07
2.63689005811e-08
-2.34011757288e-07
1.80058879275e-08
-2.44698816627e-07
1.42867106267e-08
-2.5299125013e-07
1.17518115914e-08
-2.59298162991e-07
9.5027356993e-09
-2.64701999808e-07
7.39785889905e-09
-2.68155813973e-07
5.53908539157e-09
-2.71337652343e-07
4.01738256797e-09
-2.73310188533e-07
2.94098776263e-09
-2.7547747501e-07
2.27397457342e-09
-2.77291698332e-07
1.98882840928e-09
-2.79518201153e-07
1.98372671628e-09
-2.81956534109e-07
2.17634501534e-09
-2.84800331075e-07
2.48852956248e-09
-2.88090891086e-07
2.84123797354e-09
-2.91632304184e-07
3.2047247234e-09
-2.95628941509e-07
3.51210888341e-09
-2.99693717044e-07
3.77185349195e-09
-3.04081983104e-07
3.92946928474e-09
-3.08322103724e-07
4.01128195632e-09
-3.12704567337e-07
3.97112882192e-09
-3.16719901408e-07
3.8537346541e-09
-3.20700387548e-07
3.61870958848e-09
-3.24123665197e-07
3.31763616647e-09
-3.27352843635e-07
2.91574809412e-09
-3.29843394283e-07
2.47023115698e-09
-3.32045382863e-07
1.94262805947e-09
-3.33394120469e-07
1.39641741633e-09
-3.34371663819e-07
7.93443003484e-10
-3.34425251169e-07
1.951599731e-10
-3.34068153789e-07
-4.41705341156e-10
-3.32801857102e-07
-1.0574023521e-09
-3.31097712741e-07
-1.69370551699e-09
-3.28555505117e-07
-2.29729894469e-09
-3.25551532008e-07
-2.90704903133e-09
-3.21817386717e-07
-3.47950770273e-09
-3.17595797271e-07
-4.04682072723e-09
-3.12776149005e-07
-4.5795658835e-09
-3.07441110374e-07
-5.09962933568e-09
-3.01658271749e-07
-5.59476721822e-09
-2.95336664209e-07
-6.07032051194e-09
-2.88697427982e-07
-6.53553491946e-09
-2.81543274199e-07
-6.9798109925e-09
-2.74164936106e-07
-7.41695258155e-09
-2.66308090664e-07
-7.83214023983e-09
-2.58293439243e-07
-8.24903203399e-09
-2.49848868612e-07
-8.63045410101e-09
-2.41231962802e-07
-9.0082241807e-09
-2.32281960848e-07
-9.36135007574e-09
-2.23138346095e-07
-9.70006926892e-09
-2.13719815586e-07
-1.00097080143e-08
-2.0406523439e-07
-1.02986592114e-08
-1.9419749829e-07
-1.05630916782e-08
-1.8404640662e-07
-1.07984376688e-08
-1.73729102333e-07
-1.10178419552e-08
-1.63097151601e-07
-1.12071132082e-08
-1.52320625977e-07
-1.1376112153e-08
-1.41276328514e-07
-1.14558783402e-08
-1.30146267132e-07
-1.15346009623e-08
-1.18781797631e-07
-1.16183944093e-08
-1.0728156351e-07
-1.16874937174e-08
-9.56310483457e-08
-1.176218741e-08
-8.38088454017e-08
-1.18428973633e-08
-7.19142799684e-08
-1.19461774135e-08
-5.98247348621e-08
-1.204168744e-08
-4.77379909168e-08
-1.2167218212e-08
-3.54482440886e-08
-1.22719442823e-08
-2.32281949719e-08
-1.24135806775e-08
-1.08105806874e-08
-1.25092934181e-08
1.5205927148e-09
-1.26367396429e-08
1.40172998103e-08
-1.27106225289e-08
2.64058388009e-08
-1.27986182948e-08
3.89033162691e-08
-1.28270023373e-08
5.12361248018e-08
-1.28745195072e-08
6.36662995518e-08
-1.28612599595e-08
7.59279677064e-08
-1.28836181826e-08
8.82967455072e-08
-1.28819394679e-08
1.0053069378e-07
-1.29672569836e-08
1.13027813697e-07
-1.30813412184e-08
1.25592442501e-07
-1.33690488306e-08
1.38678627541e-07
-1.38068177628e-08
1.52235574838e-07
-1.45486289741e-08
1.66639768545e-07
-1.56091929494e-08
1.82024094617e-07
-1.70033269504e-08
1.98449818636e-07
-1.89667379328e-08
2.16895161019e-07
-2.12610194858e-08
2.37746370311e-07
-2.40561725067e-08
2.61552830497e-07
-2.72207906245e-08
2.88416695876e-07
-3.07776386428e-08
3.18770558504e-07
-3.45652962522e-08
3.52637058667e-07
-3.87051015511e-08
3.90693162527e-07
-4.32395000632e-08
4.33457743654e-07
-4.8677268673e-08
4.82359195282e-07
-5.51527259809e-08
5.38052064509e-07
-6.26279782351e-08
6.01395180216e-07
-7.04334311883e-08
6.72222197742e-07
-7.79501530046e-08
7.49221857655e-07
-8.38375426849e-08
8.2603184965e-07
-8.3136271606e-08
8.88778342095e-07
-6.89666095067e-08
9.26368083109e-07
-4.37708773758e-08
9.31472029557e-07
-1.1943113303e-08
9.06581252124e-07
1.72466788143e-08
8.90500687147e-07
6.47676294827e-09
9.60355514113e-07
-8.26768932728e-08
1.08002954276e-06
-1.35969014727e-07
9.15623192512e-07
1.46025614085e-07
6.63625025848e-07
2.37959061253e-07
5.30538520911e-07
1.24685267588e-07
4.45521962882e-07
7.9038391477e-08
3.88297773736e-07
5.31573384159e-08
3.48279745612e-07
3.67330905753e-08
3.19595367642e-07
2.61018905739e-08
2.98145641955e-07
1.86746599649e-08
2.82365235924e-07
1.3552018998e-08
2.70673239563e-07
9.73736403931e-09
2.62598834266e-07
7.13638663206e-09
2.56588128274e-07
5.09962265528e-09
2.52381961584e-07
3.808318793e-09
2.48800295218e-07
2.64405299429e-09
2.46285566348e-07
2.02039305361e-09
2.43986109237e-07
1.3455679205e-09
2.42563037755e-07
1.1194762839e-09
2.4119114278e-07
7.28273682746e-10
2.40649888502e-07
7.31612994699e-10
2.40237117476e-07
5.10116382825e-10
2.40849215515e-07
7.09498737986e-10
2.41897580547e-07
7.22955738018e-10
2.44457776677e-07
1.21379784221e-09
2.4782806909e-07
1.59478646234e-09
2.53515328881e-07
2.46042925263e-09
2.59987731223e-07
2.83132297961e-09
2.6712651287e-07
3.90678514732e-09
2.71224670964e-07
3.59410687046e-09
2.73742837364e-07
3.99479000052e-09
2.74401270196e-07
3.04915194159e-09
2.77031276854e-07
2.93032018545e-09
2.80227077097e-07
1.9388099173e-09
2.8563912768e-07
2.16678687508e-09
2.89948811569e-07
1.15249807578e-09
2.9538922443e-07
1.5377840638e-09
2.98084901915e-07
3.96662730126e-10
3.00634415321e-07
9.53776950411e-10
2.97984233176e-07
-3.25484982595e-10
2.93059092481e-07
5.25243576944e-10
2.79330333863e-07
-9.00937163684e-10
2.60577925631e-07
4.33572934771e-10
2.28311543563e-07
-1.11137992854e-09
1.87675278605e-07
1.00453495112e-09
1.27209670655e-07
-5.5209801094e-10
5.3712779085e-08
2.78608666536e-09
-4.87223568206e-08
1.48587408455e-09
-1.71320137655e-07
6.70663654639e-09
-3.35883369135e-07
6.04471545502e-09
-5.30624429379e-07
1.38125700978e-08
-7.84340050379e-07
1.40453979204e-08
-1.08040520221e-06
2.48714107194e-08
-1.45569995533e-06
2.61093000493e-08
-1.8868550474e-06
4.03354590347e-08
-2.42058199841e-06
4.26445223504e-08
-3.02627590654e-06
6.09303708514e-08
-3.76293742614e-06
6.50527918859e-08
-4.59207691502e-06
8.74173146635e-08
-5.58488832599e-06
9.22421626385e-08
-6.69255446114e-06
1.14948214654e-07
-7.99544639275e-06
1.15235411426e-07
-9.43484574207e-06
1.31436054178e-07
-1.10961484999e-05
1.19753047273e-07
-1.29328454303e-05
1.40695491798e-07
-1.5065393008e-05
1.63838827215e-07
-1.74926677343e-05
2.64542119411e-07
-2.04121151715e-05
4.45985065196e-07
-2.38529396108e-05
7.52645446088e-07
-2.80002079973e-05
1.16257814309e-06
1.42350378522e-06
-3.25666457268e-05
-3.3040109406e-08
9.08549399186e-08
-5.8288523156e-08
8.25968464643e-08
-8.23060202755e-08
5.32740731235e-08
-9.0262197752e-08
2.13992565663e-08
-6.86192598285e-08
4.49861692353e-09
-3.93771907054e-08
-1.25372644172e-09
-1.71713040021e-08
-1.81317217493e-09
-1.95347185454e-10
-4.14004432653e-10
1.20487371567e-08
1.59775541572e-09
2.00509323373e-08
3.56563494763e-09
2.3649461739e-08
5.19774870036e-09
2.41519126603e-08
6.42107304883e-09
2.15682299827e-08
7.27769139352e-09
1.73107789106e-08
7.85928372206e-09
1.14960023737e-08
8.22848710215e-09
5.17136024711e-09
8.43383358165e-09
-1.49866409762e-09
8.49111030729e-09
-7.91913900455e-09
8.40814312572e-09
-1.39109932773e-08
8.19155850294e-09
-1.92312868395e-08
7.84242067143e-09
-2.37056916471e-08
7.37319608167e-09
-2.73183405691e-08
6.78974036008e-09
-2.99294554488e-08
6.10910503485e-09
-3.16488468738e-08
5.33887405007e-09
-3.23577859043e-08
4.49768474148e-09
-3.22291684028e-08
3.59112210545e-09
-3.11727586403e-08
2.63221704007e-09
-2.93899125993e-08
1.62500761176e-09
-2.67670473751e-08
5.83285328288e-10
-2.35188476014e-08
-4.95294503316e-10
-1.95045127072e-08
-1.59874463788e-09
-1.49517104987e-08
-2.73265036282e-09
-9.67127649151e-09
-3.88351872091e-09
-3.88697113465e-09
-5.05964739004e-09
2.61860366951e-09
-6.24824790221e-09
9.62843461782e-09
-7.4585474275e-09
1.73580921184e-08
-8.67791821834e-09
2.56307385105e-08
-9.91257430453e-09
3.46241714815e-08
-1.1150586325e-08
4.42204861495e-08
-1.23939763692e-08
5.45326107586e-08
-1.36337951896e-08
6.55120505749e-08
-1.48671384129e-08
7.71826319353e-08
-1.60891570438e-08
8.95664567464e-08
-1.72922876483e-08
1.02587823009e-07
-1.84769423499e-08
1.16327835612e-07
-1.96313329935e-08
1.30630412268e-07
-2.07577386711e-08
1.45614472108e-07
-2.18426949686e-08
1.61060610106e-07
-2.28947925371e-08
1.77093292364e-07
-2.38889794174e-08
1.93513239389e-07
-2.48302185422e-08
2.10403659652e-07
-2.57078253371e-08
2.27597847812e-07
-2.65169598062e-08
2.45134384185e-07
-2.72467127765e-08
2.62893283987e-07
-2.78985851078e-08
2.80861147638e-07
-2.84640792603e-08
2.98983271386e-07
-2.89397316346e-08
3.17189738254e-07
-2.93266743364e-08
3.35475177412e-07
-2.961980783e-08
3.53718873632e-07
-2.98225380444e-08
3.71955506718e-07
-2.99223412673e-08
3.90060467095e-07
-2.99479767059e-08
4.08187512758e-07
-2.99489699865e-08
4.26176756586e-07
-2.98451489297e-08
4.43973529097e-07
-2.96309091804e-08
4.6143745353e-07
-2.93212193526e-08
4.78474506082e-07
-2.88966206645e-08
4.94963264415e-07
-2.83832089425e-08
5.10779115631e-07
-2.77975807729e-08
5.25869364832e-07
-2.71456819636e-08
5.40087028575e-07
-2.64402700766e-08
5.53422604144e-07
-2.56711586719e-08
5.65737938703e-07
-2.4854172725e-08
5.77044875321e-07
-2.39844457755e-08
5.87245221697e-07
-2.30722788551e-08
5.96385018432e-07
-2.21088213928e-08
6.04376114698e-07
-2.112319117e-08
6.11270492418e-07
-2.01018745368e-08
6.17018045104e-07
-1.90664488586e-08
6.21691321284e-07
-1.80054183373e-08
6.2521585913e-07
-1.69468760935e-08
6.27640499801e-07