/*--------------------------------*- C++ -*----------------------------------*\
| =========                 |                                                 |
| \\      /  F ield         | OpenFOAM: The Open Source CFD Toolbox           |
|  \\    /   O peration     | Version:  v1806                                 |
|   \\  /    A nd           | Web:      www.OpenFOAM.com                      |
|    \\/     M anipulation  |                                                 |
\*---------------------------------------------------------------------------*/
FoamFile
{
    version     2.0;
    format      ascii;
    class       volScalarField;
    location    "19";
    object      rho;
}
// * * * * * * * * * * * * * * * * * * * * * * * * * * * * * * * * * * * * * //

dimensions      [0 0 0 0 0 0 0];


internalField   nonuniform List<scalar> 
12225
(
0.585293285333
0.649665777271
0.628875763154
0.629141071997
0.617115573486
0.612824318866
0.606857460765
0.602843698532
0.600745499574
0.601747642373
0.607315302743
0.616054617428
0.623092582453
0.634969736076
0.658584043028
0.689713775852
0.730385200966
0.764611040366
0.760601686858
0.699007332346
0.666407791896
0.67110477098
0.661988984011
0.659649145939
0.655957100553
0.653710904182
0.652538977554
0.653123159297
0.656818063445
0.663370289145
0.670197836554
0.680255879971
0.698181850208
0.721611435431
0.747587228775
0.750306162948
0.605528041788
0.680631823839
0.661547615931
0.663506666315
0.653667389725
0.650363073025
0.64586333982
0.642891348447
0.640892653341
0.640373474276
0.642019152971
0.645949504047
0.651651518573
0.660755727717
0.675726502045
0.69472060269
0.712473509632
0.707718150166
0.673941440203
0.692602501081
0.666001310165
0.671860098835
0.663051728176
0.661357100255
0.658212354341
0.656372541138
0.655182553469
0.6550542175
0.656303575673
0.659087669393
0.663538158317
0.670616484762
0.681304779623
0.693592224299
0.701670447445
0.69211014306
0.638483160718
0.692341732404
0.667202688638
0.674264020897
0.666276436899
0.66553280558
0.663281042222
0.662362421705
0.662114597487
0.662857944191
0.664715536974
0.667768303365
0.672237889559
0.678585159578
0.686796601174
0.694595669255
0.69686988094
0.686377188022
0.652545591026
0.69617422642
0.670547327995
0.678944483547
0.671537673573
0.671520613106
0.669818619221
0.669400753076
0.669586641462
0.670637536908
0.672595193115
0.675493052859
0.679489718486
0.684705359559
0.690581144307
0.694869850431
0.693759307262
0.683820433945
0.64880103781
0.697549864086
0.673094365627
0.682370663339
0.675648824227
0.676295602845
0.675120077592
0.675153484578
0.675695732195
0.676957218789
0.678928703417
0.681600055356
0.6850038698
0.689023443083
0.692852361488
0.694541556334
0.691546552147
0.682468514952
0.651121636509
0.699061666683
0.675314485032
0.685351954685
0.679192085364
0.680374317388
0.679593826308
0.679942366204
0.680674515811
0.681982570641
0.683834033394
0.686176345593
0.688920180595
0.691794823764
0.693927781019
0.693787255342
0.689794838345
0.681594362592
0.652094216845
0.699826810158
0.677122882968
0.687675660721
0.68205526162
0.683693483209
0.683241497434
0.683807859306
0.684613199599
0.685857054382
0.687496772118
0.689431072964
0.691480273788
0.693293086949
0.694069070215
0.692662057847
0.68819115927
0.680738303267
0.652998113818
0.70016011554
0.678363312874
0.689293191742
0.684124167176
0.686136519
0.685924525716
0.686615372729
0.687421944651
0.688551721995
0.689928047628
0.691401749176
0.692742262184
0.693595824361
0.693298713471
0.691045460754
0.686394888725
0.679638615666
0.652958093184
0.700232265507
0.678748587045
0.690017123693
0.685107708639
0.687331933709
0.687199589545
0.687911539386
0.688659476583
0.68962280804
0.690688851767
0.691703974842
0.692434557159
0.692568076866
0.691581753461
0.688937132807
0.684462115433
0.678474703199
0.648946091946
0.700108006686
0.677261561983
0.689104735031
0.684134817434
0.686453057176
0.686334887441
0.687041003273
0.687686951023
0.688481972544
0.68937202233
0.690182422811
0.690667987224
0.690529916505
0.689367758371
0.686813606156
0.682797642834
0.677629632279
0.6456462729
0.699419454071
0.675760637424
0.68800905291
0.683217264663
0.685704500945
0.685684358939
0.686463586643
0.687194927105
0.688065670572
0.688962264065
0.689704885138
0.690013594257
0.689671242972
0.688350161328
0.685831772527
0.682147348726
0.677569633014
0.64162404192
0.698559436755
0.674044757759
0.686826135446
0.682247780785
0.685088124226
0.685373223697
0.686370270868
0.687208130544
0.688077100465
0.688856850316
0.689352443465
0.68932031502
0.688609418276
0.687046599096
0.684501433833
0.681118936055
0.677052794938
0.636374009998
0.69761683955
0.67188408054
0.685388228049
0.681027987041
0.684285751699
0.684917399579
0.686172582603
0.687135142613
0.687960314412
0.688562687255
0.688738093911
0.688306085458
0.687242701242
0.68546331796
0.682941528888
0.679836843908
0.676294526353
0.630839539367
0.696608352203
0.669410323498
0.683629301417
0.679378730975
0.682994081777
0.683880974008
0.685323742467
0.686335624152
0.687106431295
0.687506888238
0.687420364989
0.686684234129
0.685403634163
0.683534773323
0.681129709777
0.678326978832
0.675227365868
0.625816394447
0.695684154921
0.666891859818
0.68169088623
0.677397211588
0.681222885709
0.682211878948
0.68370769616
0.684686981312
0.68533482354
0.685581118621
0.685298596994
0.684403715381
0.683030561476
0.681207959585
0.678967083415
0.676480037642
0.673743998345
0.621055065768
0.694971379812
0.664480215714
0.679751217285
0.675268278123
0.679156151806
0.680098966562
0.681548552
0.682432407227
0.682957706592
0.68307357182
0.682672092393
0.68170520242
0.680339820079
0.67861710435
0.676563735897
0.674346211295
0.671929402393
0.61844768633
0.694877433027
0.663187931039
0.67864006306
0.673854337617
0.677591255968
0.678300549379
0.679538903236
0.680201758555
0.680517828885
0.680452037621
0.679919258667
0.678885853808
0.677533852067
0.675897666481
0.673991850503
0.671971135965
0.669791331529
0.623774282965
0.695499986332
0.66478781904
0.679373391458
0.674104338555
0.677161562131
0.677223394427
0.677800013266
0.677867231129
0.677653925701
0.677156022338
0.676305787598
0.675065561529
0.673603427307
0.671948888563
0.670106335672
0.66821483293
0.666239773276
0.628484802934
0.696678454318
0.666687093484
0.680639080992
0.674993202551
0.677509564874
0.677059159971
0.677156238593
0.676766903578
0.676177210951
0.675375001569
0.674316993311
0.672931674441
0.671411171639
0.669745374526
0.667958208684
0.666144614517
0.664297535858
0.630425768824
0.697519017819
0.668595397449
0.682009183942
0.676085302175
0.678125999058
0.6772604366
0.676940896969
0.676197107785
0.675308401884
0.674264113636
0.673043311022
0.671561032751
0.669986326712
0.66832157597
0.666565876267
0.664820292845
0.663038245726
0.638254054929
0.699336430374
0.670360381833
0.683274540255
0.677044899171
0.678637231681
0.677374074876
0.676678914237
0.6756076379
0.674431019954
0.673181443046
0.671794560817
0.670204394387
0.668558011632
0.666880971104
0.66512314171
0.663408039731
0.661689662177
0.632047231821
0.699749818598
0.672630216947
0.684967402728
0.678470210869
0.679597698581
0.677951194428
0.676875666408
0.675490181348
0.674057913069
0.672590016373
0.671045251531
0.669336644182
0.667616171934
0.665865808391
0.66407406371
0.662329304795
0.660619460188
0.658140371822
0.702163381435
0.674200968739
0.685753436803
0.679024209554
0.67971822083
0.677729950223
0.676365739169
0.674731380259
0.673092614843
0.671462659431
0.669821185459
0.668047646508
0.666288388609
0.664534199783
0.662727823611
0.660950914393
0.659219182579
0.616458857886
0.702143864059
0.677369019565
0.688481709875
0.68150876098
0.681808245667
0.679552757558
0.677895800255
0.676005353975
0.674117180197
0.672275788591
0.670453674186
0.66853919481
0.666641058435
0.664757068651
0.662850559272
0.660998437351
0.659338433425
0.710524746048
0.705456847591
0.679801439714
0.688814283718
0.681930567277
0.681629450994
0.67904536083
0.67705994235
0.674874525518
0.672694442843
0.670546753186
0.668565350029
0.66656956541
0.664598582064
0.662702649902
0.660786576525
0.658853423685
0.65674577342
0.56483006559
0.700953141374
0.687771474353
0.695005169912
0.688171045156
0.68772373659
0.685233764037
0.683416600444
0.681461575749
0.679519481873
0.677725405298
0.676052638339
0.674307752952
0.672575137773
0.670862982348
0.669020225916
0.667075022369
0.665506684893
0.834492953577
0.720367349098
0.695228105433
0.701559496981
0.695161102478
0.694053926273
0.691001605779
0.688253033071
0.685127554022
0.681750640847
0.678236700874
0.674945580914
0.671612729217
0.668143760085
0.664624175939
0.661039334316
0.657340427176
0.653756861232
0.649315287005
0.682862293869
0.678012372587
0.679696396027
0.67190771381
0.670901051677
0.668245912063
0.666193165007
0.664108940311
0.662279032449
0.660803245636
0.659425885577
0.657986040912
0.656876110588
0.656091704237
0.655434125563
0.655100268601
0.654333263986
0.500150300853
0.499789581989
0.499603215559
0.499621509867
0.499835660509
0.500211166811
0.500645601274
0.501105337876
0.501563729376
0.502002238283
0.502408817745
0.502776455873
0.503101811125
0.503384004334
0.503623905164
0.503823556534
0.503985597941
0.504113381112
0.504209999
0.504278397012
0.504321813986
0.504342381284
0.504343288387
0.504325138498
0.504289714572
0.504236467364
0.504166901507
0.504080609729
0.503978087812
0.503858399818
0.503721676893
0.503567292074
0.503395528855
0.50320551357
0.502997376076
0.502771192681
0.502528058717
0.502267205081
0.501989793952
0.501695876422
0.501386837991
0.501063437696
0.500727389744
0.500380357704
0.500024493901
0.499662353968
0.499296558038
0.498930246574
0.498566692197
0.498208860568
0.497859615234
0.497520342525
0.497194181114
0.496885355876
0.496599231969
0.49634093585
0.496115861685
0.495929398958
0.495787065324
0.495694117163
0.4956546231
0.495669792639
0.495740579924
0.495869971035
0.496058891967
0.496304235351
0.496603940366
0.496955902368
0.49735681369
0.497803900517
0.498292901992
0.498819964512
0.49938033374
0.499969790256
0.500583683495
0.5012180454
0.501868924479
0.502531777389
0.503202813928
0.503879405235
0.504559510395
0.505239834802
0.505918324352
0.506592275538
0.507262464306
0.507926219634
0.508583449737
0.509240435854
0.509893427475
0.510545967238
0.511198816173
0.511852184213
0.512508263407
0.51314058961
0.513734562751
0.514328176391
0.514953202162
0.515594797973
0.516251045215
0.51691593877
0.517695436923
0.518568227247
0.518710245424
0.518756668907
0.518973302229
0.519413749525
0.520044597537
0.520388330152
0.520789553341
0.521150263641
0.52144619169
0.521700322794
0.521917328662
0.522120453572
0.522307116185
0.522480620698
0.522643648167
0.522799535334
0.522949260888
0.523091929931
0.523224243149
0.523344993087
0.523455483089
0.523556804049
0.523651792105
0.523741702974
0.523827275361
0.523909006729
0.52398725873
0.524062428572
0.524134885013
0.524204844013
0.524272493778
0.524337860314
0.524401013063
0.52446187166
0.524520419775
0.524577012807
0.524631167006
0.524682711668
0.52472985962
0.524774002399
0.524814316378
0.524849287614
0.524877216036
0.524896288006
0.524905392295
0.524903728669
0.524890597567
0.524865459887
0.524827226069
0.524774372684
0.524705174504
0.524618001362
0.524511078998
0.52438259626
0.524230498395
0.524052549128
0.523845775595
0.523606580699
0.523329587813
0.523009087461
0.522636996376
0.522202008356
0.521688648493
0.521079910038
0.520354797346
0.51949670252
0.518492299394
0.517318659882
0.51596277174
0.514428175424
0.51273345674
0.510919638038
0.509046587524
0.507059101001
0.505009604993
0.502973554878
0.501058520378
0.499548643152
0.500048462345
0.499814333691
0.499914918403
0.500201903735
0.500550853634
0.50090816591
0.501252210365
0.501572604369
0.50186479006
0.502126554166
0.50235754005
0.502557127417
0.502726212169
0.502865195964
0.502975482865
0.503058197771
0.503115188048
0.503148259952
0.503159891872
0.503151572099
0.503125836395
0.503084108066
0.503028718876
0.502959860004
0.502878917131
0.502785039151
0.502679075958
0.502560187015
0.502428160305
0.502281681937
0.502120579606
0.501943868236
0.501750963137
0.501540678417
0.501313351474
0.50106827175
0.500805749935
0.500525502987
0.500228046128
0.499913242642
0.499582076732
0.499235314559
0.498874449127
0.498501225866
0.498117910581
0.497727276297
0.497332708361
0.496937833057
0.496547301215
0.496166300076
0.495802435774
0.495460757496
0.495144164079
0.494855625841
0.494599037851
0.49437826627
0.494197116516
0.494061298133
0.493976746815
0.493945552368
0.49396916818
0.494049840933
0.494187168506
0.494377155575
0.494620840381
0.494920815166
0.495277235378
0.495689738233
0.496157367732
0.496679088212
0.49725296835
0.49787688207
0.498547502935
0.499261268765
0.500014074899
0.500801265536
0.501617728452
0.502458133486
0.5033169596
0.504190176516
0.505074679862
0.505966625049
0.506861829551
0.507758427746
0.508658080696
0.509555483321
0.510443887219
0.51133287235
0.512243267928
0.513156564105
0.514041994382
0.514932957939
0.515869335981
0.516820579789
0.517701220123
0.518506040073
0.519343900196
0.520031887714
0.520713800609
0.521428244816
0.522115021957
0.522933373203
0.523538940419
0.524192054715
0.524793821771
0.525373524562
0.525716817727
0.52597863221
0.526212371914
0.526455369119
0.526700579403
0.526954624987
0.527215744374
0.527479623015
0.527740154975
0.527997928857
0.528253716666
0.528509205021
0.528764979978
0.529018292099
0.529265315104
0.529504209801
0.529734881278
0.529958993516
0.530178474435
0.530394267819
0.530607096076
0.530817409979
0.53102570845
0.531232180135
0.531436914219
0.531639937699
0.531841392028
0.532041405096
0.532240376143
0.532438687579
0.532636988789
0.532836070376
0.533036643058
0.53323839918
0.533441123762
0.533646072201
0.533853648324
0.534063565471
0.534274951464
0.53448738096
0.53470126381
0.534917607807
0.535137658911
0.535362454542
0.535593129921
0.535830916922
0.536077051999
0.53633224658
0.536596377486
0.536868627112
0.537147005611
0.53742890229
0.537710713089
0.537989134655
0.538259121046
0.53851507777
0.538751548564
0.538964452013
0.539150036731
0.539305289501
0.539433834239
0.539527874669
0.539588143917
0.539616076794
0.539609963384
0.539562774271
0.539464741605
0.539311617056
0.539035287095
0.538728764724
0.538372383179
0.537972231329
0.537571519379
0.537149711611
0.500417184726
0.500341206175
0.500376253655
0.5004924502
0.500615498578
0.50071690864
0.50080575567
0.500888525408
0.500968967341
0.501047216301
0.501122715879
0.501193869345
0.501259048077
0.501316369519
0.501364448356
0.501402071029
0.50142874331
0.501444132263
0.501448636768
0.50144269824
0.501427217071
0.501402198579
0.501369172944
0.501327755869
0.50127830707
0.50122006075
0.501153177025
0.501076371637
0.500989179927
0.500890227596
0.500778918317
0.500653783112
0.500514438838
0.500359841786
0.500189649676
0.500003334145
0.499801350068
0.499583122118
0.499349215186
0.499099903217
0.498836108625
0.498558847324
0.4982696976
0.497970554777
0.49766378629
0.497352126466
0.497038878054
0.496727644256
0.496422477569
0.496127726629
0.495849571018
0.495594429053
0.495369220391
0.495178466496
0.495025680903
0.494913684147
0.494844820804
0.494819021493
0.494835404672
0.494895489264
0.495001957151
0.495156999024
0.495365998663
0.495632702082
0.495955369079
0.496334773339
0.496772063922
0.497267346322
0.49781904194
0.498424669622
0.499080444683
0.499781881177
0.500523850326
0.501300948425
0.502107695112
0.502938628514
0.503788509838
0.504652135212
0.505524620129
0.506401270919
0.507279979862
0.508157830016
0.509030412449
0.509894953611
0.510755288965
0.511613054849
0.51245401969
0.513275321126
0.514100924038
0.514940667706
0.515760742198
0.516533424803
0.517334291937
0.518139321977
0.518912650783
0.519655548563
0.520341182402
0.520871051902
0.521474600712
0.522266682366
0.523128013084
0.523743551824
0.524071433275
0.524412682906
0.524601438912
0.524839113885
0.525231621785
0.525797329614
0.526338161078
0.526807662813
0.527240664556
0.527644227445
0.52801677782
0.528362528847
0.528685886637
0.528992973339
0.529287973968
0.529574230566
0.529853114293
0.530122788021
0.530381097424
0.530627582733
0.530863606453
0.531091401342
0.531312101979
0.531526444323
0.531734926381
0.531937948926
0.532135857335
0.532329149465
0.532518523688
0.532704692162
0.532888129792
0.533069146563
0.533248015195
0.533425081053
0.533600933195
0.533775966937
0.533950322842
0.534122834248
0.534293410672
0.534463041783
0.534632930144
0.534802745125
0.53497098186
0.535136478294
0.535298735453
0.53545776832
0.535613467444
0.535765682493
0.53591423198
0.536059141523
0.5362002925
0.536337718271
0.536471676936
0.536602698534
0.53673151972
0.536859315364
0.536987289546
0.537117163041
0.537250647947
0.537389465554
0.537535348012
0.537690189038
0.537855359823
0.538032492005
0.538224246377
0.53843104605
0.53864962137
0.538876914345
0.539107784065
0.539332071467
0.53953725767
0.539697847464
0.539787763867
0.539790013505
0.539686464329
0.5394716259
0.539193363457
0.539004511888
0.500886319029
0.500767955371
0.500507128589
0.500367464597
0.500291839989
0.500233109972
0.500197136326
0.50018369036
0.500190628539
0.500214886699
0.500253292767
0.500301923983
0.500357504609
0.500416544998
0.500476310288
0.50053428981
0.500588752033
0.500638313765
0.500682452798
0.50072014201
0.500751722662
0.500776873526
0.500795743259
0.500807678831
0.500813042776
0.500810425246
0.500799485193
0.500778896043
0.500747846966
0.500704675094
0.500648474573
0.500577895793
0.500492067274
0.500389625106
0.500270625567
0.500134135134
0.499980218731
0.499808748112
0.499620320934
0.499415231625
0.499194695789
0.498960000742
0.498713099073
0.498456318546
0.49819247155
0.497924823666
0.497657206651
0.497393520103
0.497138282477
0.496896345321
0.496672377704
0.496469945668
0.496294757774
0.496151669483
0.496045155596
0.495978963566
0.495956518119
0.495979466579
0.496046394827
0.496154574136
0.496303342093
0.496493778313
0.496728604677
0.49701318295
0.497354025317
0.497755146207
0.498218632023
0.498745581812
0.499335731045
0.499987204487
0.500696593987
0.501458826717
0.502267388122
0.503115343112
0.50399531235
0.504898992261
0.50581899845
0.506749707367
0.507683964188
0.508614999369
0.509540558642
0.510461328208
0.51136924219
0.512255004149
0.51312692416
0.51399292222
0.514838873332
0.515631411105
0.516416823194
0.517205515678
0.517963265737
0.51867325519
0.519347711767
0.520007664442
0.520621745268
0.521239946899
0.521921998051
0.522659932435
0.523500908924
0.524300497704
0.524862726678
0.525113621355
0.525293743842
0.525513143702
0.525700587349
0.526019681585
0.526547068999
0.52721822538
0.527868846355
0.528453984296
0.528981082025
0.529448088309
0.529861463735
0.530232899543
0.530572201745
0.530887834837
0.531185352287
0.531468841749
0.531739635595
0.53199682501
0.53223938729
0.532468362829
0.532686738513
0.532896784344
0.533099666081
0.53329607491
0.533486662646
0.533672080646
0.533853022995
0.534030148874
0.534204351595
0.534376207575
0.534545929756
0.534713843886
0.534880358775
0.535046189628
0.535211925107
0.535377713539
0.535542773433
0.535705762906
0.535866372104
0.536026265445
0.536187347372
0.536349583014
0.536511813416
0.536673091994
0.536833140567
0.536992105214
0.537150216786
0.537307734899
0.537464840215
0.537621720374
0.537778234775
0.53793425247
0.538089651112
0.538244291787
0.538397892444
0.538549938025
0.538699773525
0.538846698796
0.538990314658
0.539130191509
0.539265978664
0.539397955283
0.539526846385
0.539654126094
0.539783249938
0.53991643629
0.540055500714
0.540203498514
0.540362021363
0.540529314858
0.540701681393
0.540870898922
0.54101876816
0.541138514681
0.541216501426
0.541254188828
0.541307708958
0.541505201418
0.50142972759
0.500767955313
0.500113068748
0.499872619234
0.499787302686
0.499731394979
0.499697930131
0.499683909792
0.49968972591
0.499713942423
0.49975541406
0.499811646309
0.499879980134
0.49995707282
0.500040203773
0.50012645571
0.500213903727
0.500300346085
0.500384680902
0.500465820026
0.500543262639
0.50061581243
0.500683804641
0.50074605674
0.50080209995
0.500850873972
0.500891761813
0.500923070248
0.500943859075
0.50095247251
0.500947882552
0.500928330978
0.500893168074
0.500841227562
0.500771959306
0.500684646747
0.500579638249
0.500456421222
0.500315642836
0.500157757325
0.499983953327
0.499795503982
0.499594386245
0.499382838538
0.499163669071
0.498939912583
0.498715241303
0.49849349875
0.498278782101
0.498075755583
0.497890600024
0.4977276651
0.497592275196
0.497489560919
0.497423551318
0.497397721829
0.497415877372
0.497480527128
0.497592103622
0.497752037186
0.497961465499
0.498220935027
0.498530605293
0.49888957491
0.499298779042
0.499760793463
0.500278010661
0.500852153341
0.501483192762
0.5021699896
0.502909778777
0.503698256377
0.504528593797
0.505395030946
0.506290918278
0.507207711927
0.508136730411
0.509074563511
0.510017478911
0.510952674469
0.511873872193
0.512791221967
0.513698426461
0.514577232349
0.515439371301
0.516299191949
0.517136428465
0.517931432881
0.518675805043
0.519404418223
0.520134362838
0.520813452715
0.521480608822
0.52211918992
0.522783182927
0.523558291306
0.524393162363
0.525208600404
0.525918760411
0.526386873657
0.526597546075
0.526678552585
0.52682297072
0.527039585174
0.527304671804
0.527704942666
0.528241001721
0.528839497737
0.529423055306
0.529968354238
0.530461109455
0.53089486662
0.531276766828
0.531617457609
0.531926249732
0.532211033166
0.532477520676
0.532729720062
0.532969099972
0.533195431488
0.533408752118
0.533611255095
0.533806162395
0.533995349914
0.534179437144
0.534358586805
0.534532959025
0.534702808541
0.534868513806
0.535030469316
0.535188955353
0.5353442695
0.535496865186
0.535647162435
0.535795742378
0.535943280411
0.536090127735
0.5362359011
0.53637900316
0.536518053917
0.536652865035
0.53678597907
0.536919729495
0.537054524292
0.537189610126
0.537324117005
0.537457743418
0.537590518102
0.537722638741
0.537854350005
0.537985796013
0.538117097059
0.538248399283
0.538379804131
0.538511389038
0.538643102718
0.53877493321
0.538906900391
0.539038897207
0.539170794056
0.53930275396
0.539434941786
0.539567617403
0.539701446201
0.539837085232
0.539975664102
0.540119537279
0.540269754237
0.540426535909
0.540591243685
0.540763172058
0.540939256277
0.541116343806
0.541288422398
0.541445326724
0.54158474
0.541706614258
0.541828643086
0.542018468068
0.542387912914
0.501921395455
0.500089101921
0.499227839746
0.499230352881
0.499333838505
0.499381459072
0.499402948189
0.499418014766
0.499440420448
0.49947640334
0.499528903839
0.499596650325
0.499678239242
0.49977055776
0.499871370428
0.499977713254
0.500087715326
0.500199169596
0.500310989953
0.500421260474
0.500529679766
0.500635157611
0.500737032871
0.500834225316
0.500926529268
0.501012211255
0.50109047633
0.501159738456
0.501218862393
0.501266031881
0.501300081047
0.50131950815
0.501323320544
0.501310139887
0.501279885972
0.501231672695
0.501165582393
0.501081576758
0.500980426091
0.500862624587
0.50072967127
0.500582994455
0.500424822253
0.500257512817
0.500083993
0.499907286575
0.499731034508
0.499558671446
0.499394185465
0.499242112439
0.499108361863
0.498997180645
0.498914324716
0.498865002977
0.498853870814
0.498885042978
0.498962284191
0.499084892773
0.499251291131
0.499460500341
0.499712448023
0.500007239851
0.500346797267
0.500732967092
0.501170735141
0.501663641567
0.502215267204
0.502827813873
0.503500930827
0.504231684272
0.505017599915
0.505852756992
0.506728148074
0.507635160483
0.508569711808
0.509521949395
0.510478117199
0.511432720461
0.512389574852
0.513339314911
0.514257371053
0.515179275135
0.516088496234
0.516971797187
0.517817985091
0.518623092525
0.519409774396
0.520171944826
0.520909917159
0.521641978193
0.522326212822
0.523006861656
0.523759756059
0.524525109927
0.525309141634
0.526078985642
0.526767490466
0.527330357611
0.527742976511
0.527971292967
0.528082335563
0.528201370061
0.528400358542
0.528657529039
0.528983142202
0.529410692353
0.529908692214
0.530429604548
0.530941084023
0.531426634932
0.531870073573
0.53226668116
0.532621384023
0.532941413154
0.533233663907
0.533504277001
0.533758020574
0.533997829413
0.534224625685
0.53443792845
0.534638040977
0.534827399023
0.535008637558
0.535183184092
0.535351397265
0.535513323168
0.535669068068
0.535818940679
0.535963433283
0.536103172746
0.536238884724
0.536371503278
0.536501788039
0.536630394891
0.536758068979
0.536885574428
0.537013140514
0.537139724649
0.537263404234
0.537382353122
0.537496833477
0.537609494119
0.537722647904
0.537836959289
0.537951846026
0.538066646163
0.538181037895
0.538294996532
0.538408635455
0.53852192721
0.538634930195
0.538747694322
0.538860289897
0.538972873668
0.539085540908
0.53919840992
0.539311550622
0.539425070686
0.539538994407
0.539653396666
0.53976858241
0.539884863156
0.540002730887
0.540123053299
0.540246855188
0.540375489175
0.540511255712
0.540655343219
0.540808290254
0.540971498285
0.541144113248
0.541323284646
0.541506631108
0.541689776476
0.541864582297
0.542030670345
0.542192034544
0.542371010748
0.542632490002
0.543063262355
0.502175090914
0.498684652949
0.498111383503
0.498690785129
0.499034125729
0.499183772512
0.499258899541
0.499312631062
0.49937052583
0.499440292897
0.499525802963
0.499625804783
0.499739272449
0.499863166333
0.499995768711
0.500134185492
0.500277020051
0.500421838632
0.500567708492
0.500713222019
0.500857640542
0.500999440039
0.50113862968
0.501273731475
0.501404030954
0.501528336228
0.501645805122
0.501754656372
0.501853862911
0.501941702992
0.502017088627
0.502078293486
0.502124631831
0.50215500424
0.502168886645
0.502165712011
0.502145873852
0.502109118459
0.502056344877
0.501988277253
0.501906449826
0.501812338618
0.501708167122
0.501596138476
0.501478966965
0.501359131811
0.501239754487
0.501123643886
0.50101372306
0.500913454983
0.50082944692
0.500765256212
0.500727251972
0.500722668121
0.500757904989
0.500838839461
0.500968703841
0.501144202464
0.501363549542
0.501624792812
0.501926895686
0.502267101467
0.502645127254
0.503063521182
0.503529547342
0.504047240834
0.504622178165
0.505258708991
0.505956502477
0.506711476771
0.507520508792
0.508380745068
0.509279358911
0.510202204957
0.511146291198
0.512105688772
0.513065333852
0.514019338745
0.514977296171
0.515921971249
0.516844664141
0.517731352207
0.518578680013
0.519413065871
0.520225125468
0.521004291784
0.521749842627
0.522462724794
0.523180350294
0.523926946019
0.524659173312
0.52541046596
0.526169909486
0.52689194901
0.527572656659
0.528166015587
0.528644503902
0.529003169366
0.529261896068
0.529434225477
0.529587864159
0.529780615027
0.530023332137
0.530309762656
0.53065968745
0.531075455694
0.531525071252
0.531981839192
0.532428856719
0.532853382434
0.533244542435
0.53359997162
0.533922227361
0.534215402692
0.534483853472
0.534731956594
0.534963180761
0.53517968183
0.535382016517
0.535570093828
0.53574502998
0.535909491258
0.536066198103
0.536216704545
0.536361675303
0.536501399741
0.53663616248
0.536766341548
0.536892449799
0.537015089572
0.537134848773
0.537252200914
0.537367525924
0.537481339237
0.537594364979
0.53770730223
0.537820107182
0.53793133797
0.538038850911
0.538140890234
0.538238228775
0.538333461853
0.538428885087
0.53852514762
0.538621846761
0.538718537338
0.538815036269
0.538911444786
0.539007759442
0.539104037434
0.539200267421
0.539296500813
0.539392793416
0.539489197482
0.539585833283
0.539682856416
0.539780376747
0.53987851422
0.539977329404
0.540076996782
0.5401779012
0.540280473543
0.540385268808
0.540493321181
0.540605793075
0.540724074853
0.540850316277
0.540985737092
0.541131023343
0.541287549967
0.541454709734
0.541630142069
0.541812561798
0.54199944422
0.542185195056
0.542371744191
0.542566681416
0.542794575016
0.543113397169
0.543587542493
0.502061870988
0.496765551444
0.497107492986
0.498385131531
0.498865131708
0.499080700454
0.499211526585
0.49932514806
0.499443197898
0.499570707562
0.499711062396
0.499861943046
0.500023345934
0.50019237901
0.500368281677
0.500548431675
0.500731990478
0.500916877068
0.501102614009
0.501287304961
0.501470794762
0.50165175974
0.501829573998
0.502003179953
0.502172381088
0.502335505743
0.502491941627
0.502640256173
0.502779521998
0.502908135136
0.503025196483
0.503129441179
0.503220110851
0.503296150031
0.503357597068
0.503403820906
0.503435084054
0.503451575711
0.503454194659
0.503443603195
0.503421395426
0.503388937723
0.503348225108
0.50330108289
0.503249559668
0.503195346553
0.503140169314
0.503085440131
0.503032717783
0.502983758571
0.502943789152
0.502918872478
0.502916979187
0.502949646998
0.503028467964
0.503163617043
0.503355474687
0.503597212133
0.503884579268
0.504212339616
0.504573609495
0.504960792981
0.505368997349
0.505808529706
0.506287742943
0.50681442591
0.507396134638
0.508041492555
0.508753461541
0.509523553571
0.51034388505
0.511215001463
0.51212639714
0.513051420618
0.514004570536
0.51497174085
0.515930179009
0.516872029544
0.517785588305
0.518666000376
0.519534577131
0.520379573239
0.521189705089
0.521966452194
0.522707691907
0.523419504038
0.524125308921
0.524845791918
0.525583920811
0.526323811561
0.527033513922
0.5277338041
0.528386684418
0.528978859112
0.52950829786
0.529952836285
0.530307726414
0.530580376736
0.530798051652
0.530982915142
0.531177087094
0.531399457254
0.531653877459
0.531949352186
0.532296062013
0.532681282327
0.533080992636
0.533479996858
0.533867694445
0.534235500755
0.534577356038
0.534891959228
0.535180302727
0.535444481507
0.53568729564
0.535911937941
0.5361210575
0.53631630056
0.53649809221
0.536666608668
0.536823223837
0.536970377382
0.537110306038
0.53724429566
0.537372877504
0.537496224515
0.537614474287
0.537727856561
0.537836755056
0.537941673443
0.538043163387
0.538141756003
0.53823808156
0.538332903058
0.538427212797
0.538521749505
0.538616224405
0.5387089746
0.538797684149
0.538880989153
0.538959863599
0.539036758902
0.539113713454
0.53919129867
0.539269279003
0.539347341554
0.539425474925
0.539503743323
0.539582221053
0.539660921518
0.539739804231
0.539818895984
0.539898240141
0.539977937187
0.540058128593
0.540139003722
0.540220729944