/*--------------------------------*- C++ -*----------------------------------*\
| =========                 |                                                 |
| \\      /  F ield         | OpenFOAM: The Open Source CFD Toolbox           |
|  \\    /   O peration     | Version:  v1806                                 |
|   \\  /    A nd           | Web:      www.OpenFOAM.com                      |
|    \\/     M anipulation  |                                                 |
\*---------------------------------------------------------------------------*/
FoamFile
{
    version     2.0;
    format      ascii;
    class       volVectorField;
    location    "19";
    object      Ua;
}
// * * * * * * * * * * * * * * * * * * * * * * * * * * * * * * * * * * * * * //

dimensions      [0 1 -1 0 0 0 0];


internalField   nonuniform List<vector> 
12225
(
(0.117950060091 53.4896442713 0)
(1.02442440808 12.7988805936 0)
(0.759445349973 12.4689406544 0)
(0.876231261129 12.2752986641 0)
(0.859619884522 12.0420874525 0)
(0.886783933368 11.8739999891 0)
(0.894837785899 11.7369425649 0)
(0.914226610444 11.6586524598 0)
(0.944726262196 11.6124651639 0)
(0.997732131024 11.5566712776 0)
(1.07490653228 11.424744506 0)
(1.16542156623 11.1479158492 0)
(1.24091231009 10.692345068 0)
(1.2822815518 10.1135242366 0)
(1.35742257278 9.53934254648 0)
(1.70131479149 8.93506665638 0)
(2.5206583786 7.60281766867 0)
(3.11307474882 4.03033135244 0)
(2.73892456085 -47.07609575 0)
(1.07790916418 -8.33572868927 0)
(1.25979868876 -8.28712988619 0)
(1.24045217281 -8.15528679544 0)
(1.28483781733 -8.06011131525 0)
(1.31785761722 -7.95858110143 0)
(1.36042232471 -7.83504336675 0)
(1.4122452594 -7.67564684819 0)
(1.47871129481 -7.46498257626 0)
(1.56137825496 -7.19682233824 0)
(1.65730293506 -6.87138270347 0)
(1.75284607869 -6.49830403559 0)
(1.82770250071 -6.09287754943 0)
(1.88066755767 -5.66084374558 0)
(1.97928007461 -5.17250231874 0)
(2.26914846835 -4.56047498837 0)
(2.75714570791 -3.81713690127 0)
(2.82839485898 -3.1544253346 0)
(-0.993999494567 35.0775355405 0)
(1.23724421658 4.18561860445 0)
(0.878139721074 4.24431222177 0)
(1.00064196635 4.05710712517 0)
(0.955438213943 3.92905487704 0)
(0.969718682083 3.76474636283 0)
(0.969803065874 3.58402217807 0)
(0.986910446351 3.38552848459 0)
(1.01580764455 3.16890882897 0)
(1.06050719958 2.93304012016 0)
(1.11535496543 2.67184014716 0)
(1.16766754036 2.3760772886 0)
(1.20196876544 2.04001444122 0)
(1.22551410548 1.67052142303 0)
(1.30454875002 1.2855933264 0)
(1.54604987947 0.86610378917 0)
(1.90776185252 0.260086422544 0)
(1.9730513898 -0.707523886243 0)
(2.78341491615 -24.659060687 0)
(0.780260633366 -2.28425305069 0)
(1.15166397453 -2.00330162127 0)
(1.05371554528 -1.95181698325 0)
(1.0915979975 -1.79752646552 0)
(1.09240881337 -1.66789781365 0)
(1.10852664301 -1.51597518329 0)
(1.13131791184 -1.36008070301 0)
(1.16674276424 -1.19747507332 0)
(1.21378809576 -1.03459752208 0)
(1.26629935253 -0.876273299902 0)
(1.31078816346 -0.727941563896 0)
(1.33409078986 -0.587490499251 0)
(1.34471812323 -0.44098548357 0)
(1.3938769651 -0.278200414811 0)
(1.53857301607 -0.156224340986 0)
(1.70544549942 -0.259653528402 0)
(1.64943590255 -0.716291299829 0)
(-0.814017322786 17.0350926979 0)
(1.19433950971 1.3228302392 0)
(0.890097963709 0.688597564696 0)
(1.00291614771 0.761224510802 0)
(0.974099155111 0.635955396118 0)
(0.991873274479 0.57273846207 0)
(1.00184353522 0.495731816572 0)
(1.02573608353 0.423303689221 0)
(1.0607118394 0.345144225144 0)
(1.10833856409 0.257639198073 0)
(1.16259923478 0.155957630634 0)
(1.21308508537 0.0403903560378 0)
(1.2520898259 -0.077099070509 0)
(1.29065663305 -0.170858927112 0)
(1.36364505836 -0.221808040053 0)
(1.48554117914 -0.270066725623 0)
(1.57159790492 -0.429109183136 0)
(1.484122644 -0.725608980676 0)
(1.85592802998 -9.76600465486 0)
(1.03060332703 -0.747098126683 0)
(1.01119615628 -0.370393553991 0)
(1.0287082219 -0.423443229805 0)
(1.02819535932 -0.348053664128 0)
(1.03765440371 -0.299344449392 0)
(1.04705028679 -0.236461221613 0)
(1.06500759692 -0.175434989639 0)
(1.09084215222 -0.11972937404 0)
(1.12471022478 -0.0791623828887 0)
(1.16162954365 -0.0624919270412 0)
(1.19473534333 -0.074459919365 0)
(1.22217601735 -0.109233168437 0)
(1.25716493063 -0.151856779382 0)
(1.32223048485 -0.196789254107 0)
(1.40994181922 -0.277343231187 0)
(1.44867333004 -0.445023926814 0)
(1.36669085713 -0.662674885095 0)
(0.537616474114 4.14775464454 0)
(1.01279627848 0.142030658403 0)
(0.972516431003 0.0447680652326 0)
(1.00493523301 0.0156448165069 0)
(1.00504627525 -0.0182371227015 0)
(1.0196054041 -0.043025745462 0)
(1.03398403914 -0.0580655960793 0)
(1.0559476099 -0.0663221652308 0)
(1.08382780438 -0.0705836453719 0)
(1.11649267716 -0.0767678787945 0)
(1.14909892393 -0.0906410686891 0)
(1.17685930258 -0.115089918304 0)
(1.20078049859 -0.146525606342 0)
(1.23239303294 -0.179367215278 0)
(1.28337004369 -0.220847066038 0)
(1.33801286315 -0.301229793933 0)
(1.34650523973 -0.441754821059 0)
(1.27621158474 -0.59763786104 0)
(1.01264259841 -1.16160925985 0)
(1.04156996288 -0.0934230052465 0)
(0.976076554544 -0.067571055153 0)
(1.00871342859 -0.0760893896543 0)
(1.00669323835 -0.0713459802661 0)
(1.01999855638 -0.0706243339757 0)
(1.03303383214 -0.0676041607709 0)
(1.05308505986 -0.0664800941279 0)
(1.07793833256 -0.0689078492109 0)
(1.10607030025 -0.0785211041825 0)
(1.13329084495 -0.0976793807226 0)
(1.15661181131 -0.125814479265 0)
(1.17809555859 -0.158441607532 0)
(1.20565482732 -0.192949779045 0)
(1.24259439759 -0.2384589693 0)
(1.27220808022 -0.314992501369 0)
(1.26365853095 -0.426469924037 0)
(1.20444450231 -0.538081241333 0)
(0.923970861918 0.2681487952 0)
(1.01968145277 -0.088610484819 0)
(0.98353188244 -0.0542307689405 0)
(1.00676329515 -0.0758291602341 0)
(1.0081232597 -0.0735933623625 0)
(1.02022974315 -0.0767020608038 0)
(1.03301933671 -0.075758145974 0)
(1.05110759612 -0.0767870549697 0)
(1.07270724552 -0.081332911482 0)
(1.09608015118 -0.0927704538182 0)
(1.11807624101 -0.112516987932 0)
(1.13714921392 -0.139504144148 0)
(1.15545555925 -0.170575365516 0)
(1.17738136159 -0.205629239266 0)
(1.20141984443 -0.252469189328 0)
(1.21362283542 -0.32148709744 0)
(1.19654251972 -0.40852492667 0)
(1.14672689658 -0.490143099529 0)
(0.948564345874 0.0234306236057 0)
(1.01714358273 -0.0728859673035 0)
(0.987313716611 -0.0544336558509 0)
(1.00687167259 -0.0701343309377 0)
(1.00940976546 -0.0697833890058 0)
(1.02040743262 -0.0739434805338 0)
(1.0324453462 -0.0757183241249 0)
(1.04837325047 -0.0798847722797 0)
(1.06667612813 -0.0876914331459 0)
(1.08563799939 -0.101549618999 0)
(1.10304247081 -0.122067439899 0)
(1.11821871177 -0.148157774137 0)
(1.13277420048 -0.178075033887 0)
(1.14837686016 -0.213022059286 0)
(1.16156899429 -0.258428657547 0)
(1.16228617627 -0.318259534929 0)
(1.1414795923 -0.386211604764 0)
(1.09923475426 -0.447569048024 0)
(0.959193032908 0.0486134369236 0)
(1.01196791282 -0.0754979186261 0)
(0.992659826156 -0.0560905402403 0)
(1.0071352351 -0.0704008885609 0)
(1.01093873604 -0.0703404028659 0)
(1.02031695939 -0.075163614199 0)
(1.03122565456 -0.078711350155 0)
(1.04469277631 -0.0850636807151 0)
(1.05967092578 -0.0950619734007 0)
(1.07455404555 -0.110302678423 0)
(1.0878882541 -0.130868405197 0)
(1.09939248401 -0.155875802153 0)
(1.10991282597 -0.184563693918 0)
(1.11939488411 -0.218352386041 0)
(1.12416660412 -0.260270578082 0)
(1.11767982933 -0.310736532993 0)
(1.09571759175 -0.363940619358 0)
(1.0595173441 -0.410945302524 0)
(0.966684755524 0.0457189295953 0)
(1.00774176449 -0.0723554915173 0)
(0.995680826719 -0.0571200563981 0)
(1.00607206125 -0.0689802640204 0)
(1.01054735935 -0.0701148202872 0)
(1.01830176849 -0.0755206356519 0)
(1.02788343784 -0.0806694719793 0)
(1.03898950777 -0.0886655157066 0)
(1.05100773432 -0.100141009058 0)
(1.06249235841 -0.116083966915 0)
(1.0724849989 -0.136359475172 0)
(1.08077683341 -0.160362042216 0)
(1.08759544724 -0.187849431478 0)
(1.09213473649 -0.219901778394 0)
(1.09130672629 -0.25780836591 0)
(1.08100743449 -0.300415589601 0)
(1.05937103813 -0.343136146225 0)
(1.02776211763 -0.380425511175 0)
(0.976997491335 0.0507620979498 0)
(1.00468722609 -0.0686117311557 0)
(0.998693255436 -0.056851657492 0)
(1.00530364031 -0.0669185951151 0)
(1.01010240666 -0.0692864909168 0)
(1.01620563596 -0.0753250341278 0)
(1.02430845242 -0.0818136620399 0)
(1.03308414103 -0.0910346959076 0)
(1.04230863687 -0.103424656783 0)
(1.05070134165 -0.11957076376 0)
(1.05762639065 -0.139295459442 0)
(1.06283753205 -0.162208916435 0)
(1.06614848369 -0.188227156578 0)
(1.0664896541 -0.217915616168 0)
(1.06155535767 -0.251463997813 0)
(1.04894249323 -0.287297962156 0)
(1.02807033405 -0.322049619558 0)
(1.00018687986 -0.352206089125 0)
(0.987194275931 0.0401282960309 0)
(1.00157115614 -0.0684971842008 0)
(1.00119376558 -0.0604435540125 0)
(1.00398071234 -0.0689843461462 0)
(1.00873707394 -0.0725711143595 0)
(1.01297112729 -0.0790970941892 0)
(1.01929273324 -0.086608570445 0)
(1.02552987557 -0.0965336801014 0)
(1.03183592578 -0.109210062823 0)
(1.0370664757 -0.124900722887 0)
(1.04081775503 -0.143461857292 0)
(1.04278223591 -0.164642561435 0)
(1.04254389461 -0.188333469127 0)
(1.03912857955 -0.214618977749 0)
(1.03101559826 -0.243044431253 0)
(1.01700199497 -0.272145210067 0)
(0.997202725004 -0.299644762028 0)
(0.972688760758 -0.323447614877 0)
(0.997940478727 0.0514393988312 0)
(0.998254480672 -0.0650582965963 0)
(1.0032647484 -0.060976564147 0)
(1.00211196079 -0.0684057137484 0)
(1.00635916404 -0.0732567366387 0)
(1.0084673053 -0.0803404911609 0)
(1.01266503876 -0.0886968596496 0)
(1.01619855417 -0.0990916722016 0)
(1.01949093001 -0.111745317922 0)
(1.02156051984 -0.126727557164 0)
(1.02211718086 -0.143907536515 0)
(1.02085046957 -0.163077226615 0)
(1.01733373069 -0.184037676191 0)
(1.0108629748 -0.20652649833 0)
(1.0005744216 -0.229904639987 0)
(0.985981589809 -0.252973276746 0)
(0.967505297265 -0.274332051459 0)
(0.946002046571 -0.292740166549 0)
(1.01036577341 0.0414981739493 0)
(0.996254732682 -0.0631923428942 0)
(1.00501492147 -0.0632947148203 0)
(1.00028828937 -0.0694469095748 0)
(1.00342641036 -0.0751748592472 0)
(1.00326870324 -0.0824561325264 0)
(1.00510239868 -0.0910808146799 0)
(1.0058568842 -0.10135528984 0)
(1.00616941574 -0.113380080921 0)
(1.00516003779 -0.127131212725 0)
(1.00266353166 -0.142459384484 0)
(0.998405588723 -0.15914741919 0)
(0.992098109848 -0.176908920758 0)
(0.983331829391 -0.195372112621 0)
(0.97171033777 -0.213933457799 0)
(0.95711625521 -0.231757957816 0)
(0.940045309702 -0.248001312749 0)
(0.921180288766 -0.261979757866 0)
(1.01782719447 0.0531272068545 0)
(0.995518404174 -0.0545994619839 0)
(1.00494958458 -0.0579134511298 0)
(0.99753927447 -0.0633228438551 0)
(0.998861129548 -0.0697552258421 0)
(0.996416876454 -0.0771114699809 0)
(0.99573151339 -0.0857481877901 0)
(0.993773293636 -0.0955734619525 0)
(0.991240590933 -0.106676593975 0)
(0.987403731219 -0.118940436066 0)
(0.982180765441 -0.132209706693 0)
(0.975408851143 -0.146264914733 0)
(0.966956193214 -0.160784172727 0)
(0.956655309309 -0.175435009 0)
(0.944365059856 -0.189740314368 0)
(0.930135521974 -0.203201316031 0)
(0.914419276675 -0.215307913226 0)
(0.897734214586 -0.225713108034 0)
(1.01982424282 -0.0230396509429 0)
(0.99356694186 -0.0784247400295 0)
(1.0034796041 -0.0818090312103 0)
(0.993758513185 -0.0857261560568 0)
(0.992888905703 -0.0914134534663 0)
(0.988270935628 -0.097615858882 0)
(0.985152806494 -0.104886889363 0)
(0.980753537688 -0.112967528256 0)
(0.975744137857 -0.121921431342 0)
(0.969558968146 -0.131602982826 0)
(0.962204776368 -0.141871637669 0)
(0.953627760562 -0.152489428408 0)
(0.94381869212 -0.163204005391 0)
(0.932763087414 -0.173771772087 0)
(0.920433227358 -0.183880492429 0)
(0.906935090992 -0.19323425926 0)
(0.892671106324 -0.201552615665 0)
(0.878074880525 -0.208646972841 0)
(1.04354286604 0.299588125857 0)
(1.00042371113 0.0656029403537 0)
(1.00015479971 0.0543715670867 0)
(0.987965210024 0.0445781637302 0)
(0.984405758157 0.0347335566044 0)
(0.977780117902 0.0248427867246 0)
(0.972343895767 0.0145556739039 0)
(0.965720195174 0.00398446473802 0)
(0.958475980694 -0.00690783805258 0)
(0.950205296416 -0.0180561700882 0)
(0.94096338948 -0.0293448845039 0)
(0.93082944335 -0.0407202707236 0)
(0.919879209747 -0.0519389919729 0)
(0.908159273801 -0.0628161269161 0)
(0.895665613983 -0.0731812806377 0)
(0.882495310447 -0.082884703821 0)
(0.868968067311 -0.091805028557 0)
(0.85555144057 -0.09985266161 0)
(0.946559627067 -0.788215873038 0)
(0.971129579785 -0.303089731557 0)
(0.997825985602 -0.297083440117 0)
(0.987751162987 -0.291036333818 0)
(0.984781326661 -0.286960435258 0)
(0.977547310032 -0.282663108675 0)
(0.971435122657 -0.27895707536 0)
(0.964130139327 -0.275707287377 0)
(0.956254808265 -0.273023454265 0)
(0.947524726589 -0.270793338857 0)
(0.938085473656 -0.268976622269 0)
(0.927939402132 -0.267351987814 0)
(0.91723133069 -0.265897225981 0)
(0.906007289236 -0.26450288127 0)
(0.894293210558 -0.263071912195 0)
(0.882129034938 -0.261467060161 0)
(0.869810205084 -0.259629749414 0)
(0.857227301197 -0.257471844451 0)
(1.24234944509 2.25665379548 0)
(1.03485437457 0.569860666251 0)
(0.995384475257 0.535611835499 0)
(0.981164682728 0.50607510798 0)
(0.975324321435 0.480318209244 0)
(0.967607543066 0.45321804886 0)
(0.960312804517 0.426654276973 0)
(0.951814623064 0.400029087177 0)
(0.942684535563 0.373725984253 0)
(0.932726368047 0.347813346525 0)
(0.922070120939 0.322447530864 0)
(0.911000011039 0.297816096556 0)
(0.899659985419 0.274174252799 0)
(0.888140440573 0.251613253235 0)
(0.876441161589 0.230211428582 0)
(0.864636874255 0.210094084749 0)
(0.8530201919 0.191383980736 0)
(0.843221689018 0.174180107838 0)
(0.465883978086 -5.06970291696 0)
(0.925608204159 -1.03407243803 0)
(1.00459587619 -0.967563325091 0)
(0.999551062346 -0.935762814679 0)
(0.996923236121 -0.900050716432 0)
(0.987196623029 -0.863564220678 0)
(0.97927055927 -0.827966111477 0)
(0.969636780539 -0.793076358761 0)
(0.959742140338 -0.759182360855 0)
(0.949086814751 -0.726320380563 0)
(0.937906827349 -0.694803873953 0)
(0.926103919073 -0.665047305401 0)
(0.913844655466 -0.637162445999 0)
(0.901091243229 -0.610964704202 0)
(0.88781904256 -0.586482850393 0)
(0.87405648821 -0.563808808797 0)
(0.859959746934 -0.543057875474 0)
(0.843427915917 -0.524361610577 0)
(2.22886279131 9.82353965523 0)
(1.05517623115 1.31333246005 0)
(1.0131112466 1.14233333012 0)
(0.979606145859 1.11422196682 0)
(0.979512760095 1.05904314547 0)
(0.973347849127 1.00879296467 0)
(0.967222559934 0.958924552731 0)
(0.960391556132 0.909511744761 0)
(0.953297364594 0.861120929339 0)
(0.946064477429 0.813891019527 0)
(0.938843556709 0.76854629586 0)
(0.931625747042 0.72571239084 0)
(0.924514039652 0.685569535715 0)
(0.917625715218 0.647803287092 0)
(0.910935879816 0.612783216907 0)
(0.904348902537 0.58068879028 0)
(0.89799293868 0.551683630934 0)
(0.895302591275 0.525999316409 0)
(-1.22776479641 -17.1015060618 0)
(1.01905436456 -1.6479569358 0)
(0.965919102407 -1.29693003856 0)
(1.02582928209 -1.32651329208 0)
(1.00357604874 -1.25420656138 0)
(0.992965131608 -1.20952422642 0)
(0.980002143551 -1.16246801723 0)
(0.96519446486 -1.11983578114 0)
(0.949831691307 -1.08011675005 0)
(0.933365767119 -1.04321729518 0)
(0.916182427183 -1.00886147925 0)
(0.898515212435 -0.976676871122 0)
(0.880516405903 -0.94632407721 0)
(0.86219934437 -0.917456546036 0)
(0.843698327738 -0.890285333348 0)
(0.825440025004 -0.864679162232 0)
(0.808118224281 -0.840428574667 0)
(0.789012092732 -0.817432344939 0)
(4.69443558202 27.6014648441 0)
(0.803759229118 2.17868512481 0)
(1.14080988925 1.48261833038 0)
(0.973462897126 1.61109525675 0)
(1.02154398336 1.50754247951 0)
(1.00648862197 1.47259501721 0)
(1.00605076873 1.42335395642 0)
(1.00168630741 1.38199760227 0)
(0.998454461016 1.34269122412 0)
(0.995404876965 1.30649157592 0)
(0.99264073297 1.27272328887 0)
(0.989861095895 1.24053851244 0)
(0.986973348652 1.2091846555 0)
(0.983684525229 1.1779079353 0)
(0.979750315384 1.14586645728 0)
(0.974816947372 1.11242586624 0)
(0.968537198728 1.07742275228 0)
(0.964599366216 1.04135896874 0)
(-4.09969963252 -39.5799329556 0)
(1.54980061333 -2.9797555201 0)
(0.76933837381 -2.06147168448 0)
(1.07447470217 -2.25596802085 0)
(0.969052666491 -2.10955988825 0)
(0.978774136113 -2.07772111432 0)
(0.955887944653 -2.01831296963 0)
(0.940728894785 -1.972590457 0)
(0.923218207835 -1.92740924165 0)
(0.906026110827 -1.88557084532 0)
(0.888619050793 -1.84546465935 0)
(0.870866189726 -1.80675003911 0)
(0.852655213127 -1.76909702101 0)
(0.833940177165 -1.73198697568 0)
(0.814902768811 -1.69466676644 0)
(0.796286364133 -1.65605497206 0)
(0.779481297795 -1.61493723621 0)
(0.760997682579 -1.57092505515 0)
(6.26594063271 49.9639802261 0)
(0.190818980445 3.50004063683 0)
(1.39143230379 2.99519426316 0)
(0.974972422478 3.04872441795 0)
(1.10965688426 2.91328637512 0)
(1.06290741413 2.84897759326 0)
(1.07076261047 2.76559470207 0)
(1.06136100955 2.69379546038 0)
(1.05684451969 2.62252877987 0)
(1.05089407983 2.55490362034 0)
(1.04537216311 2.48965539572 0)
(1.03953130443 2.42714093999 0)
(1.03352622148 2.36740320437 0)
(1.02754952468 2.31079098707 0)
(1.02209897715 2.25763056827 0)
(1.0177115633 2.20792147227 0)
(1.01413183479 2.16084293118 0)
(1.01464853519 2.11451719162 0)
(-3.41075927274 -58.7819425228 0)
(1.72911226483 -4.53987463215 0)
(0.725924311904 -4.6725424599 0)
(1.05489584051 -4.39016922831 0)
(0.932546670925 -4.27158518659 0)
(0.952529641284 -4.12133263691 0)
(0.928381954266 -3.98906218661 0)
(0.917686892505 -3.8602341371 0)
(0.902681345383 -3.7377297749 0)
(0.889050333775 -3.62094775964 0)
(0.875146403744 -3.509834525 0)
(0.86137065787 -3.40449067338 0)
(0.847656424094 -3.30477766417 0)
(0.834090295327 -3.21072473 0)
(0.82063281872 -3.12283662377 0)
(0.807213424421 -3.04256261047 0)
(0.793620371381 -2.97225423383 0)
(0.773826779853 -2.91510797254 0)
(4.14098485588 65.8422241068 0)
(0.772033305443 6.98845374361 0)
(1.38254845535 7.34783509112 0)
(1.16557086575 6.84739290211 0)
(1.22691656539 6.64067417453 0)
(1.19987350289 6.36129573708 0)
(1.20067426595 6.1219603643 0)
(1.19213330997 5.88496725277 0)
(1.18588297928 5.66117973857 0)
(1.17845392848 5.44594827718 0)
(1.17098736602 5.23967147525 0)
(1.16286838907 5.04164508815 0)
(1.15422170964 4.85197855423 0)
(1.14487329892 4.6706859892 0)
(1.13433134592 4.49788354911 0)
(1.12170474345 4.33334693143 0)
(1.10522932306 4.17765929437 0)
(1.0908083698 4.03541677355 0)
(-0.0650951306418 -66.0651649498 0)
(0.957622646224 -9.88311811458 0)
(0.625883126851 -9.82784755802 0)
(0.713338304874 -9.25869910463 0)
(0.680703562398 -8.92600939354 0)
(0.685305191569 -8.54488000951 0)
(0.679181885276 -8.20013919161 0)
(0.67508243664 -7.86190613015 0)
(0.669649089965 -7.53955750542 0)
(0.663668344055 -7.23005191921 0)
(0.657130773598 -6.93409005523 0)
(0.650264969339 -6.65040884065 0)
(0.64348340984 -6.37787040138 0)
(0.636860949627 -6.11407096176 0)
(0.630070942815 -5.85658887039 0)
(0.623244699154 -5.60395569007 0)
(0.619640654648 -5.35230187602 0)
(0.620803159409 -5.08319212066 0)
(-0.0980949280972 0.00274649834687 1.79714027547e-18)
(-0.134421442054 -0.0408504681647 0)
(-0.226830563125 -0.0789214634915 0)
(-0.26933154665 -0.0880049015411 0)
(-0.280027750021 -0.0918998062184 0)
(-0.272361035514 -0.0683336898847 -1.20232464104e-18)
(-0.270391774423 -0.0467025664468 0)
(-0.258880145591 -0.0190267235368 0)
(-0.244739783841 0.00922692701559 3.90459632248e-19)
(-0.231149488796 0.0351955202576 0)
(-0.220939105678 0.0580664573316 -2.59274550124e-19)
(-0.215146264216 0.0782122122937 0)
(-0.213937604536 0.0967432777977 -1.90601224754e-19)
(-0.216486863681 0.114914849342 -1.67405491614e-19)
(-0.221759453445 0.133774278637 0)
(-0.228645834577 0.154050294409 1.33575314337e-19)
(-0.236236754511 0.17604113285 1.20922493244e-19)
(-0.243880158809 0.1997795817 1.10262289484e-19)
(-0.251131289755 0.224991889471 0)
(-0.257796298637 0.251327977278 0)
(-0.263776223664 0.278321010485 0)
(-0.269113546082 0.305555911116 0)
(-0.273843763198 0.332596558938 0)
(-0.278070219502 0.359113652745 0)
(-0.281832806743 0.384791524688 -6.67304928298e-20)
(-0.285218003162 0.409412776708 -6.30467799704e-20)
(-0.288248601302 0.432795857732 0)
(-0.290972625082 0.454828379338 5.67371418925e-20)
(-0.293366566238 0.475413145445 5.40194252727e-20)
(-0.295443030953 0.494485227774 5.154477373e-20)
(-0.297164745457 0.511997028643 0)
(-0.298531503666 0.527905041814 0)
(-0.299505814349 0.542182575839 -4.53133744923e-20)
(-0.300073866234 0.554784717501 0)
(-0.300206736012 0.565690536111 0)
(-0.299887048987 0.574842465407 -4.04697085561e-20)
(-0.299106007534 0.582214435563 0)
(-0.297844217581 0.587740493925 0)
(-0.296104371341 0.591380592988 0)
(-0.293867912903 0.593054931354 0)
(-0.291151244022 0.592708721199 0)
(-0.287935697849 0.590252409782 6.73784310513e-20)
(-0.284247075879 0.58561334155 0)
(-0.280069942423 0.578695937468 0)
(-0.275438444251 0.569410386761 6.27884901153e-20)
(-0.270348028783 0.557664751949 6.1524526209e-20)
(-0.264828195078 0.543352355762 0)
(-0.258894070066 0.526386195421 0)
(-0.252573980043 0.50665918962 5.84425592055e-20)
(-0.245889945761 0.484088857545 0)
(-0.238864767727 0.458559275918 -5.69185980816e-20)
(-0.231531621612 0.42999859037 0)
(-0.223888049533 0.398285333402 5.57691245219e-20)
(-0.215968776038 0.363327140855 0)
(-0.207779118971 0.325006071483 5.49562284593e-20)
(-0.199344035434 0.28321780817 5.46649527042e-20)
(-0.190657152359 0.237829823802 0)
(-0.181739722889 0.18871348622 0)
(-0.172585749575 0.135724288801 0)
(-0.163207424944 0.0787057241743 5.41832401471e-20)
(-0.153602185359 0.0174939525086 0)
(-0.143781562894 -0.0480904892819 0)
(-0.133762157862 -0.118196566372 0)
(-0.123674177579 -0.192775133705 0)
(-0.113412105719 -0.271169695246 0)
(-0.102995483503 -0.35267052297 0)
(-0.0923960719466 -0.436631217377 0)
(-0.081587325642 -0.522453129252 -5.57801231233e-20)
(-0.0705903198629 -0.609544767734 0)
(-0.0594259925736 -0.697300196804 -5.65934349374e-20)
(-0.0481344303926 -0.785109631059 -5.70494485516e-20)
(-0.036741263254 -0.87234236216 0)
(-0.0252788247737 -0.958382135241 5.80401138405e-20)
(-0.0137674464681 -1.04259272324 0)
(-0.00222144111233 -1.12437250562 -5.91143023826e-20)
(0.00934747575855 -1.20310826223 0)
(0.0209319224941 -1.27821933134 6.02581368914e-20)
(0.0325288568643 -1.34912084633 -6.08572401547e-20)
(0.0441328948008 -1.41527238557 0)
(0.0557509950853 -1.47613133329 0)
(0.0673960922052 -1.531208574 0)
(0.079099473806 -1.58002630788 0)
(0.0909015659605 -1.62218990689 -6.43348046178e-20)
(0.102890397996 -1.65736379718 6.5205166003e-20)
(0.115188750654 -1.68536968812 -1.32356334444e-19)
(0.127942028371 -1.7061508288 -1.34560305548e-19)
(0.141360865327 -1.71989115229 -1.37090717066e-19)
(0.155607975432 -1.72697342777 0)
(0.170917079926 -1.72799033071 0)
(0.187387439571 -1.72384900779 0)
(0.205189030553 -1.71551852503 -1.52143159342e-19)
(0.224697043798 -1.70433154951 0)
(0.246267204763 -1.69170593105 0)
(0.27017845523 -1.67911123183 -1.71920537199e-19)
(0.296663800055 -1.66791596389 0)
(0.325982332258 -1.65949680351 1.91950281406e-19)
(0.358528568166 -1.65509854475 0)
(0.394966063173 -1.65581667701 -2.20393175104e-19)
(0.436237975721 -1.66241677763 0)
(0.483507724589 -1.67575821946 0)
(0.537094529568 -1.69602725946 0)
(0.595945800251 -1.72030784195 -3.21778053564e-19)
(0.659387336635 -1.74164098023 0)
(0.725729007189 -1.75145258507 -4.13418578782e-19)
(0.785098763633 -1.73908632535 -4.77617247689e-19)
(0.829742512931 -1.68779830827 0)
(0.867081541555 -1.5887898405 0)
(0.869657682606 -1.48591555703 0)
(0.836381475273 -1.38821234645 -1.05014689776e-18)
(0.920879023408 -1.19784758485 0)
(1.08327176984 -0.949041989423 0)
(0.895766730325 -0.578425254475 -3.32560483066e-18)
(0.51988524483 0.146373204743 -2.92617623055e-18)
(0.418832453871 0.452671698805 0)
(0.350333060009 0.702288693351 1.33661199963e-18)
(0.306377264509 0.919625489879 1.09381360983e-18)
(0.275543242662 1.11051354701 -9.42047285666e-19)
(0.253634096365 1.27928289531 0)
(0.23759689349 1.42851275433 0)
(0.225764915557 1.56017781159 0)
(0.217077304637 1.67551216552 6.63827770242e-19)
(0.210753609841 1.77544063311 0)
(0.206076135449 1.86050555162 6.02219325924e-19)
(0.202473557039 1.93133602153 0)
(0.19951973224 1.98837084017 0)
(0.196965144256 2.03219545894 0)
(0.194600948144 2.06312699859 -5.36545335043e-19)
(0.192235939909 2.0817540576 -5.273748123e-19)
(0.189658580056 2.08835912136 0)
(0.186636794912 2.08355279439 0)
(0.182907517735 2.06794072955 0)
(0.178224052991 2.04249876631 0)
(0.172417648742 2.00821498527 0)
(0.165476778549 1.96651359074 0)
(0.15752376804 1.91874750738 -1.0151649641e-18)
(0.148637894555 1.86883778497 0)
(0.13904968082 1.81855325255 0)
(0.128916564999 1.76894075526 0)
(0.118067409142 1.72064533067 1.03292520536e-18)
(0.106355639108 1.67465447456 1.04137445307e-18)
(0.0940093347418 1.63129801509 -1.05111951625e-18)
(0.0815338263733 1.59099311202 -1.06202886181e-18)
(0.0693407909703 1.55349999492 0)
(0.0575553972502 1.51887256671 0)
(0.0460509930885 1.48669997302 0)
(0.0347577064239 1.4570193101 -1.11709709277e-18)
(0.0235722071531 1.42924599995 0)
(0.0124735083488 1.40329376683 0)
(0.00135395615655 1.37834708471 1.16986845069e-18)
(-0.00979890289666 1.3541929402 0)
(-0.0211125689866 1.32972534324 1.20947101765e-18)
(-0.0325441416174 1.30456547921 0)
(-0.0441965708013 1.27723885575 1.25102960742e-18)
(-0.0558824213963 1.24723349247 0)
(-0.0676105506824 1.21276332366 0)
(-0.0790324774241 1.17339437583 0)
(-0.0901676548291 1.12719054222 0)
(-0.100683829826 1.07405614214 0)
(-0.110768260687 1.01209668032 0)
(-0.120129158062 0.94193285163 0)
(-0.129197909156 0.861826525142 0)
(-0.137712853396 0.772748002569 1.35628506006e-18)
(-0.145990933151 0.672621947908 0)
(-0.153277636152 0.563155116691 0)
(-0.159353815614 0.442107837717 1.26668645603e-18)
(-0.163945871123 0.311698487167 0)
(-0.166900899399 0.167933714226 0)
(-0.166428998603 0.0157265725376 1.01147796889e-18)
(-0.163316651443 -0.143901672721 0)
(-0.15997724495 -0.30498892698 0)
(-0.157329105222 -0.482241160125 4.80695785085e-19)
(-0.154935289119 -0.673346694248 -2.17129278744e-19)
(-0.12297185509 -0.894506551534 -1.00733142971e-19)
(-0.0856133666111 -1.12752393995 0)
(-0.0440909369804 -1.47935421024 0)
(0.0305199117602 -2.03207393324 -2.94864765963e-18)
(0.208144976002 -2.79345090136 0)
(0.416019767799 -3.27775699304 5.76818366159e-18)
(0.594072028525 -3.59599003988 7.62253702048e-18)
(0.0314132663349 -3.32149392484 0)
(-0.190589783165 0.227669110182 -5.5815366338e-18)
(-0.0973845780037 0.222985031613 0)
(-0.164676339492 0.0998025758164 1.91276059596e-18)
(-0.179824069326 -0.0145308084286 -1.20751961373e-18)
(-0.1578967955 -0.0833780707692 -8.74317946916e-19)
(-0.117570263149 -0.11619867506 3.46289198981e-19)
(-0.0746412175379 -0.127884666666 5.84793893816e-19)
(-0.0364602116208 -0.129426983918 0)
(-0.00508888077135 -0.126963418742 -2.15590733336e-19)
(0.0182994381043 -0.124191469344 3.80266500683e-19)
(0.033303578723 -0.123175107404 5.05149672776e-19)
(0.040718108195 -0.124787750793 -3.02350632432e-19)
(0.0418642864176 -0.129156032884 4.08732213771e-19)
(0.0384076576095 -0.135903219002 1.23295620245e-19)
(0.0318895563696 -0.14457867181 0)
(0.0236427721465 -0.154664864426 -1.03792251646e-19)
(0.0147030801926 -0.16583552644 -9.59625516133e-20)
(0.00582101268519 -0.1777937895 -8.91174537462e-20)
(-0.00246663755436 -0.190423189022 1.68332135425e-19)
(-0.0098281420624 -0.203598765161 0)
(-0.0160467328507 -0.217298442585 1.48306270181e-19)
(-0.0210413946892 -0.2314491787 0)
(-0.0247703981038 -0.246024479413 -1.32316776561e-19)
(-0.0272708768758 -0.260938547614 0)
(-0.0285877388382 -0.276121691836 1.77834816951e-19)
(-0.0288192679766 -0.291461551064 -5.79946463145e-20)
(-0.0280493052722 -0.306844412105 -1.08586226962e-19)
(-0.0263896554228 -0.322134929946 -1.54716478984e-19)
(-0.0239180106717 -0.337189306644 -4.8666385338e-20)
(-0.0207319184338 -0.351870007568 -4.66943868569e-20)
(-0.0168953786581 -0.366021878409 0)
(-0.0124831106667 -0.379518116498 -8.86770813986e-20)
(-0.0075361059498 -0.392205249 4.16491153208e-20)
(-0.00209324725834 -0.403975043163 0)
(0.00382579781217 -0.414690812772 0)
(0.0102092639864 -0.424267231803 3.76519881041e-20)
(0.01705511137 -0.432589703264 0)
(0.0243774913971 -0.439592150819 0)
(0.032185705064 -0.44518406062 0)
(0.0405100138907 -0.449312996535 0)
(0.0493643647501 -0.451909441488 0)
(0.0587833536957 -0.45292629468 6.86763743473e-20)
(0.0687769133766 -0.45231084221 1.29865574414e-19)
(0.0793725213795 -0.450012575285 0)
(0.09056928415 -0.445990022572 6.49248101562e-20)
(0.10237569556 -0.440180479631 -5.90936603911e-20)
(0.114777422681 -0.432545453758 0)
(0.127762736338 -0.423007034162 0)
(0.141303830538 -0.411518341783 -1.74708971371e-19)
(0.155359230159 -0.397982838887 -1.16854473403e-19)
(0.169897814138 -0.382336978184 5.54429121186e-20)
(0.184873529743 -0.364465935115 1.14905140114e-19)
(0.200248056609 -0.344281949903 5.9558445905e-20)
(0.215966357085 -0.321659911673 0)
(0.231986382103 -0.296484108737 -1.67322370698e-19)
(0.248249029702 -0.26861412227 -5.39825546848e-20)
(0.264714519131 -0.237908677051 0)
(0.281331108289 -0.204213924186 1.12780243787e-19)
(0.298059516221 -0.16735656295 -1.12897983941e-19)
(0.314849742151 -0.127161822717 -5.40857030779e-20)
(0.331663298001 -0.0834188342771 0)
(0.348465274794 -0.0359297245226 0)
(0.365305875539 0.0155220883165 0)
(0.382250486117 0.0706287917368 1.14973402701e-19)
(0.399093638932 0.128781094933 0)
(0.415696881231 0.189406287857 -1.16076591869e-19)
(0.431906523769 0.251920447558 0)
(0.447636139166 0.315701635701 -6.12022848214e-20)
(0.462807842161 0.380128461739 0)
(0.477351875648 0.444608432549 -6.21077908155e-20)
(0.491190859846 0.508575044313 -6.26218456104e-20)
(0.50425239761 0.571516690871 0)
(0.516469166877 0.632938799581 -5.89462903937e-20)
(0.527781950524 0.692399441811 0)
(0.538142413208 0.749449257494 6.01629731584e-20)