/*--------------------------------*- C++ -*----------------------------------*\
| =========                 |                                                 |
| \\      /  F ield         | OpenFOAM: The Open Source CFD Toolbox           |
|  \\    /   O peration     | Version:  v1806                                 |
|   \\  /    A nd           | Web:      www.OpenFOAM.com                      |
|    \\/     M anipulation  |                                                 |
\*---------------------------------------------------------------------------*/
FoamFile
{
    version     2.0;
    format      ascii;
    class       volScalarField;
    location    "23";
    object      p;
}
// * * * * * * * * * * * * * * * * * * * * * * * * * * * * * * * * * * * * * //

dimensions      [0 2 -2 0 0 0 0];


internalField   nonuniform List<scalar> 
12225
(
-4.57899236792
-5.32782938303
-5.56467414678
-5.62364301635
-5.66808005646
-5.70414715453
-5.719306152
-5.71177877342
-5.68303265542
-5.63285402938
-5.55947023541
-5.4602190475
-5.33156037903
-5.16849842622
-4.9637523654
-4.70633594334
-4.37713987353
-3.94262653273
-4.75283855986
-5.33849011696
-5.57022570681
-5.6328561729
-5.67567741996
-5.71019613506
-5.72471011583
-5.71694538263
-5.68817388531
-5.63819431746
-5.56526399474
-5.46676381409
-5.33924240898
-5.17789776631
-4.97585758552
-4.72322069993
-4.4049140391
-4.02990555512
-4.89570004152
-5.32557580218
-5.55777301119
-5.63297257901
-5.67768565768
-5.71245968832
-5.72799308495
-5.72151234685
-5.69412013422
-5.64580553302
-5.57503965389
-5.47944040769
-5.35592337941
-5.20036182822
-5.00722646212
-4.76964154241
-4.48052519684
-4.15759112942
-5.02063263515
-5.33831206009
-5.56222153802
-5.64677514085
-5.69156553875
-5.72472917557
-5.74001973171
-5.73411789742
-5.70778944944
-5.66118462574
-5.59302107816
-5.50121684951
-5.3831792479
-5.23568789429
-5.05490973557
-4.83718821413
-4.58144588954
-4.3052879465
-5.13201636022
-5.366032761
-5.5689651388
-5.65765989837
-5.70243336749
-5.73415328385
-5.7495555089
-5.74493760869
-5.72060034774
-5.6767910399
-5.61250875562
-5.52604713868
-5.41541055048
-5.27840591436
-5.11293675128
-4.91812088775
-4.69675254922
-4.46476976548
-5.2320780373
-5.40425986845
-5.58167960022
-5.67205253619
-5.71812710925
-5.7492621103
-5.765132108
-5.76220872214
-5.74040173635
-5.70004325129
-5.64047297489
-5.56044628182
-5.45863747561
-5.33390089912
-5.18572511014
-5.01537891255
-4.82792352666
-4.63767604539
-5.32289449524
-5.44992647693
-5.60097959125
-5.68961458227
-5.73652795138
-5.76694914434
-5.7830329438
-5.78183970015
-5.76294704557
-5.72669827164
-5.67276934256
-5.60040721396
-5.5089625038
-5.39826061158
-5.26910953145
-5.12428908969
-4.96996443726
-4.81874190809
-5.40630827942
-5.50064892105
-5.62680330262
-5.71095195067
-5.75829293364
-5.78851052517
-5.80527786119
-5.80640417737
-5.79123386684
-5.76008245656
-5.7129514691
-5.64959120921
-5.57000281432
-5.47485623583
-5.36597233913
-5.24707240203
-5.12464313805
-5.00954154207
-5.48388776797
-5.55471601924
-5.65875819785
-5.73657411827
-5.78373949876
-5.8141073379
-5.8318812864
-5.8356635001
-5.82474133756
-5.79942111539
-5.76000720049
-5.70673050756
-5.64017448009
-5.56168807186
-5.47378845643
-5.38066202184
-5.28859320947
-5.20666304743
-5.556957526
-5.61096388735
-5.69625207217
-5.7668206318
-5.81321507846
-5.84405552243
-5.86329962398
-5.870247717
-5.86427274609
-5.84568691153
-5.81504213523
-5.77298154297
-5.72056735427
-5.65964006182
-5.5931197337
-5.52528815109
-5.46192559851
-5.41043555479
-5.62661044026
-5.66862596106
-5.73858613596
-5.80182300728
-5.8470305704
-5.87864932529
-5.89988959231
-5.91055408756
-5.91018712257
-5.89913111414
-5.87813102717
-5.84816206568
-5.81064927343
-5.76774462208
-5.72252155074
-5.6790902916
-5.64255578146
-5.61877948875
-5.68820767755
-5.7224684573
-5.78127917751
-5.83824605564
-5.88219618975
-5.91480585186
-5.93838559429
-5.95299938135
-5.95837856691
-5.95491563601
-5.94348290755
-5.92527161655
-5.90191938797
-5.87570866675
-5.84966656291
-5.82758647337
-5.81390819575
-5.81328948462
-5.74780836961
-5.77640928648
-5.82640611765
-5.87788245229
-5.92065102668
-5.95449634648
-5.98083020605
-5.99982508481
-6.01138655234
-6.01596483114
-6.01451685256
-6.00836523897
-5.99927004951
-5.98951731598
-5.98197999487
-5.98004009493
-5.98745974985
-6.00774714388
-5.81429756737
-5.83839208702
-5.880944561
-5.92743564801
-5.96923297802
-6.00488389767
-6.03493064802
-6.05952658946
-6.07872659967
-6.09303954789
-6.10345935461
-6.11137339675
-6.11854353764
-6.12715068513
-6.13976278211
-6.15924910312
-6.18863016513
-6.23033333208
-5.88803074097
-5.90887080882
-5.94579377915
-5.98842808909
-6.02991513885
-6.06822653803
-6.10319633695
-6.13486040529
-6.16335782681
-6.18922700493
-6.21344230001
-6.23734045894
-6.26256513845
-6.29104656764
-6.32493069211
-6.36648231244
-6.4179714978
-6.480812251
-5.96905292171
-5.98790976946
-6.02134968759
-6.06190725569
-6.10436192018
-6.14659852375
-6.18798620187
-6.22838667648
-6.26794312635
-6.30715598817
-6.34689965608
-6.38833679746
-6.43286697132
-6.48203624133
-6.53749012704
-6.60084590312
-6.67366473498
-6.7564514941
-6.05652995544
-6.07466185425
-6.10699871393
-6.14785858695
-6.19322040522
-6.24112490577
-6.29069007844
-6.34160688361
-6.39392662736
-6.44803247024
-6.50459493158
-6.56450592133
-6.6287942365
-6.69855948316
-6.77489243127
-6.85880421282
-6.95121214495
-7.05188036778
-6.14749674312
-6.16614229644
-6.19992425297
-6.24393299069
-6.29470932952
-6.35041822109
-6.41005381802
-6.47314834302
-6.53959011635
-6.60955590807
-6.68343683986
-6.7617751803
-6.84518309132
-6.9342874771
-7.02966342117
-7.13179015043
-7.24107653143
-7.35672324542
-6.23434572685
-6.25500113364
-6.29328410273
-6.34395698332
-6.40329274633
-6.46935920849
-6.54107591042
-6.61783970738
-6.69933368248
-6.78547394199
-6.87633893057
-6.97210759034
-7.07298792912
-7.17917357545
-7.29080095827
-7.40791987032
-7.53055206572
-7.65748155032
-6.28448477501
-6.3083979396
-6.35370931312
-6.4133986093
-6.48246971706
-6.55874724964
-6.64126234531
-6.7294050331
-6.82271655585
-6.92092655251
-7.02391857001
-7.13164862722
-7.24408768005
-7.36117886368
-7.4828275223
-7.60886547244
-7.7391423063
-7.8722742614
-6.30074391267
-6.32858201788
-6.38214083265
-6.45132649245
-6.52932181931
-6.61399458541
-6.7048272851
-6.80133094279
-6.90297575555
-7.00941377791
-7.12045476638
-7.23595797747
-7.35576668603
-7.47969928804
-7.60753584965
-7.73901734989
-7.87391281346
-8.01079112933
-6.2932595136
-6.32695751311
-6.39165504033
-6.47182161007
-6.55852848631
-6.65057651846
-6.74835525753
-6.85151807672
-6.9594670536
-7.07185724773
-7.1885156398
-7.30926934011
-7.43389662258
-7.56214053931
-7.69370935089
-7.82827136844
-7.96553088199
-8.10398611212
-6.26591890905
-6.30865515935
-6.38845709218
-6.48082886119
-6.57550864983
-6.67388346248
-6.7776067493
-6.88631849495
-6.99935515922
-7.11646957772
-7.23756161453
-7.36244971835
-7.4908725171
-7.62252744899
-7.75708702307
-7.89417882567
-8.03350587848
-8.17359353849
-6.22118666338
-6.27839806341
-6.37835999589
-6.48324548965
-6.58436879304
-6.68779014548
-6.79622749797
-6.90899200648
-7.02545440749
-7.1456072782
-7.2694719579
-7.39687326813
-7.52753192742
-7.66113415618
-7.79732459238
-7.93568179042
-8.07581231262
-8.21613832363
-6.16038813255
-6.24098252457
-6.36657972318
-6.48268539719
-6.5884976796
-6.69652066375
-6.80953324728
-6.92609578039
-7.04570873719
-7.16866503212
-7.29508256166
-7.42478404796
-7.55748244519
-7.69286473103
-7.83056348441
-7.9701263695
-8.11112673198
-8.25200408154
-6.08348809734
-6.20175040146
-6.3571154101
-6.48040310723
-6.58786748449
-6.69867762281
-6.81444607726
-6.9330448058
-7.05432190321
-7.17884283592
-7.30675880853
-7.43786877899
-7.57188444851
-7.70848801355
-7.84728089107
-7.98773104009
-8.12922956296
-8.26985881396
-5.98988063258
-6.16727277312
-6.35344146153
-6.480502413
-6.59015754745
-6.70473278902
-6.82333259887
-6.94368050433
-7.06627373872
-7.19194052082
-7.32085495043
-7.4528436902
-7.58766800728
-7.72505243658
-7.86461663161
-8.00581379203
-8.14792901823
-8.28870793617
-5.87778873806
-6.14410063602
-6.34958122981
-6.47103841633
-6.58104843907
-6.69884956746
-6.81978168715
-6.94170114681
-7.06568848288
-7.19265735867
-7.32272709284
-7.45573434281
-7.59149544449
-7.72978674693
-7.8702812911
-8.01249773411
-8.15568398746
-8.29701421407
-5.74619864573
-6.15214260156
-6.36867780034
-6.47882595892
-6.5866553719
-6.7050251038
-6.82595399567
-6.94763929352
-7.07157069277
-7.1986332071
-7.32885165143
-7.46204233761
-7.59804183112
-7.73665674825
-7.87762691455
-8.02066992641
-8.16550837852
-8.310354337
-5.57548837361
-6.13434768897
-6.36352230559
-6.47065422068
-6.58020278163
-6.70073748978
-6.82291083478
-6.9453741228
-7.06992915456
-7.19750871476
-7.32813984633
-7.46166334267
-7.59794906315
-7.73683215068
-7.87809321717
-8.02159625153
-8.16749485204
-8.31985378657
-1.55229107018
-1.56336687703
-1.57253034466
-1.5827210411
-1.61073790383
-1.67155177392
-1.76994127775
-1.90812817335
-2.08901993848
-2.31505326305
-2.5881010474
-2.90946251097
-3.27984453942
-3.69936301845
-4.16754161026
-4.68332442958
-5.245091117
-5.85067784964
-6.4974109614
-7.18213577247
-7.90126844681
-8.65083277494
-9.42653116969
-10.2237878055
-11.0378359668
-11.8637665428
-12.6966269858
-13.5314713695
-14.3634664374
-15.1879360954
-16.0004646758
-16.7969277708
-17.5735856335
-18.3270903345
-19.0545568596
-19.753540325
-20.422082772
-21.0586556945
-21.6621797928
-22.231939924
-22.7675839305
-23.2690189783
-23.7363992802
-24.1700158728
-24.5702846787
-24.9376410964
-25.2725406117
-25.5753676166
-25.8464543141
-26.0860088613
-26.2941560993
-26.4708792948
-26.6160705259
-26.7294740136
-26.8107333477
-26.8593418785
-26.8747135187
-26.8561725553
-26.8031498279
-26.7154561446
-26.5934195179
-26.4376902464
-26.2493716926
-26.0299605032
-25.7813369836
-25.505619007
-25.2052159194
-24.8826812363
-24.5406996896
-24.1819170999
-23.8089460771
-23.4242090691
-23.0299776189
-22.6282448847
-22.2208038827
-21.8091409233
-21.394537231
-20.9779667962
-20.560195428
-20.141688257
-19.7227378164
-19.303399443
-18.8836353583
-18.463235135
-18.0419237295
-17.6192072777
-17.1943628947
-16.7660958375
-16.332308602
-15.8896042946
-15.433007642
-14.9555697379
-14.4481092702
-13.8990616145
-13.2947013515
-12.6196442012
-11.8577922546
-10.9935647088
-10.0134172598
-8.9074284585
-7.67078262866
-6.30481893974
-4.81754119144
-3.22353297071
-1.54361476574
0.196143992601
1.96540440538
3.73178086191
5.46268468014
7.12784335894
8.70056739376
10.1623811703
11.4946611728
12.6872293552
13.7355861287
14.6400076612
15.4115607386
16.0521816954
16.5718504418
16.9899430371
17.3111607435
17.550194626
17.7315875937
17.8663471984
17.9418015303
17.9541495673
17.9130406969
17.8321585096
17.7234689686
17.5965885461
17.458925351
17.3162831465
17.1730537443
17.0326605337
16.897586227
16.769685879
16.6501678389
16.539851631
16.4391053011
16.3480159376
16.2663800418
16.1938034624
16.1299439868
16.0744803954
16.0269376091
15.9868025814
15.9534854767
15.9262970649
15.9045132652
15.8874261512
15.8743765267
15.8647580974
15.8580229469
15.853675904
15.8512753558
15.8504271316
15.8507838965
15.8520396554
15.8539282189
15.8562225065
15.8587307383
15.8612937073
15.8637810008
15.8660970913
15.8681730701
15.8699714612
15.8714809366
15.8727282043
15.8737730789
15.8747205456
15.8757200753
15.8769913727
15.8788305123
15.8816465372
15.8859897159
15.8926340849
15.9026795679
15.9176815581
15.9409948016
15.9657184027
-1.49678825914
-1.52073017166
-1.55657536998
-1.58785801236
-1.62247131897
-1.68245088352
-1.7797119406
-1.91825205653
-2.10092490945
-2.32999056679
-2.60717059773
-2.93362320439
-3.30992506955
-3.73606832621
-4.21145758261
-4.73491898232
-5.30471419693
-5.91856093297
-6.57366472483
-7.26675062357
-7.99411270402
-8.75165561882
-9.5349612653
-10.3393407085
-11.1599148824
-11.9916736799
-12.8295677775
-13.6685724101
-14.5037837172
-15.3304789153
-16.1442088161
-16.9408467532
-17.7166663429
-18.4683669336
-19.1931269822
-19.888599048
-20.5529315964
-21.1847302907
-21.783049129
-22.3473235218
-22.8773387661
-23.3731463181
-23.8350202197
-24.2633690705
-24.6586938625
-25.0215088944
-25.3523134867
-25.651530703
-25.9194989743
-26.1564304627
-26.362427679
-26.5374632796
-26.6814010372
-26.7939747511
-26.8747874764
-26.9232938894
-26.9387705494
-26.9202095468
-26.8663721392
-26.7769378736
-26.6524888908
-26.4937298389
-26.3019492859
-26.0788073842
-25.8261333524
-25.5461014158
-25.2412691154
-24.9143169729
-24.5680211761
-24.2051359588
-23.8283371606
-23.4401254789
-23.0428000935
-22.6383954677
-22.2286955399
-21.8152023106
-21.3991662927
-20.9815573759
-20.563101011
-20.1442642567
-19.7253118389
-19.3063184906
-18.8872549742
-18.4679949154
-18.0483460176
-17.6279631706
-17.2062524694
-16.7820865233
-16.3534396476
-15.9169773679
-15.4676675285
-14.9985344652
-14.500335766
-13.961546696
-13.3685602055
-12.7061976141
-11.9584736953
-11.1097032116
-10.1458127504
-9.0558749519
-7.83368221652
-6.47915228412
-4.99917973328
-3.40793957023
-1.72657895948
0.0179142027247
1.79402080486
3.56857963726
5.30905825182
6.98629404089
8.570890738
10.0420313992
11.3820837915
12.5795916801
13.6351198312
14.5413423819
15.3099050192
15.9522314769
16.4743838716
16.8912377133
17.2239424593
17.4824554764
17.6749531348
17.8086585855
17.8826738696
17.897817423
17.8623743816
17.7878826727
17.6852799857
17.5637576915
17.4306942011
17.2919192787
17.1519619991
17.0143057108
16.8815546537
16.7556218374
16.6378233859
16.528986986
16.4295423835
16.3396268686
16.2591214108
16.1877454895
16.1250614763
16.0705043067
16.0235802419
15.983905218
15.9509816816
15.9241394294
15.9026622939
15.8858446162
15.8730329872
15.8636225116
15.8570704602
15.852882809
15.8506221492
15.8498941152
15.8503545302
15.8516978592
15.8536621624
15.8560188755
15.8585779362
15.8611798881
15.8636981381
15.8660353537
15.8681239248
15.8699251324
15.871429679
15.8726612826
15.8736788306
15.8745853309
15.8755301818
15.8767260279
15.8784623474
15.8811369149
15.8852860966
15.8916539609
15.9012883214
15.9155989349
15.9377522688
15.9566345924
-1.42681636576
-1.46533158552
-1.52084864067
-1.58961885627
-1.67508262127
-1.78390297177
-1.92235397714
-2.09610379366
-2.30986532058
-2.56705994935
-2.87008405429
-3.22048616047
-3.61906306282
-4.06592240533
-4.56051988351
-5.10169171437
-5.68768367668
-6.3161808385
-6.98434541291
-7.68885273079
-8.42594329957
-9.19146779189
-9.98095445846
-10.7896639297
-11.6126710799
-12.4449282773
-13.281358609
-14.1169250296
-14.9467292465
-15.7660791615
-16.5705837654
-17.3562085646
-18.1193535916
-18.8568840868
-19.5661790237
-20.245126706
-20.8921366707
-21.5060968311
-22.0863496188
-22.6326199211
-23.144967592
-23.6236991572
-24.0693095098
-24.482391607
-24.8635845563
-25.2134984378
-25.532679161
-25.8215571203
-26.0804312251
-26.3094483641
-26.5086179904
-26.6778037556
-26.8167435784
-26.9249916724
-27.001985411
-27.0469519235
-27.0586781778
-27.0352750002
-26.9760541355
-26.8813672664
-26.7512748319
-26.586527201
-26.3885019328
-26.158705192
-25.8990307135
-25.6118992467
-25.2999282061
-24.9659285834
-24.612806549
-24.2434489784
-23.8606347626
-23.4669474396
-23.064725657
-22.6560199315
-22.2425877075
-21.8258936307
-21.4071276657
-20.9872102245
-20.5668239529
-20.1464429974
-19.7263783407
-19.3068180555
-18.8878869024
-18.4696684201
-18.0521790657
-17.635270975
-17.2184841087
-16.8007702567
-16.3801230673
-15.9531484252
-15.5148245071
-15.0582239875
-14.5742868215
-14.0517507054
-13.4772838254
-12.8357999674
-12.1109935363
-11.286257442
-10.3460509785
-9.27755588698
-8.07273993441
-6.73025469547
-5.25659763478
-3.66625555274
-1.98120105083
-0.229014207931
1.55810106692
3.3462188168
5.10090752571
6.79062849893
8.38642145334
9.86550480679
11.2140482371
12.4138752455
13.4674059163
14.3781553371
15.1502744261
15.7936932347
16.3288776974
16.7689773765
17.1169032022
17.3840015093
17.5816694802
17.7175875136
17.7942619903
17.8147451518
17.7865819233
17.7198392334
17.6246092226
17.5097167333
17.3825090006
17.2488524567
17.1134009263
16.9797170744
16.8505211379
16.7277700499
16.6128468104
16.5066181626
16.4095648042
16.321835409
16.2433338835
16.1737994433
16.1127952811
16.0598606517
16.0144015153
15.9759346606
15.9440712132
15.918177272
15.897542506
15.8814779077
15.8693339856
15.8605209593
15.854497684
15.8507815918
15.848935455
15.8485747781
15.8493550961
15.850978154
15.8531808881
15.8557416959
15.858469586
15.8612105923
15.8638365761
15.866252875
15.8683898873
15.8702090715
15.8716975955
15.8728789394
15.8738063113
15.874573958
15.8753183675
15.8762366401
15.8775912339
15.8797389554
15.8831486934
15.8884455233
15.8964473039
15.9080833714
15.9249613308
15.934600383
-1.46917924701
-1.52675992941
-1.60799341385
-1.71069168117
-1.83648805091
-1.98818477748
-2.16933161485
-2.38398252648
-2.63597300443
-2.9284910748
-3.26399446601
-3.64418184099
-4.07000106582
-4.5416795039
-5.05875539907
-5.62011282224
-6.22401817308
-6.86815629726
-7.54967501711
-8.26522591089
-9.01102072943
-9.78287930289
-10.5762998145
-11.3865157573
-12.2085804518
-13.0374333974
-13.8679976556
-14.695253673
-15.5143442345
-16.320648496
-17.1098833618
-17.8781647713
-18.6220895508
-19.3387671423
-20.025866398
-20.6816057261
-21.3047543645
-21.8945781878
-22.4508004029
-22.9735153921
-23.4631265561
-23.9202460876
-24.3456250733
-24.7400560372
-25.1043163627
-25.4390940683
-25.744953043
-26.0222861297
-26.2713052175
-26.4920288768
-26.6843072549
-26.8478310344
-26.9820676635
-27.08632218
-27.1597642629
-27.201212359
-27.2088825228
-27.1807213164
-27.1164201028
-27.0161538676
-26.8797077629
-26.7080462312
-26.5024399356
-26.2643574048
-25.9959342369
-25.6997841654
-25.3787358431
-25.0358218588
-24.6741441394
-24.2967549597
-23.9065534061
-23.5061941696
-23.0980291223
-22.6840684265
-22.2659806929
-21.8451200883
-21.4225745652
-20.9992130327
-20.57574477
-20.1527794177
-19.7308712181
-19.3105364934
-18.8922549298
-18.4764261672
-18.0632683904
-17.6526846128
-17.2441290569
-16.8364259413
-16.4274761314
-16.0139633133
-15.5911085044
-15.1524686367
-14.6895599581
-14.191567555
-13.6452571798
-13.0350737509
-12.3434792707
-11.5518591377
-10.6423381184
-9.5997344044
-8.41414486247
-7.08356591887
-5.6150269755
-4.02363718263
-2.3317108305
-0.566861987254
1.23706837685
3.04091178948
4.81035697599
6.51312192915
8.12058766139
9.60604708603
10.9555393201
12.1616245576
13.2211316287
14.1361972273
14.9241823167
15.5949832504
16.1505990985
16.6026266895
16.9616732995
17.2385872067
17.4434667515
17.584143001
17.6655509141
17.692650636
17.6728497705
17.6152843432
17.5292489916
17.4231388331
17.3041022533
17.1779694959
17.049403884
16.9220214414
16.7985856822
16.681109064
16.5710133313
16.4692130998
16.3762206557
16.2922220846
16.2171442658
16.1507308729
16.092576355
16.0422274447
15.9991599407
15.9628859358
15.9329440818
15.9087225953
15.8895409696
15.8747422746
15.8637021131
15.8558535316
15.8506721521
15.8476912772
15.8464844274
15.8466776576
15.8479336805
15.8499635699
15.8525098509
15.8553574745
15.8583189335
15.861244247
15.8640077687
15.8665166283
15.8687011675
15.8705241872
15.8719709209
15.8730581514
15.8738297623
15.8743699416
15.8747979525
15.8752829016
15.8760462302
15.8773793839
15.8796477412
15.883296358
15.8888075165
15.8964546063
15.9063790707
15.9060394579
-1.72400011457
-1.78720810498
-1.87894580971
-2.00019959387
-2.15092730819
-2.33221756989
-2.54613483769
-2.79517460575
-3.08180889312
-3.40823832006
-3.77624306771
-4.18707050233
-4.64137233207
-5.13917846103
-5.67989274125
-6.26230347809
-6.8846072307
-7.54443592494
-8.23889767582
-8.96461388477
-9.71777429396
-10.4941829208
-11.2893277259
-12.0984366707
-12.9165633295
-13.7386549926
-14.5596544184
-15.3745790986
-16.1786344185
-16.9672962889
-17.7364222953
-18.4823203838
-19.2018364747
-19.8923878961
-20.5520062395
-21.1793187147
-21.7735363165
-22.3343816691
-22.8620302994
-23.3570058842
-23.8201004481
-24.2522606256
-24.6545052855
-25.0278234199
-25.3731145746
-25.691116259
-25.9823744444
-26.247185387
-26.4856090258
-26.6974595179
-26.8823291487
-27.0396170082
-27.1684598308
-27.2678391588
-27.3365643696
-27.3730254369
-27.3749122757
-27.3411357405
-27.2712691648
-27.1644272722
-27.0208575995
-26.8415094148
-26.6273972151
-26.3801442426
-26.1022251143
-25.7963783735
-25.4656459423
-25.113248779
-24.7424521748
-24.3564344742
-23.9581689353
-23.5503227064
-23.1351976842
-22.714706193
-22.2903961131
-21.8635243853
-21.4351601364
-21.0062729939
-20.5778033945
-20.1507107461
-19.7259674507
-19.3044970081
-18.8870852104
-18.4742543546
-18.0661336545
-17.6623669004
-17.2621069158
-16.8640580679
-16.4663802837
-16.0663491493
-15.6600570532
-15.2419465648
-14.8042546112
-14.3363920874
-13.8246808263
-13.2524193894
-12.6002571787
-11.8471742576
-10.9729310776
-9.96030797749
-8.79732385002
-7.48104709895
-6.0186933668
-4.42635429405
-2.72699721872
-0.951487593774
0.86530623249
2.68026934974
4.45943853246
6.16975973203
7.7790697267
9.26910223523
10.6238847223
11.834451831
12.9103203202
13.8540477587
14.665082522
15.3515678534
15.9223213269
16.3881175614
16.7595835601
17.0472381086
17.2608366679
17.4086831358
17.4972876007
17.5329845848
17.5232516928
17.4766463204
17.4017623316
17.3065632362
17.1979012121
17.0815210467
16.9620172493
16.8430432258
16.7273618458
16.6170500663
16.5135512253
16.4178277763
16.3304233151
16.2515582267
16.18118401
16.1190559296
16.0648069594
16.0179912878
15.978170058
15.9448949196
15.9176269043
15.8957276579
15.8785641152
15.8655171776
15.8560083916
15.8494942276
15.8454816587
15.8435165286
15.8431947135
15.8441512376
15.8460666816
15.8486568711
15.8516780733
15.8549183649
15.8582013487
15.8613787645
15.8643322144
15.8669692204
15.8692251906
15.8710583448
15.872450424
15.8734105323
15.8739769588
15.8742165343
15.8742256187
15.8741373295
15.8741229771
15.8743947239
15.8751907004
15.8767431669
15.8791704051
15.8821057647
15.8845639142
15.8739493447
-2.16473156441
-2.22454247952
-2.3161896238
-2.44386102005
-2.60677935156
-2.80524747125
-3.04022908176
-3.31301491538
-3.62495450658
-3.97727611423
-4.3709456038
-4.80655330259
-5.28423704787
-5.80363195766
-6.36384480868
-6.96344266477
-7.60046123375
-8.2724170901
-8.97633864231
-9.7087932689
-10.4659357899
-11.2435475524
-12.0371019486
-12.8418168764
-13.6527401124
-14.464818634
-15.2730057898
-16.0723481373
-16.8581097553
-17.6258668517
-18.371631638
-19.0919313357
-19.7839023323
-20.4453229384
-21.0746501675
-21.6709868525
-22.2340493333
-22.7640720383
-23.2617240044
-23.727980974
-24.1640269308
-24.5711272356
-24.9505373488
-25.3033970928
-25.6306705868
-25.9330770068
-26.2110633081
-26.4647570549
-26.693981507
-26.8982646802
-27.0768831549
-27.228900437
-27.3531506929
-27.4482956152
-27.5128699256
-27.5451450237
-27.5430090268
-27.5052590314
-27.4308808983
-27.3187049448
-27.1691780387
-26.9829273999
-26.7608526373
-26.505042214
-26.2181163642
-25.9029422726
-25.5627398033
-25.2008854403
-24.8207780665
-24.4256949689
-24.0186633835
-23.6023602239
-23.1790667444
-22.7506784351
-22.3187613651
-21.8846521116
-21.4495838557
-21.0147737945
-20.5814612167
-20.1509092114
-19.7243263541
-19.3027521957
-18.8869390341
-18.4772530321
-18.0736115281
-17.6754987726
-17.2820908045
-16.892487376
-16.5056751022
-16.1200580131
-15.7326699435
-15.3385139483
-14.929790892
-14.4953091932
-14.0202185099
-13.4863900962
-12.8729865111
-12.1572105303
-11.3170062994
-10.3336662514
-9.19236785526
-7.88864974886
-6.43064568024
-4.83867127745
-3.13872799748
-1.36146503886
0.460563967902
2.27760189918
4.05281076913
5.76322056846
7.37386061043
8.86578524247
10.2350323995
11.470992469
12.5685124354
13.5291626538
14.3569391761
15.0592773815
15.6451228633
16.1247792717
16.5088706254
16.8078616515
17.0315612913
17.1886920021
17.2868051824
17.3331026557
17.3352365042
17.3013508439
17.2395241278
17.1572594926
17.0611286053
16.9566881807
16.8484624867
16.7400591154
16.6342508843
16.5331220344
16.4381501544
16.3503140352
16.2701967263
16.1980405442
16.1338224043
16.0773145199
16.0281929418
15.9860202698
15.9504928196
15.9211876513
15.8974334437
15.8786014561
15.8641110311
15.8533949415
15.8459218738
15.8411839776
15.838720086
15.8381006451
15.8389461454
15.8409083312
15.8436853958
15.8470056584
15.8506402664
15.8543870796
15.858080952
15.8615790316
15.8647711207
15.8675681383
15.8699074532
15.8717435171
15.8730579123
15.873854763
15.8741612811
15.8740236451
15.8735125502
15.8727217438
15.8717654161
15.8707638669
15.8698178807
15.8689409261
15.8678975823
15.8657721569
15.8607817061
15.8403217877
-2.71672085528
-2.77083521745
-2.85914616047
-2.98737827079
-3.15456841019
-3.36101390881
-3.60720072247
-3.89374154385
-4.22125118203
-4.59023489736
-5.0009861016
-5.45349640998
-5.94739079031
-6.48187587615
-7.05571091912
-7.66718609825
-8.31412238429
-8.99387180184
-9.70333933475
-10.4389991994
-11.1969353539
-11.972871907
-12.7622335377
-13.5601935569
-14.3617590691
-15.1618428561
-15.9553780775
-16.7374154596
-17.5032622286
-18.2485918539
-18.9695834186
-19.6630111456
-20.3263435834
-20.9577728112
-21.5562375946
-22.1213686174
-22.6534292056
-23.1531894523
-23.6218142239
-24.0607117969
-24.4714183199
-24.8554620511
-25.2142692702
-25.5490583199
-25.860782048
-26.1500649765
-26.4171854289
-26.662047118
-26.88420954
-27.0829153993
-27.2571490716
-27.4056759289
-27.5270788593
-27.6197262641
-27.6819132843
-27.7119800143
-27.7080322804
-27.6679685568
-27.5902430537
-27.4741680907
-27.3197780791
-27.1273700199
-26.8981935318
-26.6345092614
-26.3389280893
-26.0144970172
-25.6646078499
-25.2928114556
-24.9026599651
-24.4975543171
-24.0806235888
-23.6546427427
-23.2220095909
-22.7847677767
-22.3446501704
-21.9031506027
-21.4616283934
-21.0213833518
-20.5836925708
-20.149805609
-19.7208787355
-19.2978908786
-18.8815713495
-18.4724007324
-18.0706323339
-17.676329363
-17.2893505563
-16.9095210554
-16.5365583587
-16.1693554566
-15.8048603869
-15.4373083914
-15.0576864695
-14.6535637927
-14.2093697838
-13.7063975311
-13.1235227384
-12.4372365178
-11.6240751064
-10.6647992807
-9.54266956458
-8.25293319336
-6.80753730172
-5.22722780276
-3.53862729119
-1.77537003849
0.0329663323653
1.83990249095
3.60437210123
5.31013669889
6.93076800913
8.43884845519
9.8228275639
11.0732419331
12.1858316969
13.1613551393
14.0039194208
14.7205753647
15.3202784025
15.8131622868
16.2098463231
16.5207779954
16.7559044755
16.9242632333
17.0340732299
17.0930523941
17.1089983568
17.089740616
17.0429559678
16.9757038411
16.8942760662
16.8039867436
16.7092619829
16.6136135952
16.5198057971
16.429900453
16.3453922414
16.2672693883
16.196141421
16.1322749927
16.0756673559
16.0261178599
15.9833414297
15.946976563
15.9167911535
15.8923348969
15.8728618613
15.8577859198
15.8465754719
15.8387303705
15.8337613302
15.8312122637
15.8306507406
15.8316872223
15.8339605813
15.837152657
15.8409756581
15.8451833941
15.8495574038
15.8539154753
15.8580985917
15.8619786359
15.8654496971
15.8684317282
15.8708603115
15.8726940914
15.873912163
15.8745127933
15.8745064224
15.8739209115
15.8727966463
15.8711861878
15.8691374702
15.8666770928
15.8637660875
15.860206035
15.8554475878
15.8481433579
15.8360005252
15.8066159666
-3.30374565052
-3.35239614396
-3.43709478008
-3.56357567913
-3.73092836452
-3.93974871423
-4.19042927454
-4.48331570707
-4.81864324933
-5.19647778725
-5.61665726262
-6.07873145416
-6.58191837369
-7.12506184352
-7.70660893947
-8.32458656759
-8.97659957989
-9.65982396402
-10.3710232209
-11.1065558342
-11.8624094468
-12.6342239925
-13.4173476797
-14.2068818521
-14.9977676392
-15.7848617819
-16.5630607637
-17.3274106765
-18.0732621022
-18.7963959319
-19.4931771631
-20.160653486
-20.7966547145
-21.3998119029
-21.9695618639
-22.5060645133
-23.0101102983
-23.4829637908
-23.9262247695
-24.3416577119
-24.7310650338
-25.096148944
-25.4384201118
-25.7590968429
-26.0590529678
-26.3387665593
-26.5983170287
-26.8373766608
-27.0552535403
-27.2509372194
-27.4231567095
-27.57041086
-27.691021839
-27.7832189363
-27.8453138857
-27.8757356389
-27.8725769186
-27.8329783957
-27.7548181831
-27.6373092543
-27.4797849737
-27.2823974611
-27.0468176426
-26.7754382444
-26.4710558537
-26.1370116389
-25.7769604689
-25.3946950639
-24.9939664808
-24.5783445381
-24.1511119593
-23.7152006999
-23.2731666096
-22.8271809451
-22.3790519915
-21.9302829667
-21.4821821878
-21.0359601637
-20.5928099991
-20.1539444704
-19.7205791754
-19.2938976187
-18.8750474016
-18.4651742102
-18.0654475171
-17.6768502143
-17.2997897827
-16.9340628192
-16.5786373136
-16.2311279765
-15.8870139835
-15.539188846
-15.177715045
-14.789875632
-14.3612409632
-13.8742320505
-13.3085207419
-12.6403942407
-11.8459377432
-10.9078560167
-9.81160110053
-8.55003409695
-7.13436527417
-5.58562895712
-3.92820706531
-2.19282272643
-0.408245480873
1.38624042972
3.14852472031
4.85440479538
6.47781097022
7.99333615901
9.38593759043
10.6459340588
11.768933171
12.7553637323
13.6093065158
14.3377016321
14.9494245078
15.4545179408
15.863510425
16.1868532955
16.4345415018
16.6158483857
16.7393281979
16.8130124097
16.8447074331
16.8420205599
16.81223609
16.7620486114
16.697417341
16.6234343295
16.5443516751
16.4635908318
16.383850079
16.3071736051
16.2350289089
16.1684256123
16.1079758162
16.0539706428
16.0064271811
15.9651753666
15.929954184
15.9005904703
15.8768360073
15.8580875763
15.8436569985
15.8330228517
15.8257154601
15.8212953477
15.8193253428
15.8193972262
15.821118644
15.8241362305
15.8281184753
15.8327769465
15.8378484414
15.8431105968
15.8483635547
15.8534430367
15.8582036722
15.8625318399
15.8663302833
15.8695262353
15.8720593034
15.8738921986
15.8749999883
15.875372132
15.8750048549
15.8739057451
15.8720850272
15.8695485597
15.8662778548
15.8622071488
15.8571614419
15.8507497417
15.8421613542
15.8297385559
15.8109144085
15.7737150122
-3.85873874052
-3.90299497582
-3.98470382678
-4.1087439023
-4.27441081972
-4.48262205392
-4.73381190454
-5.02827049202
-5.36608047122
-5.7470882562
-6.17087473922
-6.63671714261
-7.14356522542
-7.69000953487
-8.27426843523
-8.89416672705