/*--------------------------------*- C++ -*----------------------------------*\
| =========                 |                                                 |
| \\      /  F ield         | OpenFOAM: The Open Source CFD Toolbox           |
|  \\    /   O peration     | Version:  v1806                                 |
|   \\  /    A nd           | Web:      www.OpenFOAM.com                      |
|    \\/     M anipulation  |                                                 |
\*---------------------------------------------------------------------------*/
FoamFile
{
    version     2.0;
    format      ascii;
    class       volScalarField;
    location    "23";
    object      pa;
}
// * * * * * * * * * * * * * * * * * * * * * * * * * * * * * * * * * * * * * //

dimensions      [0 2 -2 0 0 0 0];


internalField   nonuniform List<scalar> 
12225
(
2494.26878978
2494.11431399
2494.6480668
2494.968395
2495.5143368
2495.92270282
2496.21588166
2496.35958216
2496.46648607
2496.74038343
2497.36231218
2498.30662286
2499.16709541
2499.60701671
2500.82900716
2506.67591972
2519.01848049
2523.14420123
2514.63896261
2507.80106767
2507.8747785
2508.37164844
2508.8403227
2509.2630822
2509.60688239
2509.9531696
2510.43566271
2511.23678266
2512.43220357
2513.82963342
2514.92681264
2515.5841999
2517.36816183
2523.5317456
2532.91632366
2529.77456402
2488.1097189
2499.74084597
2500.38822754
2500.43850564
2500.51307414
2500.45948921
2500.32841421
2500.2145116
2500.28717783
2500.72813399
2501.58873199
2502.6430634
2503.44208656
2504.0206764
2505.95037425
2511.60448465
2518.84500548
2517.05290414
2511.87678302
2503.80773423
2504.23111338
2504.44877647
2504.64662849
2504.67122476
2504.59854659
2504.5108591
2504.56312826
2504.90263418
2505.53470956
2506.21300797
2506.57248806
2506.74828682
2507.95398078
2511.27696849
2514.18054159
2511.06209509
2493.48160956
2500.8542823
2501.48545199
2501.70592903
2501.92072777
2502.01928809
2502.06921174
2502.14578408
2502.38563901
2502.90161118
2503.67494478
2504.49784621
2505.15817968
2505.90155929
2507.53681601
2510.12048711
2511.21198007
2508.1529881
2508.90187099
2502.72237665
2502.37541889
2502.67341419
2502.77953239
2502.82191498
2502.81278615
2502.83363462
2502.98093914
2503.32113386
2503.80785947
2504.28531768
2504.6894232
2505.3372179
2506.72669759
2508.45017812
2508.65622254
2506.21315254
2496.35297932
2501.16249825
2501.87441035
2501.98409012
2502.16591638
2502.26202559
2502.36173476
2502.51045338
2502.77799725
2503.18002514
2503.64183485
2504.04019636
2504.38355799
2504.94683899
2505.95973627
2506.90723652
2506.62218922
2504.7295079
2503.97796261
2501.79822858
2501.86184067
2501.9958247
2502.08921076
2502.14292865
2502.21487153
2502.35404461
2502.60757443
2502.96704663
2503.35565787
2503.6887593
2504.00374031
2504.48085583
2505.15223248
2505.55544197
2505.03876452
2503.54688559
2500.7886752
2501.55818204
2501.75638713
2501.85773041
2501.951144
2502.00923365
2502.09016615
2502.23064855
2502.4604688
2502.75910087
2503.06365082
2503.32663803
2503.59147627
2503.94981233
2504.33142095
2504.38882386
2503.79199658
2502.58898463
2501.6226914
2501.4911855
2501.64865555
2501.72755317
2501.80988331
2501.86908502
2501.95527886
2502.09186825
2502.2928367
2502.53203243
2502.7623422
2502.96082971
2503.15992828
2503.38672851
2503.54003266
2503.38986444
2502.78612369
2501.79633486
2501.43931012
2501.43505528
2501.54676923
2501.61021605
2501.67813538
2501.73484849
2501.81760046
2501.94032694
2502.1051474
2502.2865073
2502.45129682
2502.58888828
2502.71458443
2502.817724
2502.80443578
2502.53729855
2501.95917175
2501.12989569
2501.38432548
2501.3612268
2501.44623372
2501.49454163
2501.55034765
2501.60150736
2501.67540632
2501.77871656
2501.90733738
2502.03886173
2502.14994431
2502.23357491
2502.29197465
2502.29877145
2502.18210435
2501.86148781
2501.32071632
2500.60779049
2501.31739753
2501.29381716
2501.3509064
2501.38552506
2501.42780653
2501.47016199
2501.53056733
2501.61041464
2501.70220754
2501.78724195
2501.84897036
2501.88140828
2501.87603427
2501.80606251
2501.61897127
2501.27421179
2500.77345116
2500.15484861
2501.22273353
2501.2119406
2501.24418002
2501.26434852
2501.28905375
2501.31770569
2501.3575073
2501.40779606
2501.45826914
2501.49494882
2501.5056386
2501.48341776
2501.41677357
2501.28152825
2501.04726636
2500.69564344
2500.23940509
2499.70542672
2501.11386882
2501.11451072
2501.12355261
2501.12524367
2501.1293844
2501.13631029
2501.14981556
2501.16400921
2501.17147318
2501.1588434
2501.1198343
2501.04454319
2500.92465934
2500.74198773
2500.48244496
2500.14030689
2499.73085368
2499.27395363
2500.97986294
2500.99787415
2500.9767864
2500.95797923
2500.93350961
2500.91390927
2500.89268101
2500.86860044
2500.83024608
2500.77224644
2500.68452081
2500.5644345
2500.4013793
2500.19001251
2499.92134515
2499.59961353
2499.23542876
2498.84519903
2501.05321326
2500.96546775
2500.90590115
2500.86050498
2500.80374937
2500.75042508
2500.69268818
2500.62815292
2500.54885578
2500.44852526
2500.32250735
2500.16628249
2499.97725836
2499.75181566
2499.48956801
2499.19330107
2498.87473347
2498.54606377
2499.99177591
2500.41375472
2500.40801127
2500.33374102
2500.2378569
2500.14929021
2500.05706875
2499.95795258
2499.84559703
2499.71463115
2499.56278849
2499.38740329
2499.18913029
2498.96707959
2498.72300664
2498.45938385
2498.18381864
2497.89474823
2503.35132942
2501.99196325
2501.41696223
2501.19084039
2501.0354353
2500.90312827
2500.77072051
2500.63063349
2500.47842313
2500.30970559
2500.12417832
2499.92113697
2499.70307342
2499.47048291
2499.22486253
2498.96828848
2498.71039261
2498.47222258
2494.76153728
2497.9429914
2498.80376881
2498.88779472
2498.82797401
2498.74565648
2498.64925665
2498.54389357
2498.42514433
2498.29318782
2498.14632487
2497.98641632
2497.81397467
2497.63189884
2497.44012464
2497.24291872
2497.04099284
2496.81189731
2508.13746121
2502.59197655
2501.05197134
2500.83952633
2500.71009619
2500.58276161
2500.4385891
2500.27827818
2500.10646127
2499.92237178
2499.72885181
2499.52707325
2499.32089338
2499.11022211
2498.89559549
2498.67298203
2498.44912892
2498.26744381
2487.85711034
2496.75500018
2498.94568345
2498.9565639
2498.87583949
2498.75649599
2498.62471817
2498.48148185
2498.32656794
2498.1603861
2497.98412223
2497.79803327
2497.60490854
2497.40496348
2497.20041483
2496.99668384
2496.8012543
2496.56733431
2517.16704179
2503.78209103
2500.69429545
2500.74664982
2500.6534205
2500.58590545
2500.47637619
2500.35847774
2500.22924982
2500.09271061
2499.94676375
2499.79449003
2499.6358471
2499.47381882
2499.30494231
2499.12617525
2498.93459584
2498.80824243
2476.0663704
2494.97185368
2498.99512498
2498.65086554
2498.57832172
2498.3909422
2498.21955163
2498.02150715
2497.81392906
2497.59773295
2497.37812976
2497.15831964
2496.94168482
2496.72829613
2496.51907424
2496.31932699
2496.13827817
2495.88929875
2527.47078785
2505.38500445
2500.94923062
2501.40259279
2501.26518497
2501.22713102
2501.10531176
2500.98697197
2500.85544719
2500.72395691
2500.5930715
2500.46445006
2500.33662246
2500.20614625
2500.06840196
2499.91519276
2499.74015383
2499.65630823
2474.24306503
2495.35870778
2498.71798966
2498.21934074
2498.1537042
2497.94619254
2497.77455698
2497.570284
2497.3614803
2497.14651802
2496.92963585
2496.70809224
2496.4795364
2496.23955345
2495.98827304
2495.74112681
2495.52815956
2495.23098862
2522.40086803
2503.69097412
2502.18342304
2502.40527877
2502.26590024
2502.14863874
2501.9956949
2501.84044766
2501.67661693
2501.51580813
2501.3589415
2501.20477944
2501.05703515
2500.91690364
2500.79122693
2500.68812918
2500.59807281
2500.62679988
2478.174853
2496.48511323
2497.47366546
2497.32077647
2497.174683
2497.03689136
2496.89594321
2496.74409256
2496.58669102
2496.4294242
2496.2720501
2496.11331596
2495.95649372
2495.80136268
2495.64483412
2495.48332358
2495.31080737
2494.95929811
2515.9667245
2506.14482618
2505.21150461
2505.15602103
2504.96073427
2504.79944156
2504.62000679
2504.43327823
2504.23593775
2504.03269009
2503.82057077
2503.59838074
2503.37035281
2503.13473246
2502.88114672
2502.58831192
2502.20943351
2501.92494676
2492.51208594
2492.00058601
2492.01717681
2491.90192875
2491.92725727
2491.90792144
2491.89673645
2491.8745493
2491.84652554
2491.81129734
2491.76685889
2491.71464577
2491.66254716
2491.61614982
2491.57280131
2491.53802824
2491.57238561
2491.65880731
2491.700167
2491.6937619
2491.68171931
2491.67088225
2491.66987105
2491.68386799
2491.71313171
2491.75671448
2491.81466404
2491.8875075
2491.97344716
2492.06923338
2492.16965626
2492.26906289
2492.36284192
2492.44768525
2492.52290725
2492.58909227
2492.64860202
2492.70411466
2492.7586993
2492.8148156
2492.87445179
2492.93892362
2493.00870923
2493.08358698
2493.1632817
2493.24637263
2493.33227243
2493.41869299
2493.5054592
2493.58959614
2493.67168681
2493.7484719
2493.82123904
2493.88645335
2493.94629239
2493.99765586
2494.04301124
2494.079827
2494.11065989
2494.13371102
2494.15121576
2494.16229474
2494.16857818
2494.17019153
2494.16794368
2494.16279099
2494.1549964
2494.14581395
2494.13508388
2494.12409583
2494.11243805
2494.10077141
2494.08916094
2494.07747464
2494.06600799
2494.05380284
2494.04115106
2494.02625476
2494.01036001
2493.99158739
2493.9722319
2493.95141324
2493.93205486
2493.91277213
2493.89454933
2493.87670585
2493.8602371
2493.84557574
2493.83289512
2493.82277947
2493.81456333
2493.80890562
2493.80486411
2493.80313112
2493.80308771
2493.80567756
2493.81068606
2493.81929353
2493.83119303
2493.84773286
2493.8687024
2493.8957375
2493.92832562
2493.96829002
2494.01543798
2494.07163857
2494.13727291
2494.21468682
2494.30521033
2494.40389354
2494.50608953
2494.60896117
2494.71234049
2494.81615062
2494.92155766
2495.02967722
2495.14243771
2495.26112421
2495.38655504
2495.51760902
2495.6486821
2495.77393164
2495.88151585
2495.97272714
2496.04706171
2496.11213818
2496.1714096
2496.2499816
2496.34457999
2496.45540519
2496.57691405
2496.68917609
2496.73783608
2496.76819718
2496.73701894
2496.7069315
2496.66022971
2496.56258166
2496.50626521
2496.51383046
2496.53605575
2496.55355096
2496.57340753
2496.61370676
2496.66869165
2496.73847216
2496.81058542
2496.88361784
2496.94161178
2496.98024501
2496.97791501
2496.92477536
2496.79225925
2496.56578208
2496.21191892
2495.72348334
2495.09376752
2494.36300226
2493.55406167
2492.69199424
2491.75819631
2490.74653909
2489.63562942
2488.43378784
2487.13089919
2485.75374953
2484.30797375
2482.84548144
2481.39566547
2480.04670071
2478.85892057
2477.96840643
2477.47466102
2477.57915647
2478.43636463
2480.34118724
2483.52678856
2488.41594289
2495.34458797
2504.89552943
2517.51976717
2533.97875491
2554.83922299
2581.06267962
2613.33466282
2652.81165686
2700.28201125
2757.10487869
2824.18912693
2903.04552816
2994.58984843
3100.6585641
3222.79581368
3363.43215493
3524.51889845
3709.46554737
3920.99348619
4160.13529751
2491.73572326
2491.71104732
2491.68991983
2491.67476463
2491.66604149
2491.66574048
2491.67894645
2491.71031331
2491.75973569
2491.82600698
2491.90641001
2491.99755067
2492.09529178
2492.19586225
2492.29659696
2492.39597139
2492.4939373
2492.59115296
2492.68901333
2492.78898141
2492.89237928
2493.00044902
2493.1137422
2493.23258604
2493.35669423
2493.48548629
2493.61794801
2493.7527223
2493.88860812
2494.02353484
2494.15636951
2494.28465178
2494.40771192
2494.52276617
2494.62951943
2494.72533512
2494.81039579
2494.88240386
2494.94193699
2494.98723187
2495.01897772
2495.03609913
2495.03926378
2495.0281561
2495.00332285
2494.96520872
2494.91419725
2494.85130797
2494.7767964
2494.69208186
2494.59737839
2494.49389449
2494.38195076
2494.26248697
2494.13589821
2494.0027615
2493.86378358
2493.71951415
2493.57160109
2493.42014916
2493.266366
2493.10940604
2492.94923322
2492.78405209
2492.61458755
2492.44194403
2492.2680551
2492.09352995
2491.91934586
2491.74644636
2491.57574946
2491.40844447
2491.24526577
2491.08732274
2490.93526282
2490.79003448
2490.65229748
2490.52306011
2490.40309922
2490.29327415
2490.19410626
2490.10640575
2490.03063634
2489.96754926
2489.91743301
2489.88144295
2489.86053855
2489.85666792
2489.87220837
2489.91265825
2489.98020869
2490.07290904
2490.18688944
2490.32004034
2490.47192172
2490.64169244
2490.82814154
2491.02879445
2491.24121965
2491.46126709
2491.68481066
2491.90587343
2492.11836881
2492.31482871
2492.49598174
2492.67067926
2492.8540616
2493.06296671
2493.30734078
2493.59551887
2493.9260837
2494.28936479
2494.68480881
2495.08882481
2495.46404329
2495.80923087
2496.10149635
2496.33827549
2496.56503415
2496.72250327
2496.82238191
2496.9129145
2496.96580599
2497.00047785
2497.04490556
2497.09444383
2497.14507106
2497.19221712
2497.22999405
2497.25174352
2497.24840572
2497.20978447
2497.12166702
2496.96836709
2496.72955881
2496.38403644
2495.90806637
2495.28703981
2494.52951311
2493.66791015
2492.736512
2491.74921586
2490.69315528
2489.55304495
2488.31532374
2486.97715148
2485.5387555
2484.01407585
2482.42091527
2480.79643655
2479.18489929
2477.65701315
2476.29180644
2475.20388761
2474.51657962
2474.40459631
2475.05296983
2476.72330572
2479.68794962
2484.32872983
2491.03070354
2500.32516256
2512.72263677
2528.92221182
2549.56315209
2575.53325588
2607.60267018
2646.85636426
2694.19622919
2750.90697835
2817.97570893
2896.80530548
2988.38969549
3094.40393855
3216.15205903
3355.66588387
3514.87120992
3697.81683977
3906.78392832
4144.42886704
2491.84412873
2491.72314439
2491.61093785
2491.51546942
2491.43479578
2491.37981495
2491.35462235
2491.35463879
2491.37302147
2491.40500364
2491.44583955
2491.49090573
2491.53548792
2491.57600507
2491.61047408
2491.63813829
2491.65951747
2491.67538807
2491.68698443
2491.69532385
2491.70158398
2491.70649451
2491.71085854
2491.71518699
2491.71988679
2491.72501456
2491.73078784
2491.73684476
2491.74325997
2491.74926394
2491.75495579
2491.75924646
2491.7623511
2491.76300895
2491.76166888
2491.75694387
2491.74959083
2491.73845392
2491.72437904
2491.70652741
2491.6858206
2491.66181961
2491.63537981
2491.60654372
2491.57602265
2491.54432098
2491.511932
2491.47965976
2491.44786686
2491.41737707
2491.38838633
2491.3616474
2491.33718475
2491.31540219
2491.29633205
2491.27993956
2491.26600567
2491.2536209
2491.24292186
2491.23343787
2491.22594866
2491.22071315
2491.21895675
2491.22071215
2491.22567661
2491.23307519
2491.24326262
2491.25637158
2491.27223926
2491.29063813
2491.31110792
2491.3334631
2491.35718216
2491.38208385
2491.40764403
2491.43366178
2491.4597854
2491.48597266
2491.51207841
2491.53807575
2491.56381576
2491.58929819
2491.61441429
2491.6390859
2491.66313516
2491.68672154
2491.71019016
2491.73407896
2491.76092151
2491.79436973
2491.83747329
2491.8886569
2491.94569224
2492.00974484
2492.08305059
2492.16936661
2492.27065272
2492.38844323
2492.52187717
2492.66934878
2492.82601394
2492.98418141
2493.13481501
2493.2673932
2493.38069688
2493.477572
2493.57362013
2493.67834445
2493.78655869
2493.90519862
2494.06622606
2494.26809012
2494.51999938
2494.78094147
2495.02016971
2495.23988527
2495.48665635
2495.71162075
2495.91846935
2496.12253701
2496.2463634
2496.33545094
2496.42449763
2496.50695965
2496.58917958
2496.67131875
2496.757319
2496.8432021
2496.92759858
2497.00164647
2497.05977629
2497.0886373
2497.07718661
2497.00550288
2496.85538998
2496.5996168
2496.21666327
2495.68947461
2495.02968714
2494.26614545
2493.43278109
2492.53890483
2491.57317239
2490.5224764
2489.37840854
2488.13614017
2486.79686737
2485.37448578
2483.88907008
2482.37766004
2480.88597193
2479.48480312
2478.25369929
2477.30751618
2476.76899215
2476.81318099
2477.62347022
2479.46200882
2482.59885368
2487.41636306
2494.29690415
2503.77088837
2516.3455655
2532.71283493
2553.50625037
2579.59571748
2611.7497769
2651.03201679
2698.36328187
2755.02476977
2822.09736295
2901.03279705
2992.96215749
3099.55500329
3222.09697486
3362.33092168
3521.64831412
3702.1784727
3905.131886
4132.49444242
2491.94587153
2491.51343979
2491.29505894
2491.18845783
2491.12091337
2491.09489183
2491.10710257
2491.14281498
2491.19023675
2491.24484099
2491.30360536
2491.36357483
2491.42131218
2491.47443107
2491.521797
2491.56325236
2491.59949613
2491.63114838
2491.65926893
2491.68433908
2491.70716468
2491.72808095
2491.74775997
2491.76626891
2491.78420158
2491.80150216
2491.81853839
2491.83504832
2491.85131054
2491.86682217
2491.88175527
2491.89540126
2491.90798994
2491.91858588
2491.92745591
2491.93370011
2491.93765932
2491.93843917
2491.93655525
2491.93126656
2491.92310264
2491.91160054
2491.89727022
2491.87997221
2491.86014243
2491.83793405
2491.81367205
2491.78767183
2491.7600727
2491.73129438
2491.70136017
2491.67053414
2491.63880953
2491.60635169
2491.57304848
2491.53891605
2491.50402683
2491.46833553
2491.4315003
2491.39298149
2491.35250275
2491.30916987
2491.26276742
2491.21333468
2491.16206255
2491.10920979
2491.05539933
2491.00127776
2490.94769804
2490.89536308
2490.84485647
2490.79680024
2490.75162024
2490.70985163
2490.67185373
2490.63810902
2490.60902647
2490.58511248
2490.56683121
2490.55463233
2490.54894183
2490.55018148
2490.55876376
2490.57506403
2490.59946944
2490.63245673
2490.67457465
2490.72661825
2490.79003307
2490.86851494
2490.96264752
2491.06916867
2491.1847599
2491.30793591
2491.43992457
2491.58214142
2491.7366522
2491.9045311
2492.0874377
2492.28549982
2492.49645711
2492.71521252
2492.93446269
2493.14723482
2493.34862416
2493.54218634
2493.73027603
2493.90104484
2494.03082948
2494.14215354
2494.26924455
2494.41472655
2494.58286017
2494.73663181
2494.87665523
2495.03445786
2495.24484419
2495.47992474
2495.72791842
2495.99675367
2496.22602013
2496.4223793
2496.60423402
2496.76967925
2496.92158699
2497.06279764
2497.19618816
2497.32022706
2497.43267284
2497.52722321
2497.59758703
2497.6328413
2497.62116346
2497.54457619
2497.38354834
2497.11236558
2496.71040027
2496.16711758
2495.49609198
2494.72808315
2493.89540724
2493.00215832
2492.03850718
2490.98994431
2489.85368344
2488.62031302
2487.29274838
2485.88133815
2484.4114823
2482.91496501
2481.44399532
2480.06207965
2478.85713883
2477.93386578
2477.42600293
2477.49469083
2478.33801141
2480.19985404
2483.37005769
2488.20801115
2495.12307795
2504.61689402
2517.23138165
2533.61960095
2554.45610651
2580.55782168
2612.7351474
2651.98013535
2699.27639323
2755.84815595
2822.93319339
2901.97770866
2994.35095361
3101.84185309
3225.90884265
3367.96254863
3528.77812481
3707.88943966
3905.51256484
4121.23703509
2491.90813969
2490.98710053
2490.80674128
2490.84508855
2490.88390994
2490.93179798
2490.99213342
2491.05256155
2491.10719449
2491.15810482
2491.20686085
2491.25348855
2491.29640526
2491.3344607
2491.3670644
2491.39413695
2491.41612277
2491.43324061
2491.44609632
2491.45475574
2491.45988871
2491.46135389
2491.4598045
2491.4551388
2491.44796672
2491.43810342
2491.42619492
2491.41201454
2491.39611105
2491.37821469
2491.35881494
2491.33759224
2491.31493549
2491.29054099
2491.26483261
2491.23739336
2491.2087541
2491.17855168
2491.1473147
2491.11474559
2491.08143488
2491.04719498
2491.01261612
2490.97766904
2490.9429007
2490.90841678
2490.87465828
2490.8417843
2490.81013581
2490.77982076
2490.75105203
2490.72398126
2490.69869877
2490.6752819
2490.65378332
2490.63416452
2490.61630634
2490.6000792
2490.5855833
2490.57320305
2490.56340103
2490.55650744
2490.55263834
2490.55105084
2490.55149197
2490.55392617
2490.55852165
2490.56518627
2490.5738194
2490.58415251
2490.59581924
2490.60844765
2490.62159307
2490.63496863
2490.64830354
2490.66158704
2490.67485476
2490.68839219
2490.7024959
2490.71758548
2490.73407156
2490.75240254
2490.77301901
2490.79634828
2490.8228403
2490.85302065
2490.88770327
2490.92770157
2490.97549824
2491.0343938
2491.10641401
2491.18932781
2491.28060522
2491.37987323
2491.48821701
2491.60695168
2491.73679966
2491.87836639
2492.0326493
2492.20012899
2492.37967057
2492.57191332
2492.77341285
2492.98443464
2493.2075211
2493.45334554
2493.70678288
2493.93729113
2494.1214775
2494.28118505
2494.43018647
2494.5751574
2494.70826699
2494.80332002
2494.8876121
2495.00093184
2495.18354822
2495.41138934
2495.67303031
2495.95375984
2496.20602388
2496.4273085
2496.62092452
2496.79166805
2496.94083656
2497.07656789
2497.19907662
2497.3124511
2497.41160647
2497.49566936
2497.5545936
2497.58211914
2497.56178094
2497.47977952
2497.31070691
2497.03390437
2496.62658038
2496.08656006
2495.42528026
2494.67704683
2493.8653065
2492.99582605
2492.05251067
2491.02779258
2489.91346683
2488.70654722
2487.40281898
2486.02032541
2484.57775505
2483.11466445
2481.67577616
2480.33261019
2479.16465332
2478.28481956
2477.8175142
2477.93207119
2478.81671445
2480.72324891
2483.93199709
2488.81003438
2495.75854261
2505.28633105
2517.92883085
2534.34583345
2555.20700867
2581.33337211
2613.52758236
2652.78452558
2700.08769788
2756.67277472
2823.79295387
2902.92770106
2995.51305878
3103.41470568
3228.0822424
3370.71441442
3531.79427791
3710.11941684
3905.30674828
4115.6800048
2491.70670812
2490.19251643
2490.28491948
2490.60105623
2490.77329723
2490.88185188
2490.96450783
2491.02553747
2491.07017334
2491.10672356
2491.13963513
2491.17042193
2491.19856132
2491.22357126
2491.24506811
2491.26285092
2491.27704337
2491.28747044
2491.29449128
2491.29782807
2491.29789708
2491.29441579
2491.28793356
2491.27808908
2491.26555931
2491.2500697
2491.23227254
2491.21196016
2491.18977568
2491.16557709
2491.13991299
2491.11269516
2491.08443765
2491.05501993
2491.02488492
2490.99397927
2490.96269221
2490.93090498
2490.89906621
2490.8670319
2490.83523757
2490.80356067
2490.77243268
2490.74176439
2490.71196177
2490.68294539
2490.65506431
2490.62819661
2490.60257225
2490.57805405
2490.55479233
2490.53261511
2490.51164104
2490.49177195
2490.47303736
2490.455353
2490.4386129
2490.42253824
2490.40685174
2490.39127027
2490.37548157
2490.35927733
2490.34312786
2490.3276929
2490.31344914
2490.30073735
2490.29015241
2490.28219079
2490.27737708
2490.27599608
2490.27818279
2490.2838151
2490.29258308
2490.3041212
2490.3179637
2490.33379813
2490.35135622
2490.37056674
2490.39142543
2490.41411805
2490.43888424
2490.46611454
2490.49625542
2490.52983066
2490.56742109
2490.60960215
2490.65712581
2490.71089031
2490.77278407
2490.84628354
2490.93253501
2491.02977406
2491.13553515
2491.24999118
2491.37411883
2491.50921939
2491.65522399
2491.81181326
2491.97778328
2492.15100851
2492.32914689
2492.50974437
2492.69184117
2492.88231525
2493.09987054
2493.35326104
2493.62408577
2493.88483292
2494.11951433
2494.33257842
2494.53465969
2494.71193337
2494.836387
2494.90297586
2494.96840237
2495.07052709
2495.24413853
2495.47042855
2495.73629111
2496.01758625
2496.2820073
2496.52031126
2496.7322882
2496.92056348
2497.08911896
2497.24296782
2497.384568
2497.5150034
2497.63168017
2497.73066566
2497.80412774
2497.84249687
2497.8310521
2497.75226706
2497.58239668
2497.29923414
2496.88749436
2496.34610896
2495.69241389
2494.95655958
2494.15894892
2493.30086721
2492.36895929
2491.35549888
2490.25415853
2489.0591827
2487.770203
2486.4026533
2484.97867016
2483.53452811
2482.11886149
2480.79873401
2479.65825543
2478.80421037
2478.36690308
2478.50732205
2479.42167989
2481.35042066
2484.58523208
2489.47804664
2496.44639295
2505.97931818
2518.63602221
2535.05312447
2555.93498926
2582.07489918
2614.3215355
2653.63832703
2701.06209278
2757.78025681
2825.05954769
2904.30047183
2996.94449353
3104.72754486
3229.05630151
3371.01250371
3531.33343525
3709.74589984
3906.19691217
4119.52431198
2491.35893573
2489.25941098
2489.86315294
2490.47791302
2490.72622326
2490.84887029
2490.92505306
2490.97389582
2491.00551174
2491.02893009
2491.04831694
2491.06531274
2491.07990594
2491.09205148
2491.10157999
2491.10830507
2491.11224428
2491.1131089
2491.11104717
2491.10568615
2491.09738122
2491.08568521
2491.07108854
2491.05323945
2491.03272318
2491.00923398
2490.98347304
2490.95524325
2490.92523953
2490.89338338
2490.86033258
2490.8260994
2490.79121463
2490.75578416
2490.72027008
2490.68471374
2490.64954693
2490.61479384
2490.58080183
2490.54753627
2490.51532906
2490.48408493
2490.45411775
2490.42529134
2490.39790481
2490.37177486
2490.34716619
2490.3238313
2490.3019999
2490.28136804
2490.2621215
2490.24403347
2490.22727124
2490.21170283
2490.19751897
2490.1847069
2490.17333082
2490.16332431
2490.15490217
2490.1483788
2490.14404466
2490.14201107
2490.14204195
2490.14400152
2490.14778382
2490.15311611
2490.159805
2490.16774351
2490.17710528
2490.18808413
2490.20093848
2490.21577466
2490.23258717
2490.25123537
2490.27155872
2490.2934156
2490.31667482
2490.34132065
2490.36736074
2490.3948992
2490.42406908
2490.45510481
2490.48828125
2490.52399309
2490.56258932
2490.60442409
2490.65010139
2490.7002901
2490.75732249
2490.82433067
2490.90356964
2490.99326204
2491.09197189
2491.20030025
2491.32061102
2491.45450422
2491.60302955
2491.76551709
2491.93967881
2492.11883479
2492.29632504
2492.46358352
2492.62223729
2492.78779843
2492.98544771
2493.21889196
2493.47830738
2493.75090032
2494.02963538
2494.30820203
2494.57422271
2494.79232378
2494.92703833
2495.00117427
2495.07782428
2495.19134226
2495.36690394
2495.5894946
2495.84778249
2496.11763384
2496.37888764
2496.6183898
2496.83641276
2497.03132446
2497.20945519
2497.37123263
2497.52176007
2497.6580077
2497.78063418
2497.88189147
2497.95718553
2497.99280216
2497.97691878
2497.88707455
2497.7034318
2497.40351351
2496.97927582
2496.43180566
2495.78210411
2495.05467808
2494.26846644
2493.4196382
2492.49991199
2491.49901569
2490.41248121
2489.22978578
2487.95702489
2486.605375
2485.20132143
2483.77720072
2482.38559449
2481.08956406
2479.97657402
2479.14933398
2478.74075518
2478.9080114
2479.84897269
2481.80096746
2485.05626837
2489.96486673
2496.94423775
2506.48330837
2519.14291224
2535.56329848
2556.45690004
2582.6239408
2614.93208473
2654.35152383
2701.93951583
2758.86394253
2826.36259858
2905.7532291
2998.40722733
3105.88007055
3229.51358359
3370.43079831
3529.82719641
3708.96270707
3908.70780109
4129.28026989
2490.89302641
2488.34075902
2489.59920485
2490.4119034
2490.65251019
2490.76034424
2490.82471119
2490.86860485
2490.89742819
2490.91785865
2490.93298255
2490.94451847
2490.95301297
2490.95886957
2490.96224239
2490.9631139
2490.96158013
2490.95738358
2490.95071094
2490.94119999
2490.9291362
2490.91416991
2490.89675326
2490.87652249
2490.85407566
2490.82914151
2490.80236324
2490.77357118
2490.74343793
2490.71190502
2490.67958576
2490.64651348
2490.61324577
2490.57983003
2490.54671068
2490.51397246
2490.48194548
2490.4506503
2490.42038261
2490.39109544
2490.36302883
2490.33606917
2490.31042875
2490.28593105
2490.2627777
2490.24073032
2490.21998422
2490.20023839
2490.18166555
2490.16394627
2490.14725309
2490.13128709
2490.11623155
2490.10190081
2490.08847063
2490.07588035
2490.06424073
2490.05334052
2490.04304451
2490.03331888
2490.02437835
2490.01702987
2490.01210841
2490.01016815
2490.01146715
2490.01588489
2490.02315211
2490.03297768
2490.0453495
2490.06027371
2490.07788512
2490.09805578
2490.12061049
2490.14520158
2490.17148933
2490.19917712
2490.22809639
2490.25816272
2490.28938177
2490.32186419
2490.35577905
2490.39143487
2490.42916957
2490.46961817
2490.5127297
2490.55902108
2490.60793429
2490.66072155
2490.71852589
2490.78619877
2490.86583551
2490.95588707
2491.05501105
2491.1641328
2491.28569478
2491.42184706
2491.5733695
2491.73854284
2491.91256315
2492.08627741
2492.24813046
2492.39464524
2492.53329632
2492.68230322
2492.85721977
2493.06962935
2493.32140742
2493.60649038
2493.92094602
2494.25819496
2494.57785021
2494.82910769
2494.98756139
2495.09424528
2495.20011651
2495.33497517
2495.51510846
2495.7336553
2495.9804144
2496.23850661
2496.49157289
2496.72972327
2496.94959838
2497.15078038
2497.33575729
2497.50619503
2497.66391733
2497.8077957
2497.93583403
2498.04227172
2498.11976709
2498.15601597
2498.13594394
2498.03812675
2497.84168989
2497.53040872
2497.09824632
2496.55211981
2495.9113574
2495.19775788
2494.42433698
2493.58800519
2492.68111232
2491.69526731
2490.62144539
2489.45203961
2488.19330692
2486.85862417
2485.47227133
2484.06918268
2482.69917138
2481.42798758
2480.33943304
2479.53902025
2479.1549439
2479.3475261
2480.30883954
2482.28025806
2485.54718882
2490.46534076
2497.44447356
2506.98246153
2519.63302678
2536.0511317
2556.9455085
2583.1388089
2615.50166089
2655.03156893
2702.78334334
2759.93482139
2827.68301173
2907.29646478
3000.05029486
3107.35577279
3230.49560585
3370.70918805
3529.57134661
3709.53381125
3912.49232954
4139.96548803
2490.34994865
2487.56531366
2489.45649165
2490.31411069
2490.50353992
2490.60169835
2490.66451532
2490.71537677
2490.7503608
2490.77552535
2490.79323375
2490.80576065
2490.81415632
2490.81922198
2490.8214069
2490.82089454
2490.81792199
2490.8123828
2490.80450251
2490.79405208
2490.78137385
2490.766174
2490.74888866
2490.72925684
2490.70778552
2490.6842368
2490.65919514
2490.63249823
2490.60473895
2490.57584336
2490.54637511
2490.51633513
2490.4861953
2490.45601971
2490.42618667
2490.39671396
2490.36790108
2490.33975293
2490.31250278
2490.28611804
2490.26079508
2490.23643607
2490.21320825
2490.19095605
2490.16984358
2490.14966966
2490.13061056
2490.11243348
2490.09533992
2490.07909964
2490.0639386
2490.04970242
2490.03663864
2490.02467515
2490.014043
2490.00476329
2489.99694308
2489.99033353
2489.98458095
2489.97941685
2489.9746037
2489.97077862
2489.96895475
2489.97016367
2489.97460039
2489.98194309
2489.99153923
2490.00304971
2490.01651862
2490.0323343
2490.05086488
2490.0723253
2490.09660556
2490.12345014
2490.15245519
2490.18334855
2490.21565741
2490.24928341
2490.28392658
2490.31967337
2490.35641908
2490.39456431
2490.43466762
2490.47740574
2490.52321595
2490.57097783
2490.62086187
2490.67208932
2490.72712089
2490.79067873
2490.86489646
2490.94956699
2491.04351021
2491.14851859
2491.26592276
2491.3974009
2491.54231776
2491.69787773
2491.85692189
2492.01149878
2492.1551386
2492.29271536
2492.43378774
2492.5894587
2492.76595884
2492.9747539
2493.22367493
2493.51977601
2493.8628826
2494.23424026
2494.5770094
2494.84641654
2495.03333623
2495.17797592
2495.31569215
2495.47207242
2495.65814562
2495.87439904
2496.11138702