/*--------------------------------*- C++ -*----------------------------------*\
| =========                 |                                                 |
| \\      /  F ield         | OpenFOAM: The Open Source CFD Toolbox           |
|  \\    /   O peration     | Version:  v1806                                 |
|   \\  /    A nd           | Web:      www.OpenFOAM.com                      |
|    \\/     M anipulation  |                                                 |
\*---------------------------------------------------------------------------*/
FoamFile
{
    version     2.0;
    format      ascii;
    class       volVectorField;
    location    "23";
    object      U;
}
// * * * * * * * * * * * * * * * * * * * * * * * * * * * * * * * * * * * * * //

dimensions      [0 1 -1 0 0 0 0];


internalField   nonuniform List<vector> 
12225
(
(9.73877631915 0.0399945425425 0)
(9.50214994001 0.0407791902144 0)
(9.24542540492 0.0402757187926 0)
(8.99332474969 0.0406171461697 0)
(8.75370874948 0.0406022491639 0)
(8.52532218764 0.0402655106529 0)
(8.30653917107 0.0398209500088 0)
(8.09656724271 0.0393630180849 0)
(7.89474104913 0.0389376104695 0)
(7.70023242431 0.0385889793891 0)
(7.51208199809 0.0383636766937 0)
(7.3292222571 0.0383129416112 0)
(7.15041993442 0.0385011318665 0)
(6.97416753008 0.039024833445 0)
(6.7984869746 0.0400508602801 0)
(6.62042785039 0.0419383751349 0)
(6.4351490112 0.0457442424248 0)
(6.22420161049 0.0508934400478 0)
(10.0163695937 0.0714525625014 0)
(10.0357663865 0.0698460716204 0)
(10.0221262754 0.0673935710735 0)
(9.99279668288 0.0682908481445 0)
(9.9568750781 0.0691757718288 0)
(9.91539717248 0.0697622248519 0)
(9.8684765107 0.0703716810477 0)
(9.81669853414 0.0711153030974 0)
(9.76061119998 0.0720300640454 0)
(9.70048230787 0.0731800585371 0)
(9.6363322333 0.0746582081076 0)
(9.56796175051 0.0765864976406 0)
(9.49490826748 0.0791358175165 0)
(9.41634430104 0.0825746722874 0)
(9.33089562115 0.0873711887297 0)
(9.23621281271 0.0944675886971 0)
(9.12956526947 0.106208890828 0)
(8.99569587326 0.130867030933 0)
(10.0210585878 0.0582892466602 0)
(10.0526191715 0.0584302852477 0)
(10.0656831498 0.0570818663905 0)
(10.0685339007 0.0599284074509 0)
(10.0682838206 0.0629714421285 0)
(10.0654442479 0.0656067154334 0)
(10.0594145758 0.0682135632218 0)
(10.0501231111 0.0709587848265 0)
(10.0376342942 0.0739112401512 0)
(10.0218765773 0.0771817678531 0)
(10.0026454847 0.0809302913667 0)
(9.97962995182 0.0853664171236 0)
(9.95238401272 0.0907809123343 0)
(9.9202643827 0.0976199131061 0)
(9.88235974915 0.106631151561 0)
(9.83742088334 0.119182135878 0)
(9.78487819045 0.138030090053 0)
(9.71953754536 0.166666783953 0)
(10.0158247899 0.0479455152797 0)
(10.0425172374 0.0556890684719 0)
(10.0574452651 0.0576933697 0)
(10.0635106727 0.0619872838548 0)
(10.0669619406 0.0660773281584 0)
(10.0688361929 0.0694729543525 0)
(10.0686354138 0.0726841424999 0)
(10.0662164206 0.0760172009045 0)
(10.0616027305 0.0796242107399 0)
(10.0547140655 0.0836717561901 0)
(10.0453560652 0.0883723545616 0)
(10.0332615692 0.0939935396867 0)
(10.0180923317 0.100896530281 0)
(9.99942386671 0.109616470807 0)
(9.97676575809 0.120999056623 0)
(9.94967900444 0.136425198504 0)
(9.91864182391 0.158140750127 0)
(9.88228539131 0.187965342935 0)
(10.0114700619 0.0399619615777 0)
(10.0330039944 0.0518263754057 0)
(10.0471875054 0.0551808567349 0)
(10.0536045815 0.0593830106794 0)
(10.0572412098 0.063610579348 0)
(10.0594423266 0.0673461120139 0)
(10.0598556044 0.0710014789436 0)
(10.058315243 0.074907376166 0)
(10.0548463225 0.0792378415906 0)
(10.0494070273 0.0841669460484 0)
(10.0418570266 0.0899210066796 0)
(10.0320035753 0.0967932467802 0)
(10.0196240618 0.10517918021 0)
(10.0044812109 0.115645343535 0)
(9.98638595847 0.129029934735 0)
(9.96536178912 0.14656051406 0)
(9.94223209522 0.169917478174 0)
(9.9169961184 0.200259862204 0)
(10.0083073231 0.0336204237159 0)
(10.0254762663 0.0477314764626 0)
(10.0384654506 0.0528731802302 0)
(10.0449965285 0.0577991093891 0)
(10.0486365545 0.0628229175511 0)
(10.0508125231 0.067432933248 0)
(10.0513278001 0.0719231919621 0)
(10.0500088725 0.0766507055344 0)
(10.0468702869 0.0818366629782 0)
(10.041896237 0.0876843760142 0)
(10.0349915334 0.0944467301263 0)
(10.0260261179 0.102446212583 0)
(10.0148713389 0.112102713265 0)
(10.0014329886 0.123983596192 0)
(9.98572685989 0.138864470937 0)
(9.9680298186 0.157766478848 0)
(9.94925313032 0.18189417567 0)
(9.92986457241 0.212001328575 0)
(10.0059817483 0.0286054731631 0)
(10.019565196 0.0437427898243 0)
(10.0311495355 0.0505096079016 0)
(10.0376093506 0.0561025060334 0)
(10.0412239713 0.0616313302833 0)
(10.0433464846 0.0667944445686 0)
(10.0439307363 0.0718412209054 0)
(10.0428142361 0.0771538354002 0)
(10.0399953644 0.0829997444459 0)
(10.0354754726 0.089609042252 0)
(10.0292002047 0.0972510298577 0)
(10.0210973057 0.106259770646 0)
(10.0111200922 0.117053914088 0)
(9.99928908966 0.130167000178 0)
(9.98576365426 0.146274055553 0)
(9.97095833008 0.16617828868 0)
(9.95576770898 0.19070418553 0)
(9.94075492899 0.220280019584 0)
(10.0043081948 0.0246421077298 0)
(10.0149985189 0.0399989733207 0)
(10.0251142385 0.0480891636879 0)
(10.0313528154 0.0543865838941 0)
(10.0349516903 0.0604486367882 0)
(10.0370706799 0.066237292962 0)
(10.0377753685 0.0719677659451 0)
(10.036927119 0.0780054262911 0)
(10.0345106642 0.0846373965624 0)
(10.0305416184 0.0921087391549 0)
(10.0250059531 0.100693637812 0)
(10.017887692 0.110722490115 0)
(10.0092133872 0.122593304249 0)
(9.99909517982 0.136784127347 0)
(9.98779001571 0.153853854002 0)
(9.9757783871 0.174402797964 0)
(9.96388979983 0.198963352759 0)
(9.95270011377 0.227720406579 0)
(10.003104878 0.0214997815289 0)
(10.0114994903 0.0365814581828 0)
(10.0201931378 0.0456586488495 0)
(10.0260941543 0.0526482132689 0)
(10.0296708261 0.0592273303018 0)
(10.031824922 0.0655915237291 0)
(10.0326880067 0.071948192418 0)
(10.0321565117 0.0786390685183 0)
(10.0302109475 0.0859652342865 0)
(10.0268808095 0.094187416916 0)
(10.0221900739 0.103581925281 0)
(10.0161744926 0.114466502016 0)
(10.0089222794 0.127205671389 0)
(10.0006133486 0.142209874142 0)
(9.99156290789 0.159920231442 0)
(9.98226711433 0.18076045958 0)
(9.97346171371 0.205044433106 0)
(9.96569713157 0.232786979267 0)
(10.0022450852 0.018993282457 0)
(10.0088472978 0.0335187447137 0)
(10.0162395469 0.0432561546497 0)
(10.0217308908 0.0508728224074 0)
(10.0252757678 0.0579463984432 0)
(10.0275071012 0.0648483274277 0)
(10.0285795113 0.0718047929657 0)
(10.0284271106 0.0791344835487 0)
(10.0270339123 0.0871398592029 0)
(10.0244412606 0.0960863830852 0)
(10.0207050918 0.10624134368 0)
(10.0159045436 0.117896689237 0)
(10.010175335 0.13137053333 0)
(10.0037416716 0.146997695459 0)
(9.99694444539 0.165106593169 0)
(9.990262069 0.185973145703 0)
(9.984325716 0.209751376279 0)
(9.97967731981 0.236347333562 0)
(10.0016315538 0.0169781640367 0)
(10.0068560199 0.0308159376885 0)
(10.0131121808 0.0409312341015 0)
(10.0181702868 0.0490686400603 0)
(10.0216802606 0.0565926708808 0)
(10.0240319649 0.0639794174484 0)
(10.0253685449 0.0714818231755 0)
(10.025656776 0.0793954879278 0)
(10.0248897781 0.0880115399848 0)
(10.0231193029 0.0975894381396 0)
(10.0204266985 0.108379728864 0)
(10.0169249893 0.120641701581 0)
(10.0127830076 0.134641828617 0)
(10.0082482419 0.150640339655 0)
(10.0036618345 0.16886598965 0)
(9.99946256402 0.189477946161 0)
(9.99617477368 0.212518506513 0)
(9.99433377369 0.237832553447 0)
(10.0012289724 0.0154374712872 0)
(10.0054995485 0.0285964164502 0)
(10.0108802233 0.0388655446091 0)
(10.0155564316 0.047379921386 0)
(10.0190420648 0.0552702512811 0)
(10.0215453693 0.0630518994461 0)
(10.0231780784 0.0709999932468 0)
(10.0239285 0.0793911856601 0)
(10.0238004294 0.088499520954 0)
(10.0228534779 0.0985716732443 0)
(10.0211851876 0.10983758611 0)
(10.0189289971 0.122521941979 0)
(10.0162700631 0.136842037485 0)
(10.0134597601 0.152992336679 0)
(10.0108216641 0.171122627553 0)
(10.0087472049 0.191307743242 0)
(10.0076699323 0.213517867192 0)
(10.0081313298 0.23756343174 0)
(10.0009343843 0.0141655542135 0)
(10.0044719184 0.026630183962 0)
(10.0091293051 0.0368757121553 0)
(10.0134619587 0.0456427932445 0)
(10.0169354863 0.0538314036278 0)
(10.0196196716 0.0619444714562 0)
(10.021587659 0.0702686351774 0)
(10.0228418792 0.0790634191072 0)
(10.0233975722 0.0885810333155 0)
(10.0233215102 0.099048590876 0)
(10.022722231 0.110670439549 0)
(10.0217463371 0.123635174379 0)
(10.0205861729 0.138111773561 0)
(10.0194872088 0.154236126619 0)
(10.0187471367 0.172092544384 0)
(10.0187061722 0.191692346135 0)
(10.0197101587 0.212955632508 0)
(10.0223108396 0.23567285721 0)
(10.0006978769 0.0129238977498 0)
(10.0036304018 0.0246068303481 0)
(10.0076602044 0.0346773386449 0)
(10.0116883189 0.0435947095525 0)
(10.0151926487 0.0520302394747 0)
(10.0181377911 0.0604366331328 0)
(10.0205527895 0.0690969940297 0)
(10.0224461256 0.0782500350967 0)
(10.0238426836 0.0881190301461 0)
(10.0248133981 0.0989024281048 0)
(10.0254714507 0.110771520827 0)
(10.0259665268 0.123873116574 0)
(10.0264859875 0.138324631714 0)
(10.0272555535 0.154204655512 0)
(10.0285336194 0.1715387741 0)
(10.0305999973 0.190287713298 0)
(10.0337122744 0.21033906513 0)
(10.0384419594 0.231484914951 0)
(10.0005234164 0.0117032481285 0)
(10.0030051442 0.022521033279 0)
(10.0065535057 0.0322397897486 0)
(10.0103657126 0.0411431575132 0)
(10.0139761361 0.0497059724245 0)
(10.0172848497 0.0583044874313 0)
(10.0202796041 0.0671983589587 0)
(10.0229667782 0.0765979327513 0)
(10.0253762232 0.0866906607808 0)
(10.0275787134 0.0976376484593 0)
(10.0296835268 0.109570579392 0)
(10.0318317863 0.122590124648 0)
(10.0341927359 0.136763363296 0)
(10.0369594259 0.152116250373 0)
(10.0403405402 0.168627070577 0)
(10.0445504022 0.18622020608 0)
(10.0497610373 0.204766312709 0)
(10.056568667 0.224068261849 0)
(10.0004133822 0.0104596371484 0)
(10.0026163043 0.0203022568435 0)
(10.0058789559 0.0294610467518 0)
(10.0096270824 0.0381273782875 0)
(10.013469601 0.0466240962503 0)
(10.0172784732 0.0552386074979 0)
(10.0210091609 0.0641869753924 0)
(10.0246591598 0.0736410797598 0)
(10.0282560273 0.083745676367 0)
(10.0318632178 0.0946182096522 0)
(10.0355760823 0.106345829707 0)
(10.0395150571 0.118983601459 0)
(10.043818601 0.132552540031 0)
(10.048636792 0.147036496089 0)
(10.0541226722 0.162380012696 0)
(10.0604250526 0.178487740606 0)
(10.0676376048 0.195227922929 0)
(10.0763834384 0.212424600234 0)
(10.0003683082 0.00910105798413 0)
(10.0024758151 0.0177901847454 0)
(10.0056907751 0.0261230432039 0)
(10.009589925 0.0342514807222 0)
(10.0138475186 0.0423886124649 0)
(10.0183302157 0.0507334959021 0)
(10.0229718851 0.0594442401712 0)
(10.0277565461 0.0686449167837 0)
(10.0327009394 0.078432618525 0)
(10.0378522518 0.0888783121426 0)
(10.0432822601 0.100024744955 0)
(10.0490798056 0.111885904849 0)
(10.0553434643 0.124445990679 0)
(10.0621746533 0.137660046483 0)
(10.0696702734 0.151454263737 0)
(10.0779188136 0.165728961232 0)
(10.0869471741 0.180362791785 0)
(10.097405707 0.19520885463 0)
(10.0003867877 0.00746831497755 0)
(10.0025900115 0.0147009360956 0)
(10.0060275776 0.0218500064935 0)
(10.0103450742 0.0290509225899 0)
(10.0152491638 0.0364352553264 0)
(10.0206061998 0.0441190683428 0)
(10.0263354302 0.0521956321365 0)
(10.0324045948 0.0607350822589 0)
(10.0388118577 0.0697852294031 0)
(10.045580248 0.0793717280152 0)
(10.0527505379 0.0894977251243 0)
(10.0603740493 0.100144014192 0)
(10.0685060703 0.111269806766 0)
(10.0772001417 0.12281423003 0)
(10.086502626 0.134698678288 0)
(10.0964520267 0.146829953403 0)
(10.1070238073 0.159104633874 0)
(10.1188928987 0.171406256753 0)
(10.0004849005 0.00526694447952 0)
(10.0030140253 0.0104887776697 0)
(10.0070047599 0.0159048534621 0)
(10.0120741719 0.0216324200515 0)
(10.0179097082 0.0277211753924 0)
(10.0243690637 0.034201575499 0)
(10.0313606616 0.0410989142608 0)
(10.0388351832 0.0484285948722 0)
(10.0467676628 0.0561917202476 0)
(10.055152901 0.0643746302969 0)
(10.0639985913 0.0729497971484 0)
(10.0733187056 0.0818763011098 0)
(10.0831279726 0.0911009807801 0)
(10.0934379121 0.10055983354 0)
(10.1042532377 0.110180544417 0)
(10.1155734917 0.119884849847 0)
(10.1273359097 0.129591866746 0)
(10.1402305766 0.139216100812 0)
(10.0006588824 0.00279979880074 0)
(10.0037055475 0.00577235343307 0)
(10.0084983011 0.0092566039697 0)
(10.0144987919 0.0133316136139 0)
(10.0213201785 0.0179431444667 0)
(10.0288135589 0.0230339368453 0)
(10.0368924871 0.0285715141017 0)
(10.0455001915 0.0345286904952 0)
(10.0545956511 0.040872190477 0)
(10.0641551656 0.0475624744159 0)
(10.0741662826 0.054554984024 0)
(10.084620907 0.0617999019132 0)
(10.0955104631 0.0692421269305 0)
(10.1068235894 0.076822354562 0)
(10.1185437959 0.0844786516041 0)
(10.1306523865 0.0921485940968 0)
(10.1430708506 0.0997710747655 0)
(10.1564880456 0.107285417073 0)
(10.0008662976 0.000374300394936 0)
(10.0045272113 0.0012209243773 0)
(10.0102085568 0.00300097850181 0)
(10.0171263666 0.00568462233886 0)
(10.0248074016 0.00905964431353 0)
(10.0331278603 0.012980454893 0)
(10.0420297859 0.017373811104 0)
(10.0514590518 0.0221828486941 0)
(10.0613676453 0.0273494256082 0)
(10.0717248668 0.0328174774739 0)
(10.0825102934 0.0385338961526 0)
(10.0937052189 0.0444460457046 0)
(10.1052890768 0.050500082294 0)
(10.1172386555 0.0566413821325 0)
(10.1295272667 0.062815256712 0)
(10.1421281815 0.0689683569755 0)
(10.1549569963 0.0750494560168 0)
(10.16871361 0.0810085950941 0)
(10.0011678175 -0.00225834721108 0)
(10.0056859512 -0.00355219370208 0)
(10.0124758725 -0.00328667481692 0)
(10.0203762017 -0.00176252531908 0)
(10.0288577484 0.000569191075967 0)
(10.0378879202 0.00348914709915 0)
(10.047461086 0.00690499732905 0)
(10.0575274766 0.0107376057866 0)
(10.068036344 0.0149095929187 0)
(10.0789584484 0.0193552095172 0)
(10.0902730274 0.0240186228873 0)
(10.1019570008 0.0288476938431 0)
(10.113983313 0.0337915021987 0)
(10.1263219324 0.0388000619579 0)
(10.1389395004 0.0438251160376 0)
(10.1518029626 0.0488201142416 0)
(10.1648217505 0.0537419453379 0)
(10.1786860977 0.0585502535473 0)
(10.0016418405 -0.00523723945388 0)
(10.0073778151 -0.00865495760914 0)
(10.0155334675 -0.00960370039839 0)
(10.0244400066 -0.00896323604323 0)
(10.0336361606 -0.00749188310981 0)
(10.0432805385 -0.00543411504629 0)
(10.0534269432 -0.0028784350641 0)
(10.0640200823 7.49241548233e-05 0)
(10.075010994 0.00333290409817 0)
(10.0863797614 0.00682754868913 0)
(10.098110501 0.010505379919 0)
(10.1101779894 0.0143198572245 0)
(10.1225512516 0.0182266360731 0)
(10.1351965325 0.0221837063381 0)
(10.1480769962 0.0261510740713 0)
(10.1611577851 0.0300897972471 0)
(10.1743498945 0.0339616759022 0)
(10.1883606148 0.037729151271 0)
(10.0023705604 -0.00875067778892 0)
(10.0098497431 -0.0141493207506 0)
(10.0196381457 -0.0158526043278 0)
(10.0294913565 -0.0157832817485 0)
(10.0392646328 -0.014960391601 0)
(10.0493989409 -0.0135387119082 0)
(10.0599845909 -0.0115906543676 0)
(10.0709533502 -0.0092508747531 0)
(10.0822707111 -0.0066303112774 0)
(10.0939333939 -0.00379656062367 0)
(10.1059287152 -0.000797243741582 0)
(10.1182311202 0.0023227784399 0)
(10.1308084934 0.00552193390174 0)
(10.1436266466 0.00876072681427 0)
(10.1566463592 0.0120018931904 0)
(10.1698258553 0.0152105420643 0)
(10.183066649 0.0183506735859 0)
(10.1970494754 0.021386774249 0)
(10.0036080535 -0.0130849956392 0)
(10.0135529624 -0.0200608889318 0)
(10.0251782274 -0.0219320076 0)
(10.0358271664 -0.022226433115 0)
(10.0460706385 -0.0220249672765 0)
(10.0566667391 -0.0212810864927 0)
(10.0676707879 -0.0200444956091 0)
(10.0789850535 -0.0184626832099 0)
(10.0905969882 -0.0166344408798 0)
(10.1025240104 -0.0146113764308 0)
(10.1147601184 -0.0124322958857 0)
(10.1272795702 -0.0101338941985 0)
(10.1400501179 -0.00774965906851 0)
(10.1530345314 -0.00530776458974 0)
(10.1661891319 -0.00283540328157 0)
(10.1794692942 -0.000364356367932 0)
(10.1927761825 0.0020663078959 0)
(10.2068173565 0.00440464415926 0)
(10.0054722658 -0.0185965432079 0)
(10.0188010304 -0.0262555877127 0)
(10.0322711995 -0.0275744010234 0)
(10.0433791026 -0.0278294435411 0)
(10.0538690995 -0.0277306221565 0)
(10.0647635039 -0.027064989184 0)
(10.0760254197 -0.0259649875268 0)
(10.0875412353 -0.0246143646862 0)
(10.0993291589 -0.0230979643906 0)
(10.1114215267 -0.0214520641189 0)
(10.1238128691 -0.0197055958851 0)
(10.136476402 -0.0178842406048 0)
(10.1493798017 -0.0160077720748 0)
(10.1624856728 -0.0140914345309 0)
(10.1757463554 -0.0121494878448 0)
(10.189104304 -0.0101998667785 0)
(10.2024341207 -0.0082741265045 0)
(10.2163715615 -0.00643726060823 0)
(10.0086496802 -0.0257794116272 0)
(10.026467271 -0.0325899047726 0)
(10.0416451453 -0.0334641900579 0)
(10.0530498386 -0.0345637188029 0)
(10.0638323791 -0.035360086987 0)
(10.0750393644 -0.0354246129266 0)
(10.0865047419 -0.034995341897 0)
(10.0981408416 -0.0342831934002 0)
(10.1100108578 -0.0333660968158 0)
(10.1221612673 -0.03228494336 0)
(10.1345895398 -0.0310794683349 0)
(10.1472734946 -0.0297823661408 0)
(10.1601861353 -0.0284150023785 0)
(10.1732938626 -0.0269897180923 0)
(10.1865501338 -0.0255125292424 0)
(10.1998923757 -0.023985184245 0)
(10.2131742478 -0.0224180434393 0)
(10.2269866759 -0.0208764133346 0)
(10.0129482808 -0.0351148344873 0)
(10.0359983974 -0.037083651355 0)
(10.0516302818 -0.0350837204105 0)
(10.0624251468 -0.0353411549302 0)
(10.0728716791 -0.0358251476609 0)
(10.0836768936 -0.0358679963627 0)
(10.0945072679 -0.0356649858331 0)
(10.105322554 -0.0353380440924 0)
(10.1162321957 -0.0348958699982 0)
(10.1272991868 -0.0343421425976 0)
(10.1385347711 -0.0336949371856 0)
(10.1499357481 -0.0329717694709 0)
(10.161495688 -0.0321821887217 0)
(10.1732009543 -0.0313282633396 0)
(10.1850252059 -0.0304025069007 0)
(10.1969219839 -0.0293777592398 0)
(10.2087323361 -0.0281957984776 0)
(10.2207902505 -0.0267630000934 0)
(10.0164460014 -0.0492074507169 0)
(10.0403806636 -0.0505422022926 0)
(10.0472931281 -0.0483068574969 0)
(10.0467683543 -0.0481609886803 0)
(10.0449134416 -0.0480578332235 0)
(10.0423306538 -0.0475921623026 0)
(10.0388415923 -0.0469860571064 0)
(10.034689711 -0.0463379047272 0)
(10.0302119921 -0.0456513051689 0)
(10.0256414335 -0.0449272089184 0)
(10.0211304081 -0.0441760968301 0)
(10.0167977201 -0.0434067475392 0)
(10.0127401836 -0.0426216646206 0)
(10.0090320903 -0.0418176096559 0)
(10.0057304155 -0.0409821703703 0)
(10.0028885545 -0.0400743929137 0)
(10.0005067238 -0.0389818922273 0)
(9.9986943569 -0.0370213045651 0)
(9.85291438166 -0.0291738861424 0)
(9.72418807407 -0.0314413197409 0)
(9.58070050586 -0.0314875259538 0)
(9.438904606 -0.0320046629906 0)
(9.30514187799 -0.0322327265611 0)
(9.17898702427 -0.0321235560569 0)
(9.05953011641 -0.0318367685278 0)
(8.94647576519 -0.0314531259425 0)
(8.83966796808 -0.0310022342277 0)
(8.73887131882 -0.0305042995947 0)
(8.64380575299 -0.0299773218264 0)
(8.55419609713 -0.0294344712438 0)
(8.46977949337 -0.0288834866231 0)
(8.39030034061 -0.0283278916602 0)
(8.31551633777 -0.0277660759023 0)
(8.24521864257 -0.027180213963 0)
(8.1794648303 -0.0265045852267 0)
(8.11677910563 -0.0250826969245 0)
(0.00451925430133 -0.108590453602 9.27948996063e-20)
(0.0825149941959 -0.15304182771 0)
(0.0930712645842 -0.109459926235 0)
(-0.130578476718 0.16088244583 0)
(-0.312399663537 0.23726468196 0)
(-0.475396590323 0.244032145655 -2.57306140227e-20)
(-0.65614902152 0.246261759384 0)
(-0.849526000719 0.248540718116 0)
(-1.05181820763 0.250466675275 1.50561247455e-20)
(-1.2613679101 0.25178437568 0)
(-1.47694318996 0.25240230025 -1.34952007816e-20)
(-1.69749007072 0.252295719848 0)
(-1.92205328175 0.251470239087 -1.32854135621e-20)
(-2.14974080342 0.249945639916 -1.34541727549e-20)
(-2.37970404358 0.247748553732 0)
(-2.61112787119 0.244908889039 1.41173051905e-20)
(-2.84322443356 0.24145832868 1.45591270505e-20)
(-3.07523000124 0.237429674549 1.50501853935e-20)
(-3.30640368664 0.23285661994 0)
(-3.53602724054 0.227773870619 0)
(-3.76340596527 0.222217129595 0)
(-3.98787006708 0.216223361168 0)
(-4.20877708539 0.209830756017 0)
(-4.42551433561 0.20307909657 0)
(-4.6375021602 0.196009573119 -1.90293498855e-20)
(-4.84419719946 0.188665140508 -1.96004710065e-20)
(-5.04509621371 0.181090257953 0)
(-5.2397397999 0.173331160948 2.07059475428e-20)
(-5.42771661139 0.165435365536 2.12355673115e-20)
(-5.6086671636 0.157451802643 2.1747282036e-20)
(-5.78228765787 0.149430085924 0)
(-5.94833307912 0.141420393997 0)
(-6.10662009448 0.13347235152 -2.3162530153e-20)
(-6.25702870891 0.125634699777 0)
(-6.39950294899 0.117953946022 0)
(-6.53405000386 0.110473831721 -2.43841709314e-20)
(-6.66073833946 0.10323380506 0)
(-6.77969391799 0.096268628132 0)
(-6.89109511176 0.0896069722823 0)
(-6.99516616674 0.0832713194338 0)
(-7.09216963481 0.0772769258603 0)
(-7.18239782649 0.0716321806298 5.24998105492e-20)
(-7.26616372321 0.0663380122424 0)
(-7.34379158852 0.0613887733285 0)
(-7.41560765211 0.0567721021057 5.38313497749e-20)
(-7.48193111009 0.0524701913056 5.4201177265e-20)
(-7.5430658627 0.048459849006 0)
(-7.59929307223 0.0447139658302 0)
(-7.65086474949 0.0412016544078 5.50927311575e-20)
(-7.69799840421 0.0378896179788 0)
(-7.74087287801 0.0347421775888 -5.55044457253e-20)
(-7.77962509646 0.0317226092943 0)
(-7.81434748302 0.0287928267379 5.5766664919e-20)
(-7.84508588865 0.0259144530711 0)
(-7.8718374737 0.0230479552279 5.58751361614e-20)
(-7.89454968848 0.0201545333949 5.58701277792e-20)
(-7.9131217912 0.0171974441788 0)
(-7.92741133795 0.0141478872392 0)
(-7.93724998593 0.0109951894201 0)
(-7.94247955424 0.00776572336545 5.54256691392e-20)
(-7.94298432077 0.00450267320372 0)
(-7.93871136497 0.00125215730028 0)
(-7.92967859748 -0.00193363617325 0)
(-7.91598245481 -0.0050026213187 0)
(-7.89780461759 -0.00790335275352 0)
(-7.87541125276 -0.010576703613 0)
(-7.84915283843 -0.0129642166886 0)
(-7.8194595961 -0.015016440213 -5.25348987478e-20)
(-7.78682753091 -0.016696084129 0)
(-7.75179780342 -0.0179800925371 -5.15506151216e-20)
(-7.71493215668 -0.0188639240588 -5.10309351774e-20)
(-7.67678522885 -0.0193614045983 0)
(-7.63787633363 -0.0195065123404 4.99399367275e-20)
(-7.59866264633 -0.0193499552194 0)
(-7.55951637441 -0.018957808364 -4.87798843976e-20)
(-7.52070723416 -0.0184050929336 0)
(-7.4823920925 -0.0177726384166 4.75487048702e-20)
(-7.44461234427 -0.017139145763 -4.69064501434e-20)
(-7.40729902469 -0.0165774103895 0)
(-7.37028676956 -0.0161470911417 0)
(-7.33333693992 -0.0158931339322 0)
(-7.29616849247 -0.0158409888349 0)
(-7.25849311293 -0.0159982624588 -4.34664183829e-20)
(-7.22004979141 -0.0163544782902 4.27450364169e-20)
(-7.18063421552 -0.0168884684466 -8.40351329721e-20)
(-7.1401173758 -0.0175724392563 -8.25714956155e-20)
(-7.09844762662 -0.0183820812675 -8.11010546487e-20)
(-7.0556296778 -0.0193017082487 0)
(-7.01167699879 -0.0203334980502 0)
(-6.96654255398 -0.0214967686767 0)
(-6.92003530479 -0.0228315970599 -7.50371650389e-20)
(-6.87173629567 -0.0243927576585 0)
(-6.82090965616 -0.0262519316163 0)
(-6.76642699137 -0.0284935980052 -6.96354483432e-20)
(-6.70672222131 -0.0312200780169 0)
(-6.63979074788 -0.0345555456289 6.4850200543e-20)
(-6.56323957242 -0.0386515456602 0)
(-6.47439156574 -0.0436789773337 -5.83274158524e-20)
(-6.37043766027 -0.0498092331801 0)
(-6.24862407551 -0.0571765233834 0)
(-6.10645481177 -0.0658314737603 0)
(-5.94187981315 -0.0756958075319 -3.68527206143e-20)
(-5.75344388074 -0.0865400604846 0)
(-5.5403906862 -0.0979883246824 -2.0405821555e-20)
(-5.30273210633 -0.109568696995 -1.04700008271e-20)
(-5.04129498532 -0.120776944326 0)
(-4.75774668722 -0.131141128216 0)
(-4.45455653008 -0.140259567843 0)
(-4.13487959379 -0.147790307139 4.29377965788e-20)
(-3.80237877804 -0.153389450214 0)
(-3.46104220064 -0.156535075088 0)
(-3.11453350537 -0.157122955641 1.03038912692e-19)
(-2.76659975635 -0.155515268042 1.29222901537e-19)
(-2.42136853285 -0.151980281382 0)
(-2.08217613049 -0.147385568246 -1.96981750157e-19)
(-1.75222040868 -0.141298776112 -2.42579102679e-19)
(-1.43169886708 -0.135958034465 3.00712181077e-19)
(-1.11982764675 -0.134438165717 0)
(-0.820594558011 -0.136711434904 0)
(-0.535722571844 -0.142203077817 0)
(-0.246369257233 -0.160235886584 -9.12515486691e-19)
(0.0134576970309 -0.18979948724 0)
(0.309404403166 -0.202732439016 -1.70963042923e-18)
(0.501277727614 -0.175843376808 0)
(0.67326728862 -0.144708511076 0)
(0.847412381936 -0.118271181198 0)
(1.01657464176 -0.097464925258 5.40774665014e-19)
(1.17489515444 -0.0810336645231 4.73702143366e-19)
(1.32004192646 -0.0678120341738 0)
(1.4513354382 -0.0569185923995 0)
(1.56887052149 -0.0477555120253 0)
(1.67309653752 -0.0398969144358 0)
(1.76462697424 -0.0330642236862 0)
(1.84414094595 -0.0270481805449 0)
(1.91234784713 -0.021711787341 5.95358852558e-19)
(1.96995556262 -0.0169498201254 0)
(2.01766177017 -0.0127009304609 0)
(2.05614310971 -0.00890582564349 0)
(2.08607077541 -0.00552613912968 -5.42903514706e-19)
(2.10810503059 -0.0025385248148 -5.36563624616e-19)
(2.12292497554 5.20365757341e-05 5.3221546585e-19)
(2.13125951727 0.00220133185373 5.29512742247e-19)
(2.13477093413 0.00388937242383 0)
(2.13414590215 0.00521891045749 0)
(2.12970594236 0.00630604709556 0)
(2.12178176798 0.00721119358694 5.27554497341e-19)
(2.11072633883 0.00795892298059 0)
(2.0969096383 0.00856730461672 0)
(2.08069474275 0.00905121165604 -5.36699187901e-19)
(2.0624220579 0.0094245901242 0)
(2.04240350525 0.00969922295584 -5.46627418396e-19)
(2.02092224411 0.00988660668405 0)
(1.99823382592 0.00999643818055 -5.58980167379e-19)
(1.97456809684 0.0100383014457 0)
(1.95013071972 0.0100203201607 0)
(1.92510497423 0.00995103013351 0)
(1.89965312832 0.00983783087142 0)
(1.87391810644 0.00968815632171 0)
(1.84802376769 0.00950762787467 0)
(1.82207583929 0.00930272586856 0)
(1.79616329604 0.00907921332121 0)
(1.77035981619 0.00884309759921 -6.34815148563e-19)
(1.74472279723 0.00859850198339 0)
(1.71929355468 0.0083505813727 0)
(1.69409786757 0.00810387835162 -6.64948296167e-19)
(1.66914560862 0.00786374468297 0)
(1.64442831882 0.00763450642365 0)
(1.61991643375 0.00742238229024 -6.96921322535e-19)
(1.59555637738 0.0072343460903 0)
(1.57126593656 0.00707888109176 0)
(1.54692525156 0.00696488073098 -7.31202489025e-19)
(1.52236474433 0.00690625747789 7.43402914049e-19)
(1.49734872487 0.00692199489272 -7.56178276518e-19)
(1.47154975971 0.00703981617846 0)
(1.44450501879 0.00729883428224 0)
(1.41554105263 0.00776254510511 -1.60071947157e-18)
(1.38367027572 0.00853746239832 0)
(1.34702704597 0.00986339731016 1.67954327536e-18)
(1.30642365876 0.011983053088 1.73207229009e-18)
(1.1998617997 0.019861120262 0)
(-0.114176650899 0.0113358770161 -1.97772091745e-19)
(-0.260522497806 0.230175552818 0)
(-0.383118223804 0.33050130171 4.59171302604e-20)
(-0.52621130224 0.418438062595 -3.37307038187e-20)
(-0.686895942398 0.482906164012 -2.8346034381e-20)
(-0.852360441056 0.524752311798 1.21355654597e-20)
(-1.03093541724 0.556274975377 2.28983133425e-20)
(-1.22221035197 0.581158150038 0)
(-1.42351498966 0.601005144242 -9.86139607161e-21)
(-1.63284839915 0.616744781456 2.04738410092e-20)
(-1.8486532351 0.628959826665 3.02906811346e-20)
(-2.06964663327 0.638038525843 -2.08986021284e-20)
(-2.29471194654 0.644256302328 3.1678592127e-20)
(-2.52284040432 0.647820644532 1.0584271288e-20)
(-2.75309638009 0.64889706008 0)
(-2.98459708691 0.647624715869 -1.15256913117e-20)
(-3.2165002588 0.644126474891 -1.20656273899e-20)
(-3.44799707193 0.638515614556 -1.26381262738e-20)
(-3.67830841796 0.630900421732 2.74563644883e-20)
(-3.90668329514 0.621387667849 0)
(-4.13239887552 0.6100849257 2.99083961873e-20)
(-4.35476138015 0.597102564265 0)
(-4.57310799623 0.582554897378 -3.24114051303e-20)
(-4.78680928584 0.566561482453 0)
(-4.99527219944 0.549247578486 5.19067268056e-20)
(-5.19794325817 0.530744982202 -1.84887999657e-20)
(-5.39431225847 0.511191994789 -3.73165243954e-20)
(-5.58391616224 0.490733806857 -5.73253761032e-20)
(-5.76634325549 0.469521850153 -1.94209932149e-20)
(-5.94123711538 0.447713588725 -1.99872881369e-20)
(-6.10830054678 0.425471053477 0)
(-6.26729906976 0.402959737369 -4.28282523346e-20)
(-6.41806384696 0.380346060405 2.15742769098e-20)
(-6.560493461 0.357795362375 0)
(-6.69455459541 0.335468417287 0)
(-6.8202811564 0.313518677492 2.29773805236e-20)
(-6.93777178176 0.292088266874 0)
(-7.04718552974 0.271305271233 0)
(-7.14873591864 0.251280069609 0)
(-7.24268343863 0.232103468306 0)
(-7.32932671465 0.213844135232 0)
(-7.40899286504 0.196548173158 5.11960950881e-20)
(-7.48202716061 0.180238110069 1.02778192214e-19)
(-7.54878246206 0.164914146361 0)
(-7.6096089893 0.150554695437 5.27414646482e-20)
(-7.66484375318 0.137118973014 -5.26069836296e-20)
(-7.71480215664 0.124548543116 0)
(-7.75976988048 0.112770734575 0)
(-7.79999617399 0.101700306263 -1.62006115699e-19)
(-7.83568816691 0.0912431244785 -1.08814487513e-19)
(-7.86700473033 0.0812981724385 5.44737077086e-20)
(-7.89405728408 0.0717610862985 1.09895846694e-19)
(-7.91690739147 0.0625254623961 5.53710049816e-20)
(-7.93556640737 0.0534851400044 0)
(-7.94998024359 0.0445384387571 -1.66262953053e-19)
(-7.96005611952 0.0355935747806 -5.53990731204e-20)
(-7.96564805196 0.0265742437742 0)
(-7.96655674338 0.017440647408 1.11376100572e-19)
(-7.96253161008 0.00822742306694 -1.11240309705e-19)
(-7.95400603085 -0.000988589052614 -5.53191057545e-20)
(-7.94101284252 -0.0101327826008 0)
(-7.9235803163 -0.019101308136 0)
(-7.90180536874 -0.027771287706 0)
(-7.87588175357 -0.0360135203176 1.08970626772e-19)
(-7.84607610703 -0.0436852462283 0)
(-7.81272514671 -0.0506377450849 -1.07535305378e-19)
(-7.77624435773 -0.0567401318635 0)
(-7.7371050904 -0.0618848435449 -5.30267162632e-20)
(-7.69580364468 -0.0660003561343 0)
(-7.65283654964 -0.069058057327 -5.20854905955e-20)
(-7.60867250501 -0.0710797453339 -5.1587309926e-20)
(-7.56372592069 -0.0721366357421 0)
(-7.51833446116 -0.0723482968386 -5.0466425231e-20)
(-7.4727426442 -0.0718725207902 0)
(-7.42709340829 -0.0708962300656 4.93886543911e-20)