/*--------------------------------*- C++ -*----------------------------------*\
| =========                 |                                                 |
| \\      /  F ield         | OpenFOAM: The Open Source CFD Toolbox           |
|  \\    /   O peration     | Version:  v1806                                 |
|   \\  /    A nd           | Web:      www.OpenFOAM.com                      |
|    \\/     M anipulation  |                                                 |
\*---------------------------------------------------------------------------*/
FoamFile
{
    version     2.0;
    format      ascii;
    class       volVectorField;
    location    "23";
    object      Ua;
}
// * * * * * * * * * * * * * * * * * * * * * * * * * * * * * * * * * * * * * //

dimensions      [0 1 -1 0 0 0 0];


internalField   nonuniform List<vector> 
12225
(
(0.306123388268 60.1377650312 0)
(0.99101818743 13.682517735 0)
(0.807492076875 13.4963551878 0)
(0.903855664117 13.1693639205 0)
(0.905399168752 12.8406176724 0)
(0.94506794407 12.4949337944 0)
(0.965985796361 12.1244498889 0)
(0.988086037548 11.7691803923 0)
(1.0073676551 11.4494615942 0)
(1.03678953308 11.1790343855 0)
(1.08573139828 10.9368563428 0)
(1.15593591111 10.6669615582 0)
(1.22906479151 10.2988640625 0)
(1.28121126343 9.82329714141 0)
(1.36367336458 9.32080116078 0)
(1.70811505063 8.76859331593 0)
(2.54443531604 7.50494691944 0)
(3.17280670117 3.98145117869 0)
(3.21490772067 -52.8140313549 0)
(1.07028862913 -8.86956912001 0)
(1.41823658995 -8.67761255973 0)
(1.35696750267 -8.42929849583 0)
(1.42157754039 -8.19287430897 0)
(1.45121145984 -7.98295780488 0)
(1.48878125642 -7.77791810576 0)
(1.52462571248 -7.5783555942 0)
(1.5673795417 -7.36591943424 0)
(1.62382865852 -7.12391700862 0)
(1.69842529591 -6.83544002778 0)
(1.78500045042 -6.49176893322 0)
(1.86387238901 -6.09655958978 0)
(1.92276241032 -5.65930378618 0)
(2.01673777184 -5.16459281311 0)
(2.29696982439 -4.55289599562 0)
(2.79006797051 -3.81127590452 0)
(2.87500284178 -3.14660564111 0)
(-1.16230015951 40.6605802243 0)
(1.25026887712 4.61760756202 0)
(0.966398282859 4.41636524527 0)
(1.07249907664 4.27298095702 0)
(1.04162057514 4.12143198942 0)
(1.05202880673 3.94864648059 0)
(1.04514014405 3.75472885763 0)
(1.04403381435 3.53672205492 0)
(1.04853771335 3.29575989181 0)
(1.06834839783 3.03328829439 0)
(1.10619226974 2.74787025934 0)
(1.15550710624 2.43374023627 0)
(1.19881951258 2.08356157723 0)
(1.23137790937 1.70084870749 0)
(1.30886702562 1.30502784341 0)
(1.54355375859 0.884756568032 0)
(1.90723716406 0.285638327069 0)
(1.98056811094 -0.68728656225 0)
(2.92869448897 -28.5699487856 0)
(0.889679488455 -2.36501181945 0)
(1.23106255404 -2.28445228525 0)
(1.14655613922 -2.13690131774 0)
(1.19267755 -1.99846009335 0)
(1.19353566551 -1.84387373018 0)
(1.20247450681 -1.68004565058 0)
(1.20740170678 -1.50529605463 0)
(1.21817662595 -1.32103910783 0)
(1.23954900809 -1.13055415534 0)
(1.27334118609 -0.941089018496 0)
(1.31121225536 -0.763089323977 0)
(1.33777744214 -0.603344877551 0)
(1.35242835276 -0.452233184997 0)
(1.39986086017 -0.291896087571 0)
(1.54051480429 -0.164281930843 0)
(1.70649259656 -0.25266765094 0)
(1.65013132872 -0.701047537354 0)
(-0.730080634551 19.1471587695 0)
(1.3024024201 1.29320203677 0)
(0.936656738636 0.93941426432 0)
(1.08035208378 0.898376508714 0)
(1.04981947942 0.753873707608 0)
(1.07296522545 0.64523720069 0)
(1.07620042816 0.529137872511 0)
(1.08705118192 0.424033794221 0)
(1.10257174553 0.325869971078 0)
(1.13014437382 0.234337366708 0)
(1.16943151269 0.142564165708 0)
(1.21347676948 0.0435549251862 0)
(1.25223183883 -0.0619755446399 0)
(1.2910385692 -0.154861649722 0)
(1.36259693184 -0.211857642139 0)
(1.4843245629 -0.263066989787 0)
(1.57169980807 -0.419807895804 0)
(1.48328621439 -0.713738315626 0)
(2.42999115544 -12.6428659288 0)
(0.903927845003 -0.763112173491 0)
(1.12658405937 -0.268296255375 0)
(1.07329817357 -0.365135421004 0)
(1.10134621671 -0.289655276103 0)
(1.10406501235 -0.267283949123 0)
(1.11015694901 -0.229090056789 0)
(1.11651137179 -0.192818275716 0)
(1.12782914638 -0.153514912327 0)
(1.14715488789 -0.117240331345 0)
(1.17356518958 -0.0927163291911 0)
(1.20129626622 -0.0898375501739 0)
(1.22594827875 -0.11095652168 0)
(1.25753441703 -0.145753537469 0)
(1.319215718 -0.187134254998 0)
(1.40637510036 -0.265142214448 0)
(1.44628112587 -0.43160820187 0)
(1.36401455682 -0.64903558439 0)
(0.25433556298 7.01228932249 0)
(1.06133776404 0.353371757884 0)
(1.02239511733 0.0489597429575 0)
(1.06070464299 0.0861400723527 0)
(1.06231110718 0.0267423880438 0)
(1.07535238228 -0.00519552246018 0)
(1.08342478324 -0.0395445562299 0)
(1.09557034242 -0.065089951831 0)
(1.11181082143 -0.0832325136837 0)
(1.1342370582 -0.0957332476264 0)
(1.16014344738 -0.108522237787 0)
(1.18447144796 -0.127346056786 0)
(1.20566079798 -0.152766932955 0)
(1.23342529698 -0.180556745335 0)
(1.28076262924 -0.216839307901 0)
(1.33402339458 -0.292063106166 0)
(1.34246072029 -0.429574916537 0)
(1.27176753366 -0.584103162071 0)
(1.34154061148 -3.00313445975 0)
(1.04000369634 -0.122843163015 0)
(1.04071497187 -0.0300803422852 0)
(1.05403523192 -0.054678697504 0)
(1.05909427191 -0.0502250508033 0)
(1.06768397859 -0.05808525774 0)
(1.07436173566 -0.0646783203175 0)
(1.08511482622 -0.0726430379228 0)
(1.10008158455 -0.0810167849631 0)
(1.12018182299 -0.092149122225 0)
(1.14242138583 -0.109236185988 0)
(1.16298696573 -0.133901660856 0)
(1.1818967028 -0.163536897064 0)
(1.20611847908 -0.195095219613 0)
(1.24004701888 -0.236516707593 0)
(1.26806265086 -0.308486087425 0)
(1.25865232801 -0.416586934188 0)
(1.19882153973 -0.525845096143 0)
(0.962093741076 0.83216828126 0)
(1.01768520413 -0.0276363927044 0)
(1.03608095257 -0.0341596858198 0)
(1.0455207189 -0.0471657394204 0)
(1.05130302062 -0.056210146711 0)
(1.05924198323 -0.0670927676207 0)
(1.06610778217 -0.0755361780771 0)
(1.07640315267 -0.083464239874 0)
(1.09004460181 -0.0916011389951 0)
(1.10719997335 -0.102976892857 0)
(1.12523997477 -0.120407213794 0)
(1.14175615436 -0.144632079589 0)
(1.15756131998 -0.173475281798 0)
(1.17667285693 -0.206155620202 0)
(1.19830434663 -0.249778785197 0)
(1.20896236902 -0.31528032181 0)
(1.19075126741 -0.399354032887 0)
(1.14024634458 -0.478427009865 0)
(1.04259227003 -0.234721551341 0)
(1.02586524001 -0.0289920930971 0)
(1.0282425625 -0.039364707935 0)
(1.03929209717 -0.0487921608672 0)
(1.04352440346 -0.0577737514033 0)
(1.05106522309 -0.0682746407758 0)
(1.05768845712 -0.0773317194291 0)
(1.06735302677 -0.0864620355992 0)
(1.0794406891 -0.0964433562678 0)
(1.0936794307 -0.109780306004 0)
(1.10791047128 -0.128295450095 0)
(1.12075051353 -0.152138287325 0)
(1.13302322169 -0.180014293888 0)
(1.14629946823 -0.212662495088 0)
(1.15753312409 -0.25525201424 0)
(1.15682381282 -0.31216888353 0)
(1.13486122117 -0.377475999769 0)
(1.09202174167 -0.436355891876 0)
(1.0263118455 -0.0540972505664 0)
(1.02122574254 -0.0463713243681 0)
(1.02466495036 -0.0468686758844 0)
(1.0330476928 -0.0575229256082 0)
(1.03694971852 -0.0646105340137 0)
(1.04352048121 -0.0743190212819 0)
(1.04968467853 -0.0829210218692 0)
(1.05825046123 -0.09241118026 0)
(1.06845317179 -0.103364913037 0)
(1.07974769874 -0.117716555075 0)
(1.09050960068 -0.13645538825 0)
(1.09994393793 -0.159442294723 0)
(1.10847866276 -0.186106011524 0)
(1.11604741852 -0.217570888151 0)
(1.119178436 -0.256892621802 0)
(1.11138686871 -0.304719278386 0)
(1.08834047735 -0.355425817148 0)
(1.05163790846 -0.399996208694 0)
(1.01858796762 -0.0968912329854 0)
(1.01865567685 -0.0503509232976 0)
(1.01938234333 -0.0527836405526 0)
(1.02659007673 -0.0620790746108 0)
(1.02982589179 -0.0688847724967 0)
(1.03550137009 -0.0780399461183 0)
(1.04098023098 -0.08668801025 0)
(1.04827886485 -0.0966043781162 0)
(1.05659146698 -0.108318225412 0)
(1.06529296857 -0.123202653675 0)
(1.0731746963 -0.141783458805 0)
(1.07968442961 -0.163874812797 0)
(1.08485797585 -0.189290664721 0)
(1.08784010796 -0.219055264375 0)
(1.08564303424 -0.254447057818 0)
(1.07421885176 -0.294553650739 0)
(1.05165679615 -0.334791157402 0)
(1.01974093149 -0.369660088132 0)
(1.01442123658 -0.101782883504 0)
(1.0153034924 -0.0541579289572 0)
(1.0154252406 -0.0553532547496 0)
(1.02093358876 -0.0644539822209 0)
(1.02363689115 -0.0709349186707 0)
(1.02825682028 -0.079899833048 0)
(1.03287055025 -0.0887535642775 0)
(1.03872587662 -0.0991570738657 0)
(1.04508399378 -0.11142531524 0)
(1.0513035179 -0.126538804055 0)
(1.05649344317 -0.144718705775 0)
(1.06023206353 -0.165821187973 0)
(1.06218468999 -0.189820389821 0)
(1.06127424461 -0.217298422253 0)
(1.05521362119 -0.24845692006 0)
(1.04166904248 -0.281851234644 0)
(1.02007554911 -0.314137814391 0)
(0.992074123189 -0.341815582511 0)
(1.00808108911 -0.122365890362 0)
(1.01123374777 -0.0589406388177 0)
(1.01091827455 -0.0605783573052 0)
(1.01466298606 -0.068965297082 0)
(1.01667842041 -0.0753324779358 0)
(1.01997873895 -0.0839818455524 0)
(1.02341265995 -0.0930075022535 0)
(1.02750116141 -0.103620122103 0)
(1.03166228572 -0.116083172954 0)
(1.03525588631 -0.130895489629 0)
(1.0376652197 -0.148197445827 0)
(1.03846564353 -0.167759438427 0)
(1.03720682331 -0.189680118312 0)
(1.03284114736 -0.213922813819 0)
(1.02389124503 -0.240203681176 0)
(1.00921234346 -0.266982549135 0)
(0.988969856065 -0.292128486587 0)
(0.964573748481 -0.313506774938 0)
(1.00153571989 -0.114682824077 0)
(1.00642526724 -0.0583255511474 0)
(1.00588226552 -0.0598816649456 0)
(1.00761222711 -0.0679844366664 0)
(1.00876043477 -0.074466384001 0)
(1.01041343054 -0.0830786064933 0)
(1.01230373079 -0.0923355258112 0)
(1.01431979854 -0.103154390066 0)
(1.01607536356 -0.115577901145 0)
(1.01695836659 -0.129902754264 0)
(1.01655444805 -0.146022706362 0)
(1.01446227655 -0.163848818183 0)
(1.01022692222 -0.183196570135 0)
(1.00311238357 -0.203906000693 0)
(0.99227535428 -0.225266732369 0)
(0.977326804408 -0.246209190271 0)
(0.958691572333 -0.2652773695 0)
(0.937561928446 -0.281398974853 0)
(0.999116673088 -0.159435938259 0)
(1.00057187148 -0.0715040818888 0)
(1.00135678657 -0.0732244584939 0)
(1.00045686001 -0.0800780708053 0)
(1.00055024464 -0.0861201212843 0)
(1.00026210141 -0.0940584727519 0)
(1.00030942785 -0.102825157159 0)
(1.00006568821 -0.113030196217 0)
(0.999348858896 -0.124548762469 0)
(0.997630318512 -0.137503539366 0)
(0.99458444413 -0.151682611718 0)
(0.989902015419 -0.166969465435 0)
(0.983258579951 -0.183087129263 0)
(0.974228941599 -0.199744280012 0)
(0.96245580121 -0.216297794807 0)
(0.947901193534 -0.231995088773 0)
(0.931069664372 -0.246012349011 0)
(0.912904136687 -0.257773362221 0)
(1.0030708578 -0.0102948260136 0)
(0.997259943447 -0.0183761099794 0)
(0.995079905397 -0.0234424937079 0)
(0.991959281942 -0.031526567666 0)
(0.990470590487 -0.0393936585878 0)
(0.987977516406 -0.0487299957551 0)
(0.985866850265 -0.0589194374033 0)
(0.98319649833 -0.0700892389588 0)
(0.97998532163 -0.0822174998178 0)
(0.975733035932 -0.0951425715923 0)
(0.970274606056 -0.108788502663 0)
(0.963361041285 -0.122857600747 0)
(0.954841294185 -0.137177733667 0)
(0.944546264671 -0.151310389647 0)
(0.932387733579 -0.164893427784 0)
(0.918477033464 -0.17736455231 0)
(0.903252291146 -0.188358116726 0)
(0.887468672058 -0.197530013788 0)
(0.953564374423 -0.584056192681 0)
(0.980396043726 -0.202537551694 0)
(0.990627520807 -0.191773362927 0)
(0.985283731235 -0.189889311829 0)
(0.982210973656 -0.189907984018 0)
(0.977467216295 -0.19132967925 0)
(0.973387101605 -0.193754398284 0)
(0.968677868848 -0.197039947095 0)
(0.963497967026 -0.201133767407 0)
(0.957386102956 -0.205870243617 0)
(0.950252416308 -0.211109397041 0)
(0.94195761118 -0.216618054504 0)
(0.932498014635 -0.222254085854 0)
(0.921852821498 -0.227743024281 0)
(0.910037619674 -0.232817669388 0)
(0.897189330109 -0.237220731802 0)
(0.883642040173 -0.240761771016 0)
(0.869670427715 -0.243315726387 0)
(1.15223554776 1.32213145809 0)
(1.02098469319 0.323111329561 0)
(0.992560069962 0.280830922755 0)
(0.974763218211 0.255060891676 0)
(0.967873864892 0.230934509094 0)
(0.961125556089 0.207609603641 0)
(0.955256574264 0.184852370218 0)
(0.948911365258 0.1624741982 0)
(0.942170775115 0.140515051499 0)
(0.934734791353 0.119023867442 0)
(0.926588417711 0.0981411041863 0)
(0.917706931181 0.0780320922367 0)
(0.908157805144 0.0589633612832 0)
(0.898019885242 0.0410024168408 0)
(0.887341796672 0.0243535118762 0)
(0.876248735604 0.00914589154455 0)
(0.86508452076 -0.00446087032725 0)
(0.854934296637 -0.0164413016436 0)
(0.522661155365 -2.87294243316 0)
(0.908516268868 -0.521562137758 0)
(0.946906833606 -0.467032035064 0)
(0.959790917874 -0.452861205331 0)
(0.955946633007 -0.433728554084 0)
(0.949004520905 -0.415523972657 0)
(0.941986333557 -0.398110417476 0)
(0.93393395844 -0.381701384043 0)
(0.925307142737 -0.366544075049 0)
(0.915834003073 -0.352597317176 0)
(0.905585559116 -0.339840965593 0)
(0.894558641879 -0.32829694852 0)
(0.882836301184 -0.31793170476 0)
(0.870493838733 -0.308466157691 0)
(0.857583907022 -0.299831662068 0)
(0.844235770995 -0.291980144383 0)
(0.830594040808 -0.284959553016 0)
(0.81589180158 -0.278778930432 0)
(1.84280946738 5.33542150455 0)
(1.03671061141 0.627683899776 0)
(1.01503337941 0.501890280973 0)
(0.971830242368 0.480315510104 0)
(0.972639185577 0.437789517701 0)
(0.967081396326 0.401005479436 0)
(0.962323524823 0.365040287793 0)
(0.956611196657 0.330851174092 0)
(0.950419992505 0.298627225834 0)
(0.943743050838 0.268516458798 0)
(0.936613172067 0.240723570529 0)
(0.929123609071 0.215483545526 0)
(0.921421302512 0.192797286111 0)
(0.913548060513 0.17250106671 0)
(0.905456711464 0.154555477054 0)
(0.897029672867 0.138928360732 0)
(0.88839571247 0.125554628618 0)
(0.881356053142 0.114376032285 0)
(-0.631853394578 -9.6120015339 0)
(0.947817186576 -0.845494103547 0)
(0.883604695983 -0.629846871562 0)
(0.95364485703 -0.644881516407 0)
(0.930433125148 -0.599241169421 0)
(0.923118965929 -0.570390528475 0)
(0.911727469495 -0.540150187018 0)
(0.900205862885 -0.513395983296 0)
(0.888266244481 -0.489332212099 0)
(0.875860108659 -0.468142440542 0)
(0.863208329234 -0.449582962745 0)
(0.850330576444 -0.433451311977 0)
(0.837325739642 -0.41936010531 0)
(0.824324983304 -0.407048393035 0)
(0.811445970121 -0.396155037289 0)
(0.798980245672 -0.386424092861 0)
(0.787310042263 -0.377518073071 0)
(0.77518027149 -0.369289910464 0)
(3.58755905811 15.7357713154 0)
(0.906891524955 1.05344213394 0)
(1.12595729819 0.674421083185 0)
(0.980076390855 0.738995420841 0)
(1.01869919504 0.675758734426 0)
(1.00716538065 0.650962606387 0)
(1.0068409259 0.618131956803 0)
(1.00229563022 0.590069562001 0)
(0.997741142071 0.563363466179 0)
(0.992276314156 0.538648785717 0)
(0.986049716332 0.515490678943 0)
(0.979058312135 0.493925755972 0)
(0.971389675607 0.473773180287 0)
(0.963052676245 0.45494867055 0)
(0.954000319064 0.437158819164 0)
(0.944049920911 0.420107408427 0)
(0.933112752688 0.403535089465 0)
(0.923827069076 0.387304676573 0)
(-2.99870180396 -24.8836654102 0)
(1.22131474085 -1.59308645106 0)
(0.74710197077 -0.995015348513 0)
(0.981439532079 -1.13396908108 0)
(0.899305778901 -1.04993076166 0)
(0.906922924919 -1.03539343586 0)
(0.8887751233 -1.00352581977 0)
(0.877281779493 -0.979727859715 0)
(0.863826598254 -0.955825331095 0)
(0.85093452498 -0.9333255242 0)
(0.838246521196 -0.910950847829 0)
(0.825999585066 -0.888598999757 0)
(0.814345780576 -0.865899890049 0)
(0.803345876344 -0.842530037333 0)
(0.792954590485 -0.818332015257 0)
(0.783288045719 -0.793606353165 0)
(0.774652902629 -0.768611708438 0)
(0.764312204053 -0.743716834571 0)
(6.28534461302 35.5457825373 0)
(0.450503332785 2.107133775 0)
(1.33446077886 1.32040535613 0)
(0.962409494435 1.5214532944 0)
(1.08005649834 1.41095279234 0)
(1.04266324354 1.3993147917 0)
(1.04878287328 1.35813148572 0)
(1.03996821849 1.32706481716 0)
(1.0343869301 1.29342930175 0)
(1.02703962725 1.26080989104 0)
(1.0196337059 1.22800111011 0)
(1.01179816849 1.19520977581 0)
(1.00367289103 1.16203695375 0)
(0.995176220738 1.12813051922 0)
(0.986248938314 1.09313867399 0)
(0.976720287363 1.05727590977 0)
(0.966322081403 1.02086405749 0)
(0.958904931706 0.984727616014 0)
(-4.80496752121 -45.685965156 0)
(1.8393845779 -2.59512869966 0)
(0.565760739739 -2.04384225249 0)
(1.03693467952 -2.15065500372 0)
(0.869966556592 -2.03827800468 0)
(0.906842551035 -2.00773071618 0)
(0.880020345721 -1.95417226135 0)
(0.872748011332 -1.91138800423 0)
(0.85933183921 -1.86737366465 0)
(0.847932508672 -1.82565049183 0)
(0.836244789941 -1.78463517748 0)
(0.824844095751 -1.7445052801 0)
(0.81334859089 -1.70495856379 0)
(0.801597662269 -1.66574793566 0)
(0.78944268633 -1.62640343104 0)
(0.77737527079 -1.58612819803 0)
(0.766610785982 -1.54384143459 0)
(0.753657734931 -1.49899180781 0)
(6.15932366548 54.9143154754 0)
(0.210552889205 3.07092287807 0)
(1.42082184837 3.0259467717 0)
(0.989221905446 2.91575193879 0)
(1.13107174798 2.83661707517 0)
(1.07730967444 2.7544215706 0)
(1.08542967696 2.67611789372 0)
(1.07219980468 2.60148687207 0)
(1.06499587589 2.5296804768 0)
(1.05533798638 2.46117443832 0)
(1.04625676866 2.39564750382 0)
(1.03683059457 2.3331254953 0)
(1.0275443202 2.27342622088 0)
(1.01856129714 2.21677222118 0)
(1.01025469196 2.16333893137 0)
(1.00311893043 2.1130707692 0)
(0.997054366929 2.06513938865 0)
(0.995777490113 2.01762071473 0)
(-3.55252995187 -63.7900275789 0)
(1.62413926946 -4.40871675872 0)
(0.67062937773 -4.53865407206 0)
(0.993342454124 -4.24999908999 0)
(0.876922764875 -4.14296307852 0)
(0.900171582039 -3.98785282006 0)
(0.879843751089 -3.85800914399 0)
(0.873424134287 -3.72762926966 0)
(0.862560901937 -3.60463574304 0)
(0.853412469072 -3.48624995696 0)
(0.844166041635 -3.37340233812 0)
(0.835264111305 -3.26614230246 0)
(0.826513588316 -3.16463468207 0)
(0.817972838264 -3.06904927622 0)
(0.80944282679 -2.97972291647 0)
(0.800720556834 -2.89774199334 0)
(0.791420305888 -2.82520977264 0)
(0.775595356176 -2.76546191083 0)
(4.24476791436 69.727699668 0)
(0.722051195303 6.9514492688 0)
(1.39414904911 7.24274338135 0)
(1.15893046112 6.77055049117 0)
(1.22715337971 6.54727110008 0)
(1.1977963314 6.27021623698 0)
(1.19852872853 6.02368867675 0)
(1.18879466087 5.78165085548 0)
(1.18128683958 5.55160393736 0)
(1.17221418181 5.33063892314 0)
(1.16277959086 5.11889365153 0)
(1.15250434826 4.91539306789 0)
(1.1416935864 4.72003321144 0)
(1.13037974792 4.53264407487 0)
(1.1182352857 4.35330874648 0)
(1.10443252354 4.18200492021 0)
(1.08707450425 4.01945020575 0)
(1.07158374414 3.86998258022 0)
(-0.121047275533 -69.6033843783 0)
(0.885629356309 -9.69645743523 0)
(0.574374845278 -9.68171274172 0)
(0.665597109426 -9.1262855116 0)
(0.630464976301 -8.79793244647 0)
(0.638990949714 -8.42920932772 0)
(0.632465230835 -8.08986536587 0)
(0.630926528125 -7.75814482459 0)
(0.627547418668 -7.43954659844 0)
(0.624532874638 -7.13189023975 0)
(0.621079284652 -6.83549619732 0)
(0.617346126661 -6.54978385567 0)
(0.61357459171 -6.27439822051 0)
(0.610045753321 -6.00773100842 0)
(0.606638831061 -5.74738344151 0)
(0.603519160015 -5.49085094142 0)
(0.603422088548 -5.23324919508 0)
(0.607431607972 -4.95631012576 0)
(0.0862190481026 -0.0245382120984 -1.38753237222e-16)
(0.0925279806493 0.00812530015913 0)
(0.0652466704578 0.0577493596309 0)
(0.0532732128702 0.121447057932 0)
(0.0316477290573 0.17042673525 0)
(-0.00884219840182 0.17891540443 4.7122238859e-17)
(-0.044428026701 0.181494359832 0)
(-0.0754965063357 0.181787180948 0)
(-0.10349576403 0.181087476514 -2.02190080255e-17)
(-0.129355756511 0.180839823696 0)
(-0.153129843567 0.182365142384 1.43160692335e-17)
(-0.174653921035 0.186731006002 0)
(-0.193447251628 0.194519029308 1.09701953475e-17)
(-0.209278955637 0.205838058343 9.79807430316e-18)
(-0.22209502997 0.220424550366 0)
(-0.232147763437 0.237769421545 -8.05122668004e-18)
(-0.239888275083 0.257322687252 -7.38680620847e-18)
(-0.245842483506 0.278548182855 -6.82265727688e-18)
(-0.250570486234 0.301038781421 0)
(-0.254544927163 0.32449197499 0)
(-0.258167307491 0.348753598284 0)
(-0.261706490355 0.37373066252 0)
(-0.265357343522 0.399411883523 0)
(-0.269219724559 0.425805643019 0)
(-0.273306808346 0.452926857511 4.48649027611e-18)
(-0.277623874774 0.480767767853 4.28922548943e-18)
(-0.282109820991 0.509320945805 0)
(-0.286729973799 0.53853038171 -3.95438714871e-18)
(-0.291384587285 0.568328400823 -3.81202110249e-18)
(-0.296031234946 0.598595715816 -3.68377466159e-18)
(-0.300568195267 0.629223512631 0)
(-0.304961999164 0.660040261063 0)
(-0.309138511576 0.69090923915 3.36900791822e-18)
(-0.313067335934 0.721630266016 0)
(-0.316684459866 0.752056307773 0)
(-0.319967400919 0.781956955992 3.13589389577e-18)
(-0.322902373284 0.811188244052 0)
(-0.325465151188 0.839521410055 0)
(-0.327655617883 0.866811953196 0)
(-0.329449359413 0.89283274976 0)
(-0.330863853427 0.91744588411 0)
(-0.331870143281 0.940433108171 -5.66994286299e-18)
(-0.332498052625 0.961658819887 0)
(-0.332719886405 0.980920107294 0)
(-0.33257330974 0.998083673223 -5.48304404735e-18)
(-0.332042620956 1.01297316415 -5.43321604933e-18)
(-0.331160530983 1.02545613855 0)
(-0.329926754481 1.03538418392 0)
(-0.328365711915 1.04264058487 -5.31458436574e-18)
(-0.326488223276 1.04710600005 0)
(-0.324307052294 1.04867268438 5.25754527084e-18)
(-0.321842567093 1.04724644921 0)
(-0.319077869564 1.04272445467 -5.21546061756e-18)
(-0.316031315211 1.03500569452 0)
(-0.312692048977 1.02400017427 -5.18665807891e-18)
(-0.309085111925 1.00959785042 -5.17685191727e-18)
(-0.305184159365 0.991694899986 0)
(-0.300980048363 0.970138542465 0)
(-0.296448460822 0.944778627467 0)
(-0.291515451299 0.914990857373 -5.16454468631e-18)
(-0.286165103874 0.880456141394 0)
(-0.280394833182 0.840931023983 0)
(-0.274220228387 0.796344711178 0)
(-0.267716059753 0.74669397119 0)
(-0.260966202669 0.692220826873 0)
(-0.253957401337 0.633132765996 0)
(-0.246704978349 0.569704317289 0)
(-0.239197501795 0.502174815545 5.24690270123e-18)
(-0.231496032189 0.43089008563 0)
(-0.223625458083 0.356217248014 5.28975376792e-18)
(-0.215644482711 0.278592831271 5.31411834867e-18)
(-0.207573194528 0.198471005017 0)
(-0.199441097793 0.116321583328 -5.36849607318e-18)
(-0.191267050482 0.0326310690885 0)
(-0.183057485721 -0.0521360554388 5.43005402288e-18)
(-0.174819797405 -0.137511571468 0)
(-0.166553858877 -0.223046049942 -5.49807196484e-18)
(-0.158263763555 -0.308274045474 5.53411903056e-18)
(-0.149982294974 -0.392734881878 0)
(-0.141746186563 -0.475942880386 0)
(-0.133587929011 -0.557411153972 0)
(-0.125531138097 -0.636611334516 0)
(-0.117632914214 -0.71300449068 5.72481303959e-18)
(-0.109939475995 -0.786006516385 -5.76325327511e-18)
(-0.102462792226 -0.855058143534 1.16029518547e-17)
(-0.0952192853028 -0.919555333669 1.1679225118e-17)
(-0.0881996346456 -0.978929322994 1.17559849072e-17)
(-0.0814486494805 -1.03256179492 0)
(-0.0750551816877 -1.07981285663 0)
(-0.0693118187088 -1.12003884567 0)
(-0.0643597815921 -1.1527879586 1.20975955244e-17)
(-0.0598163581018 -1.17813054041 0)
(-0.0551529885055 -1.19654231421 0)
(-0.0500214655047 -1.20879160118 1.24620473607e-17)
(-0.0442202175827 -1.21594717971 0)
(-0.0376020347877 -1.21939926284 -1.28125526949e-17)
(-0.0300717678973 -1.22082619055 0)
(-0.0215413007511 -1.22205353551 1.3297462254e-17)
(-0.0118460434813 -1.22508378972 0)
(-0.000679168519385 -1.23220984741 0)
(0.0120877894613 -1.24620821869 0)
(0.0267917589597 -1.27005202609 1.49107351157e-17)
(0.0444820253088 -1.30706320494 0)
(0.0662331611865 -1.36106985114 1.62167157316e-17)
(0.0920593376549 -1.43589573288 1.70512904879e-17)
(0.124988336072 -1.53068435872 0)
(0.166276262918 -1.64256112969 0)
(0.207203908561 -1.76495943923 0)
(0.24929200141 -1.88457290823 2.22615668007e-17)
(0.304214216952 -1.98305902963 0)
(0.354900990891 -2.0652184161 0)
(0.382680335362 -2.14659365377 2.96257089967e-17)
(0.386312818953 -2.24013883068 3.32759965445e-17)
(0.420890435645 -2.34087231298 0)
(0.512327675909 -2.37649978285 -4.37142672952e-17)
(0.671807871081 -2.33906077853 -5.13871046437e-17)
(0.777776889332 -2.13894939183 6.18141941794e-17)
(0.774588550029 -1.90316752683 0)
(0.665666347754 -1.72323022793 0)
(0.287127066256 -1.48835665344 0)
(-0.117686637008 -1.45568443704 -1.87463396588e-16)
(-0.833284592667 -1.65999799025 0)
(-1.11116302618 -1.29993333763 -1.76846976536e-16)
(-1.05783263619 -1.0316369544 0)
(-1.05565805188 -0.907969437475 0)
(-1.07757567014 -0.852373458389 0)
(-1.11077826224 -0.844745841094 6.57602125804e-17)
(-1.15223299002 -0.874727855843 5.94746222862e-17)
(-1.20177253665 -0.939694083515 0)
(-1.25951804081 -1.03569955573 0)
(-1.32604917264 -1.16335808199 0)
(-1.40173426904 -1.32093050601 0)
(-1.48705198889 -1.51023565987 0)
(-1.58191580847 -1.72982986152 0)
(-1.68587384996 -1.98087704028 8.55589901436e-17)
(-1.7973569347 -2.2602068 0)
(-1.9153443162 -2.56671399206 0)
(-2.04036129085 -2.89339240113 0)
(-2.17591431257 -3.23620092929 -8.13311092822e-17)
(-2.32356614833 -3.58523315253 -8.09744406972e-17)
(-2.48031281367 -3.93745912399 8.08187503223e-17)
(-2.64074727876 -4.28956126548 8.07853332923e-17)
(-2.80114211093 -4.64708617952 0)
(-2.96148079535 -5.01922733256 0)
(-3.12269911034 -5.41312466731 0)
(-3.28488267988 -5.83090824317 8.15302457221e-17)
(-3.4486492579 -6.28032391828 0)
(-3.61331130471 -6.7628696198 0)
(-3.77869039095 -7.28656666841 -8.318198895e-17)
(-3.94319473801 -7.85171300666 0)
(-4.10606337818 -8.46653933452 -8.468667906e-17)
(-4.26400926619 -9.12972990473 0)
(-4.41492004882 -9.8502282183 -8.6473994072e-17)
(-4.55295260837 -10.6247026771 0)
(-4.67453174354 -11.4628507735 0)
(-4.77149151484 -12.357882558 0)
(-4.83967648675 -13.3199415121 0)
(-4.86979316712 -14.337073836 0)
(-4.85989832203 -15.4193412166 0)
(-4.80101286684 -16.546411325 0)
(-4.69304044742 -17.7289878252 0)
(-4.52657531828 -18.9425625185 -9.84824860807e-17)
(-4.30377886029 -20.2006137984 0)
(-4.02060539882 -21.461215302 0)
(-3.6771385007 -22.7322243873 -1.04964847149e-16)
(-3.25502475455 -23.9540915373 0)
(-2.76699666717 -25.1545359266 0)
(-2.21430862246 -26.2200290665 -1.14028659401e-16)
(-1.59378932441 -27.1062447003 0)
(-0.87706463087 -27.7221564105 0)
(0.0975058362006 -28.3331927541 -1.27217608063e-16)
(1.12556358376 -28.9473362207 1.32908194616e-16)
(2.24520642632 -29.9101142609 -1.39410592479e-16)
(3.78300986281 -31.0719910829 0)
(5.97079851939 -34.1627421819 0)
(8.22380965622 -40.239905846 -3.30906214743e-16)
(9.99235839727 -49.0843682054 0)
(10.9197260674 -52.8549577847 3.81984566731e-16)
(10.3510796296 -52.8121045636 4.15596732292e-16)
(-4.55041195906 -42.3431675925 0)
(0.00132028441636 -0.104895935585 3.70515301531e-16)
(0.0293897393682 0.0930099008124 0)
(0.0269308760309 0.15591976883 -8.47639109188e-17)
(0.0115475651372 0.144194339042 5.90262888065e-17)
(0.00302008432593 0.104109048679 4.62690026762e-17)
(0.00294241617214 0.0606279949048 -1.95167978428e-17)
(0.00626324592277 0.0216854183219 -3.342089875e-17)
(0.00953532853002 -0.0114097051707 0)
(0.0116797706445 -0.0391496506217 1.27004931141e-17)
(0.0123194025063 -0.0624386639392 -2.25195134079e-17)
(0.0115535809987 -0.0822682112559 -3.02484790939e-17)
(0.00968823750611 -0.0995341071157 1.82161402851e-17)
(0.00719246704318 -0.115007281906 -2.4878218135e-17)
(0.00439865767918 -0.12939315411 -7.60360622211e-18)
(0.00150965644977 -0.143298898347 0)
(-0.00143108727583 -0.157285316333 6.50799675043e-18)
(-0.00447481548521 -0.171785699467 6.06865085952e-18)
(-0.00769767299935 -0.187142859275 5.68529743722e-18)
(-0.0111915772254 -0.20355852341 -1.06956833872e-17)
(-0.0149920788491 -0.221138108736 0)
(-0.0191244086322 -0.239886999921 -9.57652484522e-18)
(-0.0235690234897 -0.259745168951 0)
(-0.0282798674983 -0.280603638719 8.69171348261e-18)
(-0.0331910936187 -0.30232834189 0)
(-0.0382161353324 -0.324771943293 -1.19758749036e-17)
(-0.0432684916507 -0.347795034324 3.83993987268e-18)
(-0.0482419552926 -0.371251614184 7.41063009944e-18)
(-0.0530582102322 -0.395027346333 1.07499161214e-17)
(-0.0576017918211 -0.418991654478 3.4735538358e-18)
(-0.0617891400427 -0.443065861987 3.37372413863e-18)
(-0.0655123295595 -0.467133864715 0)
(-0.0687046544304 -0.491150926837 6.40134937979e-18)
(-0.0712720508246 -0.515006698863 -3.12804600764e-18)
(-0.0731425770851 -0.538673856137 0)
(-0.0742459577078 -0.562044866789 0)
(-0.0745293582624 -0.585103930861 -2.94665344685e-18)
(-0.0739486330836 -0.607737478438 0)
(-0.0724636904621 -0.629920783365 0)
(-0.0700575311756 -0.651531527427 0)
(-0.0666988300083 -0.672528061203 0)
(-0.0623913032591 -0.692778291492 0)
(-0.0571179443169 -0.712216946564 -5.43078299275e-18)
(-0.0509019342477 -0.730705348758 -1.07662892297e-17)
(-0.0437433931821 -0.748152234349 0)
(-0.0356816863631 -0.764417549252 -5.2968398166e-18)
(-0.0267380661645 -0.779385705681 5.26827414381e-18)
(-0.0169634523673 -0.792918165154 0)
(-0.00639483962557 -0.804883306466 0)
(0.00491712299733 -0.815146516419 1.55714838881e-17)
(0.0169166488687 -0.823569426288 1.03440538112e-17)
(0.0295575149959 -0.830018904557 -5.16082692694e-18)
(0.0427896175608 -0.834359811413 -1.02944812148e-17)
(0.0565817699263 -0.836458280802 -5.13677170088e-18)
(0.0708882695982 -0.83619350896 0)
(0.0856781694193 -0.833426991468 1.54029024345e-17)
(0.100901770713 -0.82804517924 5.13736165388e-18)
(0.116527762753 -0.819889513487 0)
(0.132506050201 -0.808821976536 -1.02899613232e-17)
(0.148874427282 -0.793747041348 1.029773215e-17)
(0.165458040381 -0.77441930404 5.15663021816e-18)
(0.18221327312 -0.750569038262 0)
(0.199150699942 -0.722209790069 0)
(0.216288675817 -0.689384016529 0)
(0.233680611609 -0.65230429346 -1.03884825417e-17)
(0.251284223947 -0.611112985514 0)
(0.268993395704 -0.566069232277 1.04580544504e-17)
(0.286689016138 -0.517412116389 0)
(0.304303183673 -0.465496212623 5.27035371865e-18)
(0.321754381362 -0.4106562344 0)
(0.338970050327 -0.353270255561 5.3235859626e-18)
(0.355861094389 -0.293702284476 5.35356171382e-18)
(0.372344222805 -0.232323518608 0)
(0.388338460908 -0.169506176147 5.42548459667e-18)
(0.403765345347 -0.105606918285 0)
(0.418555579169 -0.0409837137798 -5.50056227176e-18)