/*--------------------------------*- C++ -*----------------------------------*\
| =========                 |                                                 |
| \\      /  F ield         | OpenFOAM: The Open Source CFD Toolbox           |
|  \\    /   O peration     | Version:  v1806                                 |
|   \\  /    A nd           | Web:      www.OpenFOAM.com                      |
|    \\/     M anipulation  |                                                 |
\*---------------------------------------------------------------------------*/
FoamFile
{
    version     2.0;
    format      ascii;
    class       volScalarField;
    location    "5";
    object      alpha;
}
// * * * * * * * * * * * * * * * * * * * * * * * * * * * * * * * * * * * * * //

dimensions      [0 0 -1 0 0 0 0];


internalField   nonuniform List<scalar> 
12225
(
0.378416938351
0.362313531197
0.366135592603
0.369465217191
0.380859786526
0.385993917175
0.392658453897
0.397555748853
0.400381837881
0.399999343036
0.395216735359
0.387401861101
0.381644445091
0.372294533142
0.353971249691
0.33331177403
0.309108300435
0.283367688442
0.305703216141
0.312208657471
0.345765701281
0.340201811021
0.348987995364
0.35169151945
0.35589966615
0.359054078505
0.361445850871
0.362589920909
0.361393856979
0.357983885339
0.355029486295
0.350233667953
0.340121819017
0.328075810465
0.314692413126
0.310272048815
0.353646775339
0.329134436598
0.345824220047
0.343662461273
0.352809183678
0.356142478085
0.360779596753
0.364177160559
0.366767127134
0.368173875221
0.367870094614
0.365807985759
0.362750379076
0.357711947989
0.349308393062
0.339955893291
0.331817361235
0.334843656183
0.354611613128
0.32221588412
0.34539320222
0.339982537169
0.348264693836
0.350188887429
0.353582741324
0.355907161292
0.357683611253
0.358586463091
0.358368274328
0.356954121886
0.354462776218
0.350431119243
0.344536087475
0.338639635929
0.335367153097
0.341337655865
0.360517899619
0.321419995734
0.344588363421
0.337860156236
0.345390361662
0.346312112324
0.348763151713
0.350125456927
0.35095757244
0.351025179634
0.350251485139
0.348639739355
0.346171413645
0.342722251922
0.33855596807
0.335256186104
0.335164205759
0.341852384611
0.363145657022
0.319738669236
0.343277366376
0.335325672822
0.342249031959
0.342376572767
0.344142035039
0.3448397792
0.345050822895
0.344605284603
0.34350367846
0.341806259566
0.339516769323
0.336721177093
0.333950108156
0.332563417389
0.334312509919
0.340861204766
0.364565792679
0.318608510896
0.341987802529
0.333083881266
0.339451928201
0.338928708676
0.340160105861
0.34036863337
0.340162861822
0.339415230206
0.338167779914
0.336515003108
0.334533491578
0.332425640272
0.330798388797
0.33075786731
0.333496431272
0.339684454762
0.365193846378
0.317878138614
0.340836207558
0.331207140062
0.33707013221
0.336018789441
0.336833685906
0.336687359837
0.336232595168
0.335353778491
0.334104711076
0.332605370129
0.330998267331
0.32954303379
0.328834864375
0.329718764348
0.332969017046
0.338715581871
0.365406540087
0.317540246179
0.339910996832
0.329750220218
0.335152201645
0.33365995256
0.33414169371
0.333751102417
0.333174888016
0.332283812484
0.33113137853
0.329865168322
0.328670445783
0.327825216895
0.327846469155
0.32937707009
0.332861256027
0.338208036109
0.365528987834
0.317583667923
0.339358814259
0.328828268131
0.333839757138
0.331993265787
0.332234760879
0.331699358591
0.331078940262
0.330230485483
0.32922961951
0.328251482278
0.327497289067
0.327217990767
0.327830503377
0.3298012874
0.333359560864
0.338281035445
0.366313049408
0.317803945071
0.339455618804
0.328601607044
0.333400859955
0.331363471857
0.331526032829
0.330952081705
0.330351061587
0.329601986584
0.328805061366
0.328122608642
0.327737525419
0.327856033853
0.328808329003
0.330921074187
0.334279831512
0.338655574175
0.370228667905
0.31814795187
0.34100852657
0.329661697182
0.334527272579
0.332420268092
0.332565924178
0.331984405206
0.331452942933
0.33081758913
0.330110269675
0.329503281426
0.329182677973
0.329351994553
0.330269554046
0.332172363379
0.335105219136
0.338841575761
0.373139330683
0.318939679459
0.342399731787
0.330723450844
0.33540855833
0.333155644476
0.333204537857
0.332541798224
0.331899565702
0.331142992938
0.330356339824
0.329708157697
0.329417080016
0.32962390783
0.330555855371
0.332358907381
0.335010064653
0.338314888058
0.376624285111
0.319828213937
0.343871510473
0.331756870484
0.336203629956
0.333620470647
0.333360944195
0.33247085975
0.331693127608
0.330888309175
0.330138391514
0.329625096961
0.329537586818
0.329970467367
0.331037064443
0.332834900867
0.335251832079
0.338198537656
0.381174744326
0.320806539869
0.345731420663
0.333013083566
0.337198834685
0.334218884433
0.333602641605
0.332440765402
0.331503983337
0.330684709234
0.330028937829
0.329728764553
0.329920347269
0.3305952305
0.33180738606
0.333578701266
0.335791310304
0.338356806023
0.385920320265
0.321801316617
0.347838217543
0.334527028417
0.338548590324
0.335224001778
0.334331811413
0.332959357373
0.331930460148
0.33110768851
0.330577177362
0.33045117556
0.33085992528
0.331684813865
0.332957845863
0.334639746774
0.336632929447
0.338884461177
0.390215424124
0.322636297576
0.349942119115
0.336148821468
0.340149950978
0.336614533819
0.335586225692
0.334125296522
0.333079107528
0.332319721914
0.331878533317
0.331884563328
0.33240062885
0.333289742514
0.334524853808
0.336091778722
0.337857724976
0.339861039225
0.394128521635
0.323221427875
0.351885702834
0.337708566658
0.341829114815
0.338219796546
0.337195641127
0.335739553747
0.334737541231
0.33404795842
0.333687148105
0.333771365889
0.334335681625
0.335217579158
0.336383010274
0.337823026536
0.339405557857
0.341193538792
0.396129539746
0.323152996102
0.352808210718
0.338475289614
0.342838442251
0.33935005556
0.338513565328
0.337225099021
0.336397789803
0.335875349701
0.335661901869
0.335855979277
0.336482988798
0.337368570357
0.338486440497
0.33983807922
0.341297769027
0.342932957827
0.391321138979
0.322280761199
0.351313465411
0.337664536948
0.342511358439
0.339630040932
0.339393330684
0.33871126376
0.338432914062
0.338399156044
0.338587574354
0.339081852724
0.339912674279
0.340919840488
0.342081789941
0.343407919571
0.344786028852
0.346271583921
0.387657011224
0.321170140023
0.349633531948
0.336481455232
0.341702842154
0.339307197381
0.339547363647
0.33930762435
0.339453432662
0.339770497548
0.340244330927
0.340936485853
0.34191096107
0.342984561103
0.344172069211
0.345464612657
0.346788839781
0.348174358579
0.384746584996
0.320064980976
0.348053524013
0.335331842114
0.340862391765
0.338895073079
0.339526206068
0.339671783118
0.340152829002
0.340753751333
0.341462650296
0.342318287052
0.343397581037
0.344538268703
0.345743636728
0.347027075332
0.348308873006
0.349650552558
0.381704307993
0.318863139798
0.346503619317
0.334181419508
0.34001583564
0.338464136632
0.339472166438
0.33997505939
0.340765813857
0.341642713763
0.3425494611
0.343568894367
0.344759745128
0.345981573219
0.347213529987
0.348514123262
0.349779757687
0.351078844749
0.378561988127
0.317627276045
0.344924702801
0.333076265113
0.339231623735
0.338078043767
0.339444231767
0.34028653894
0.341365430507
0.34247361441
0.343582399793
0.344746820934
0.346045812679
0.347334468892
0.348634287766
0.349967652994
0.351265177777
0.352549656373
0.375178202876
0.316405510006
0.343322556389
0.332025755375
0.338435851856
0.337686825612
0.339387611717
0.340525129604
0.341864800402
0.34320240926
0.344497692797
0.34579353224
0.34719964943
0.348574668232
0.349930423631
0.351325121892
0.352682504212
0.353998232822
0.371317350522
0.315515086936
0.341317383412
0.330803272791
0.33739888272
0.337001236376
0.338959593036
0.340356373323
0.341921978494
0.343467231968
0.344937895176
0.346361999074
0.347847033006
0.349299598488
0.350728731242
0.352179656117
0.353603620869
0.354890429249
0.361995336647
0.31299293849
0.338946498675
0.329186108226
0.33591720112
0.335894375981
0.338116493018
0.339761000538
0.341568542552
0.343368150443
0.345107488554
0.346702136832
0.34832747432
0.349943511447
0.351507438536
0.353111105721
0.354707426181
0.356450780309
0.365475354033
0.317757806964
0.332253481485
0.325669290308
0.332043386078
0.332379759685
0.334674619836
0.336342437144
0.338102625192
0.339837995806
0.341405903312
0.342823740956
0.344283646114
0.345698217792
0.34705123041
0.348471162547
0.349912127685
0.350662613397
0.284296161758
0.292762432804
0.328729139404
0.318897690336
0.325427104369
0.326030989974
0.328649553512
0.330969244607
0.333659570211
0.336612020719
0.339711412623
0.342582863461
0.345483108114
0.348528416924
0.351618744887
0.35473932954
0.357888720469
0.361196208773
0.341895555243
0.337107991076
0.333104903829
0.331700149698
0.338730900608
0.339166837627
0.341262392545
0.342737090761
0.34419060258
0.345357482512
0.346126528077
0.346805716218
0.347530595796
0.347906456114
0.347977680049
0.348039263857
0.348053347052
0.348665493944
0.476035845213
0.476383559033
0.476595953784
0.476577787335
0.476381099731
0.476061845098
0.475685090001
0.475285177489
0.474885156954
0.474500359723
0.474140585263
0.473811355261
0.473515363276
0.473253153007
0.473023957549
0.47282578646
0.472656288805
0.47251218073
0.472390493231
0.472288230678
0.472202204102
0.472130079389
0.472068501491
0.472016646766
0.471972402856
0.471936096917
0.471906054776
0.471882622936
0.47186510498
0.471854539053
0.471850830913
0.471854822549
0.471866262409
0.47188638642
0.471915243343
0.471953072594
0.471999084392
0.472054366354
0.472117943398
0.472190097423
0.472269736166
0.472356532716
0.472449193972
0.472546645745
0.472647321733
0.472749417086
0.47285102847
0.472949931414
0.473043695545
0.473130261058
0.473207447829
0.473274594214
0.473329445996
0.473369179138
0.473389820707
0.473387606879
0.473358595688
0.473299071644
0.473205373766
0.473075449982
0.472909685883
0.47270912167
0.472473004788
0.472200550163
0.47189121448
0.471546322843
0.471167330504
0.470756450345
0.470317111819
0.469852466865
0.469366871081
0.468864309436
0.468349252731
0.467825583108
0.467297525317
0.466768509117
0.466241928329
0.465721520103
0.465210117487
0.464709562149
0.464221226953
0.46374733864
0.463288898952
0.462847777698
0.462422368029
0.462013865873
0.461620888563
0.46123676098
0.460865179263
0.46049824494
0.460132779628
0.459770916406
0.459413276805
0.459084915593
0.458800663956
0.458529387872
0.45823803642
0.457921850538
0.45757600001
0.457218194538
0.456776808043
0.456270722447
0.456443485069
0.456632250459
0.456636050429
0.456452652133
0.456138652608
0.456049110778
0.455870350748
0.455688944655
0.45552901672
0.455387564974
0.455260001468
0.455142644917
0.455032674217
0.454928191286
0.454827086254
0.454726955315
0.454627561663
0.454530414817
0.454439188744
0.454355440537
0.454278213624
0.454206739911
0.454138468768
0.454072418732
0.454008086154
0.453945293081
0.45388386905
0.453823680553
0.453764467684
0.453706059499
0.45364829481
0.453591287137
0.453535083794
0.453479872959
0.453425730666
0.453372370295
0.453320282566
0.453269612403
0.453222042563
0.453176109748
0.453132404007
0.453092063926
0.453056304329
0.453026347224
0.453002628474
0.452985299846
0.452974449563
0.452970167378
0.452973052306
0.452984227766
0.453005173977
0.453037595517
0.453083738192
0.453146176336
0.453228012842
0.453332748249
0.453464841752
0.453629243927
0.453832892552
0.454083042846
0.454389369855
0.454764358805
0.455224522201
0.45578757009
0.456475084813
0.45730508543
0.458291516268
0.459457219665
0.460815684955
0.462364061064
0.464083141881
0.46592804192
0.467837345254
0.46984578749
0.471884088197
0.473859280685
0.475651398192
0.476923137788
0.47610351188
0.476362414138
0.476317985867
0.476074051278
0.47574708449
0.475393213774
0.475034763997
0.474683580633
0.474345099592
0.474022480938
0.473717329357
0.473431505833
0.473165383468
0.472919631983
0.472693855778
0.472487716327
0.472300116999
0.472129830252
0.471974938408
0.471834345676
0.471705872276
0.471588406793
0.471479783119
0.471379847612
0.471287172181
0.471202565246
0.471124925444
0.471054898186
0.470992361832
0.470938425814
0.470892886256
0.470856539712
0.470829645557
0.470813175732
0.47080654829
0.470810371084
0.470824134643
0.470848031808
0.470881425568
0.470924409756
0.470975992981
0.471035569307
0.471101881161
0.471173609191
0.471249026121
0.471326104922
0.471402342865
0.471475164075
0.471541105597
0.471596465064
0.471635420135
0.47165464847
0.471652463307
0.47162719848
0.471576503558
0.471498327371
0.471390862443
0.471250901007
0.471075606391
0.470865609791
0.470622019153
0.470346500573
0.470041812984
0.469710210636
0.469353003559
0.468971093512
0.468565548604
0.468137410397
0.467688066601
0.467218960672
0.466732161191
0.466229725542
0.465714535536
0.465189279347
0.464656780579
0.464120138066
0.46358246407
0.463046762443
0.462516090103
0.461992289643
0.461476404927
0.460970357688
0.460476429538
0.45999510835
0.459523667021
0.459065776184
0.458626137855
0.458194747162
0.45774899089
0.457301895015
0.456878122993
0.456444211715
0.455961892796
0.455452478481
0.454992669532
0.454597844166
0.45416627043
0.453870550684
0.453563452227
0.453211580894
0.452836102425
0.452268714417
0.452025130549
0.451781200774
0.451573674602
0.451376214302
0.451285059836
0.45126518529
0.451215582424
0.451137395678
0.451028326054
0.450904276313
0.450771120059
0.45063199504
0.450488306451
0.450340735277
0.450188705476
0.45003118733
0.449868211769
0.449702957997
0.44953957843
0.449380256386
0.449225551525
0.449074301002
0.44892509959
0.448777402349
0.448630899204
0.448485525943
0.44834122109
0.448197973828
0.448055708379
0.447914374905
0.447773944406
0.447634444685
0.447495748818
0.447357669325
0.447219685494
0.447081094877
0.446941370151
0.446801062736
0.44666070519
0.446519462356
0.4463774225
0.446235358611
0.446094649475
0.445956261836
0.445820240297
0.44568600576
0.44555268227
0.445419310227
0.445284672592
0.445147175115
0.44500494216
0.444856064541
0.444698793158
0.444531491855
0.444353018577
0.444162629751
0.443960598505
0.443747275491
0.443524786548
0.443296497394
0.443066700147
0.442839795112
0.442621119595
0.44241651003
0.442224972623
0.442058954298
0.441923597505
0.441823017228
0.441762484421
0.441749758928
0.441793921127
0.441882413078
0.442090574587
0.442316826774
0.442562160667
0.442806843095
0.443020023745
0.443284657336
0.475885940377
0.476009791008
0.475972967668
0.475831476481
0.475648089185
0.475457468359
0.475261235254
0.475059093531
0.474850210272
0.474636168363
0.474418964482
0.474201421851
0.473986233537
0.473776016688
0.473572741472
0.47337797955
0.47319252293
0.473016864887
0.4728507012
0.472693595661
0.47254463048
0.472403644625
0.472268900936
0.472140547193
0.472017849941
0.471901191893
0.471789989191
0.471685122582
0.47158656452
0.471495319681
0.471411574866
0.471336487348
0.471270107948
0.471213358382
0.47116640732
0.471129759446
0.471103016551
0.471086914754
0.471081058618
0.471085542827
0.471099885783
0.471123709456
0.471156183498
0.471196361168
0.471242940549
0.471294432653
0.471348855185
0.471404037598
0.471457373068
0.471506058527
0.47154558461
0.47157144525
0.471578531368
0.471563700814
0.471524519869
0.471458972386
0.47136555135
0.471244726519
0.471097166036
0.470920308853
0.470710608684
0.470465749046
0.470184448151
0.469866576664
0.469512556987
0.469123645572
0.468701465106
0.468248096254
0.467766421857
0.467259515233
0.466731153452
0.466185341843
0.465626249745
0.465058049342
0.464484801321
0.463910316544
0.46333798625
0.462770991635
0.462212061701
0.461663693373
0.461125938715
0.46059976949
0.460087564948
0.459590210935
0.459102738091
0.458622585927
0.458162296927
0.457722490036
0.457278591433
0.456816069844
0.45636268753
0.455944248275
0.455486564902
0.455014330806
0.454569477586
0.454143330417
0.453742254558
0.453462328648
0.453092341301
0.452652453878
0.452221739681
0.452015621431
0.451995422493
0.451905613303
0.451890102231
0.451852323426
0.451727658874
0.451498966673
0.45124865829
0.451027389542
0.450820901181
0.45062590516
0.450439009954
0.450258022919
0.450081337646
0.449907642397
0.44973527468
0.449562862103
0.449390379548
0.449220505615
0.449055898521
0.448897421366
0.448744102608
0.448594144907
0.448446833444
0.448301873083
0.448159106334
0.448018335018
0.447879321881
0.447741783647
0.447605392673
0.447469841371
0.447334919249
0.447200449507
0.447066231934
0.446931957725
0.446797209022
0.446661817875
0.446525882646
0.446390654591
0.446256240124
0.446121745149
0.445986010158
0.445849346749
0.445713135415
0.445578417687
0.445445685922
0.445314889552
0.445185974543
0.445058884108
0.444933770568
0.444810763194
0.444690340493
0.444573012274
0.444459288556
0.444349638319
0.444244597658
0.444144482535
0.444049574027
0.443959708852
0.443874441004
0.443792933665
0.443713822798
0.443634883091
0.443553473324
0.443465942142
0.44336603802
0.443249438962
0.443115746097
0.442963543077
0.442792991533
0.442608691075
0.442417490709
0.442234778323
0.442082367838
0.441974877095
0.441918132038
0.441911470287
0.441933822673
0.441903638388
0.475734106157
0.475764675511
0.475829866071
0.475827252872
0.475769249012
0.475689561282
0.475584932285
0.475456182343
0.475304581032
0.47513276659
0.474944413759
0.474744163079
0.474536021686
0.47432397772
0.47411114006
0.473900205799
0.473693022849
0.47349096435
0.473294522452
0.473104570802
0.472920547412
0.472742541405
0.472570102557
0.472403471244
0.47224187895
0.472086296754
0.471936531864
0.471793406129
0.471657208597
0.471529122083
0.471409542932
0.471299459404
0.471199385184
0.471110410495
0.471032304218
0.470965990838
0.470911376392
0.47086876495
0.470837797741
0.470818579409
0.470810361926
0.470812529601
0.470823871547
0.470842979507
0.470868021474
0.470896852805
0.470926780122
0.47095504348
0.470978208976
0.470992546826
0.470994369341
0.470981099402
0.470948222845
0.470891973235
0.470808783259
0.47069570944
0.470550273254
0.470371826617
0.470162764327
0.469927199504
0.469666481174
0.469379346414
0.469063770848
0.468718712325
0.468343486217
0.467937699805
0.467501800404
0.467036931166
0.466544934469
0.466028441171
0.465490632705
0.464935377824
0.464367151884
0.463790141552
0.46320851177
0.462627079906
0.462049618431
0.461478351808
0.460917192857
0.460369822952
0.459835775067
0.459312328924
0.458805106883
0.458320686123
0.457848806281
0.457380900755
0.456926964896
0.456515679057
0.456099406327
0.455664361284
0.455238478049
0.454850169556
0.454487672191
0.454116330891
0.453745084856
0.453313122797
0.452884767931
0.452505254796
0.452145797191
0.45189740373
0.451780954083
0.451775662937
0.451719753587
0.451584136694
0.451467023836
0.451303771121
0.451055034703
0.450734616381
0.450411492119
0.450126739297
0.449874750185
0.449648131518
0.449439821504
0.449244780084
0.44905950415
0.448881323738
0.448707991867
0.448537771726
0.448370877699
0.448209269107
0.448054709163
0.447906861383
0.447763481202
0.447623069318
0.447485216102
0.447349987236
0.447217384699
0.447087276158
0.446959385499
0.446833336262
0.446708683621
0.446585016945
0.446462010575
0.44633939037
0.446216864082
0.446094053366
0.445970757798
0.445847231768
0.44572448714
0.445603942932
0.445485912133
0.445368754065
0.445250602568
0.445131423696
0.445012265588
0.44489409077
0.444777280324
0.44466174781
0.444547291445
0.444433671705
0.444320721653
0.444208243119
0.444096206723
0.443984604163
0.443873437924
0.443762734699
0.443652644413
0.443543335839
0.443435181671
0.443328581336
0.443223661503
0.443120623927
0.443019755697
0.442920866097
0.442823464185
0.442726314772
0.442626264635
0.442521384623
0.442411071726
0.442292959641
0.442165406302
0.442028867238
0.441883653864
0.441732580592
0.441587791639
0.441452423376
0.441324850853
0.441195933591
0.441030555197
0.440746214699
0.475599231419
0.47566865243
0.475886864075
0.475982978196
0.475980363992
0.47593989602
0.475863288189
0.475754597631
0.47561547116
0.475449978873
0.475262012695
0.475056196773
0.474836768351
0.474608026363
0.474373341688
0.474135963645
0.473898028557
0.473661786231
0.473428289151
0.473198501689
0.472972777237
0.472752021427
0.472535589019
0.472324329083
0.472118271934
0.471917999083
0.471723653591
0.471536423846
0.47135671028
0.471185681822
0.471023904194
0.47087271781
0.47073240735
0.470603954717
0.470487730637
0.47038442979
0.470293801683
0.470216602669
0.470152469012
0.470101447311
0.470062909329
0.470036323496
0.470020507338
0.470014163702
0.470015464397
0.470022463723
0.470032558591
0.470042960646
0.470050524271
0.470051550013
0.470040972481
0.470015586469
0.46997120493
0.469903799726
0.469810264522
0.469687974865
0.469534338368
0.469348426868
0.469132062218
0.468886671469
0.468613315481
0.468312511398
0.467983717399
0.467625919951
0.467237913776
0.466818980809
0.466368966751
0.465888564321
0.465379965368
0.464845946466
0.464290184576
0.463716953425
0.463132010939
0.462539215284
0.461942806751
0.461348319727
0.46076111324
0.460181421465
0.459610239236
0.459057101024
0.45852549837
0.458003120636
0.457494582245
0.457014082061
0.456547191406
0.456079144616
0.455625613274
0.455200375937
0.454819867545
0.454444349886
0.454046431502
0.453682381723
0.45327169513
0.452849602708
0.45244513395
0.4520559789
0.451748170698
0.45149909041
0.451305824019
0.451209807178
0.451176436331
0.451138138403
0.451021810652
0.450848261827
0.450662888712
0.450438943721
0.45016628901
0.449862111232
0.449563615939
0.449293206557
0.449051198592
0.448833407117
0.448634375432
0.448449580827
0.448275532623
0.448109496279
0.447949242754
0.447793437918
0.44764254775
0.447498166466
0.447361261242
0.447230447484
0.447103236233
0.446978342181
0.446855640157
0.446735375723
0.446617691866
0.446502522727
0.446389611815
0.446278539814
0.44616880321
0.44605992377
0.445951483451
0.445843149153
0.445734510013
0.445625172404
0.445515138167
0.445405141427
0.445296994422
0.445192200788
0.445091040669
0.444991123993
0.444890266169
0.444788148013
0.444685585911
0.444583470604
0.444482134019
0.444381608274
0.444281761266
0.444182505093
0.444083744845
0.443985421431
0.443887520412
0.443790067147
0.443693073795
0.443596597431
0.443500743886
0.443405634783
0.443311490605
0.443218485032
0.443126470405
0.443035272755
0.442944579485
0.442853570272
0.44276121757
0.442665951631
0.44256474268
0.442455675916
0.442337937665
0.442209434547
0.442069546095
0.441919218064
0.441758714054
0.441590361525
0.441422818811
0.441256524873
0.441085651143
0.440895639131
0.440644951261
0.440260945943
0.475441252722
0.475746775025
0.476108682552
0.47620462702
0.476176400814
0.476122203899
0.476039275396
0.47592924674
0.475791278765
0.475626977095
0.475438616195
0.475230458939
0.475005832189
0.474768905578
0.474522654929
0.474270438314
0.474014436306
0.473756982259
0.473499280269
0.473243222167
0.472989036088
0.472737691472
0.472489660285
0.472245712181
0.47200576009
0.471771173518
0.471542305396
0.471320288323
0.471105795063
0.470900186557
0.47070417441
0.470518922569
0.470345127798
0.470183967439
0.470035455894
0.469900598528
0.469779472064
0.46967249543
0.469579371234
0.469500246253
0.46943432014
0.469381019343
0.469338982783
0.469306809424
0.469282513995
0.469264076192
0.469248817313
0.469234162886
0.469216871573
0.469193245888
0.469158344766
0.469109007234
0.469040696968
0.468949358938
0.468831387994
0.468683724417
0.468504081644
0.468294647422
0.468058006146
0.467795996548
0.467509316163
0.467197654727
0.466859455529
0.466492695852
0.466095202642
0.465665382415
0.465202143079
0.464705792588
0.464178826322
0.463625705131
0.463049550243
0.462455914374
0.461852155784
0.461244181271
0.460632997194
0.46002512433
0.459430228964
0.45885027594
0.458278216323
0.457720696347
0.457197871039
0.456671633397
0.456157839686
0.455667075021
0.455206055102
0.454781656588
0.454369549235
0.453969335174
0.453590114746
0.453183367695
0.452774514472
0.452357167448
0.45190994286
0.451510697408
0.451188510148
0.450947817414
0.450786784355
0.450659305576
0.450553925799
0.450479782
0.450409403384
0.450307205257
0.450153966802
0.449967966819
0.449766149112
0.449538941402
0.449285856806
0.449018997085
0.44875774678
0.44851468141
0.448292469699
0.448089797548
0.447903586293
0.4477306704
0.447568279049
0.447414044465
0.447265979771
0.447123247886
0.446986376286
0.446856733996
0.446734577317
0.446617886063
0.446504375336
0.446392915187
0.446283457028
0.446176268284
0.446071551234
0.445969275455
0.445869196743
0.445770875684
0.445673788831
0.445577409362
0.445481287219
0.445385003112
0.4452880812
0.445190133775
0.445091373526
0.44499314603
0.444897517609
0.444806299529
0.444719177826
0.444633518471
0.444547096486
0.444459354114
0.444370943315
0.444282558688
0.444194521377
0.444106867321
0.444019542883
0.443932525488
0.443845797786
0.443759359959
0.443673215429
0.443587375867
0.443501835698
0.443416617963
0.443331776029
0.443247358815
0.443163476033
0.443080152262
0.442997136396
0.442914148082
0.442830716236
0.442745869033
0.442658433545
0.442566801441
0.442468234148
0.442360912135
0.442243846725
0.442114928746
0.441973693932
0.44182087519
0.44165618064
0.441480824567
0.441300925802
0.441114949317
0.440915439263
0.440685613335
0.440385020876
0.4399562808
0.475287326553
0.476022494402
0.476424184991
0.476391516999
0.476282392507
0.476188626479
0.476084851689
0.475963097539
0.475816335708
0.475644895362
0.475449504319
0.475233638648
0.474999969424
0.474752393638
0.474493431939
0.474226417859
0.473953234076
0.473676562013
0.473397596874
0.473117893501
0.472838331323
0.472560377512
0.472283986971
0.472010536431
0.471740568431
0.471475035451
0.471214534989
0.47096054148
0.470713743887
0.470475548232
0.470246746344
0.470028812972
0.469822245739
0.469628130482
0.469447022175
0.469279693283
0.469126090114
0.468986960753
0.468861958601
0.468751081344
0.468653546252
0.468568718952
0.468495185924
0.468431563465
0.46837589135
0.468326446621
0.468280810344
0.468236808792
0.468192004985
0.468143486531
0.468085573409
0.468015892392
0.467929533861
0.467820866548
0.467685078345
0.46751784829
0.467317867917
0.467089811951
0.46683638542
0.466560444157
0.466263226399
0.465944554733
0.465602185337
0.465232270976
0.464830207365
0.464393845232
0.463920670268
0.463409861669
0.462865125592
0.462293002337
0.461698079819
0.461083611206
0.460460951568
0.459841110339
0.459223598057
0.458610516717
0.458012921243
0.457431525376
0.456853062883
0.456292762791
0.455756534368
0.455252317487
0.454784936305
0.45432824853
0.453885745849
0.453472133792
0.453079529645
0.4526900081
0.452274879394
0.451831988403
0.451405240961
0.451002133712
0.450641989656
0.450364895675
0.450165241576
0.450027078931
0.449927057577
0.449833246499
0.449738095569
0.449642849181
0.449534323618
0.449400538644
0.44923895114
0.449059392198
0.448867179298
0.448658865609
0.448435861724
0.448205789979
0.447979449648
0.447764682781
0.447564720251
0.447379820023
0.44720867844
0.44704935355
0.446899876463
0.446758221181
0.44662286913
0.44649328669
0.446370162868
0.446254538772
0.44614604001
0.446042689207
0.445942379358
0.445844133517
0.445747834184
0.445653703919
0.445561902698
0.445472414283
0.445384990614
0.445299206577
0.445214532658
0.4451304307
0.445046429439
0.444962030253
0.444876705268
0.444790091782
0.444702668609
0.444616176005
0.444532930006
0.444454680859
0.444380615572
0.44430815518
0.444235065051
0.444160772453
0.444085744126
0.444010471057
0.443935190151
0.443859886883
0.443784574133
0.443709260941
0.443634024934
0.443558891798
0.443483908249
0.443409060306
0.443334340873
0.443259722402
0.443185214126
0.443110783073
0.443036433618
0.442962058842
0.442887291675
0.442811731022
0.442734752772
0.442655274111
0.442571994795
0.442483319625
0.442386696507
0.442280443336
0.442163492235
0.442033865355
0.441891084638
0.44173580397
0.441567253638
0.441385730247
0.441195281066
0.440992999951
0.440770385624
0.440509879115
0.440174643354
0.439721192606
0.47516131209
0.476452721091
0.476705704665
0.476441576092
0.476243406148
0.476109567036
0.475980613521
0.475839785735
0.475676714617
0.475490315327
0.475280455178
0.475050900295
0.474803458838
0.474541943971
0.47426826784
0.473985672704
0.47369578147
0.473401061093
0.473102541134
0.472802400855
0.472501044149
0.472199893465
0.471899721742
0.471601615485
0.471305848807
0.471014060543
0.470726785361
0.470445338679
0.470170520468
0.469903802855
0.469645957941
0.469398219784
0.469161355018
0.46893652702
0.468723918076
0.468524533887
0.468338535941
0.468166317791
0.468007614036
0.46786247509
0.467730009308
0.467609573537
0.467499805116
0.467399437716
0.467306836098
0.467220667904
0.467139546323
0.467062375723
0.466987840789
0.466914524827
0.46683816385
0.466754205175
0.46665707521
0.46653811084
0.466388800705
0.466201723674
0.465978612776
0.465727013923
0.465451241459
0.465156045737
0.464844709318
0.464517772179
0.464173161901
0.463803188547
0.463400422102
0.462960401246
0.462480440261
0.461957924283
0.46139560006
0.460805725166
0.460198038853
0.459572457135
0.458937955333
0.458316257398
0.457687118882
0.457060800444
0.456456505521
0.455877050497
0.455327733624
0.454812315736
0.45431025575
0.453824231578
0.453368633161
0.452945998282
0.452543175202
0.452146565894
0.451743859544
0.451328463509
0.450905364937
0.45049977278
0.450138053577
0.449825795172
0.449575200492
0.449392410166
0.44925900314
0.449155993309
0.449063986219
0.448967289807
0.448863040361
0.448751294021
0.448627281471
0.448487801457
0.448333805799
0.448169346615
0.447995715601
0.447811481139
0.44761809468
0.447420377112
0.447224849447
0.447036842891
0.446859355282
0.446693408257
0.446538722366
0.446394299414
0.446258728839
0.446130393121
0.446008150488
0.445891777524
0.445782033858
0.445679696318
0.445584135779
0.445493496195
0.445405982034
0.445320670919
0.445237345455
0.445156113041
0.44507706937
0.445000175139
0.444925185277
0.444851697511
0.444779199632
0.444707185234
0.444635151091
0.444562562416
0.444488796751
0.444413584302
0.444337680515
0.444263024994
0.444192061046
0.444126125288
0.444064201698
0.444003843459
0.443943044918
0.443881262639
0.44381875478
0.443755866823
0.443692689821
0.443629187515
0.443565356455
0.443501252044
0.443436989858
0.443372641103
0.44330827023
0.443243863682
0.443179397329
0.443114808357