/*--------------------------------*- C++ -*----------------------------------*\
| =========                 |                                                 |
| \\      /  F ield         | OpenFOAM: The Open Source CFD Toolbox           |
|  \\    /   O peration     | Version:  v1806                                 |
|   \\  /    A nd           | Web:      www.OpenFOAM.com                      |
|    \\/     M anipulation  |                                                 |
\*---------------------------------------------------------------------------*/
FoamFile
{
    version     2.0;
    format      ascii;
    class       volScalarField;
    location    "5";
    object      p;
}
// * * * * * * * * * * * * * * * * * * * * * * * * * * * * * * * * * * * * * //

dimensions      [0 2 -2 0 0 0 0];


internalField   nonuniform List<scalar> 
12225
(
-1.23304045633
-1.88365776136
-2.20968096227
-2.3539251314
-2.42712984932
-2.47640957394
-2.51875977
-2.558444876
-2.59478850761
-2.62560355749
-2.64858250398
-2.661699598
-2.66320054832
-2.65137723615
-2.62423175287
-2.57904574663
-2.51107598663
-2.41352552586
-1.39096494893
-1.91422815488
-2.21829911359
-2.35868684227
-2.43123828212
-2.48056594184
-2.52300695854
-2.56267606759
-2.59891876021
-2.62961283491
-2.65251267388
-2.66564272856
-2.66729057528
-2.65579700828
-2.62925627105
-2.58521822884
-2.52058888769
-2.44651429984
-1.52732731098
-1.92442734478
-2.20421139128
-2.34655295156
-2.42413100482
-2.47760872375
-2.52285313422
-2.56423031285
-2.60147236173
-2.63280510744
-2.65625184049
-2.67004286787
-2.67263959519
-2.66257858805
-2.6382728895
-2.59795313938
-2.54000177151
-2.47169578246
-1.6471277325
-1.94829835743
-2.2025578889
-2.34662341006
-2.4292350414
-2.48625498534
-2.53328576881
-2.57523630611
-2.61242431073
-2.6435371595
-2.66692412982
-2.68104913207
-2.68456885258
-2.67624865567
-2.65486589261
-2.61927147169
-2.56871224159
-2.50690773236
-1.75427174453
-1.98255104673
-2.2075553969
-2.34881213229
-2.43393233451
-2.49296054049
-2.5408343076
-2.58286042048
-2.6198486403
-2.65087344315
-2.67455402443
-2.68955150868
-2.69470262556
-2.68900265009
-2.67158528758
-2.64183032467
-2.59961093702
-2.5471314519
-1.85052243129
-2.02367608839
-2.21868630861
-2.35395170053
-2.44023444256
-2.50104063318
-2.55002183758
-2.59260757703
-2.62997140946
-2.66151666475
-2.68611352576
-2.7026265558
-2.7100926276
-2.70775937854
-2.69511613003
-2.67201996324
-2.63890920073
-2.59787829581
-1.93745814106
-2.06928943008
-2.23571608918
-2.36260447066
-2.44861365929
-2.51068045321
-2.56066307809
-2.603861188
-2.6417161189
-2.67393297426
-2.69963907642
-2.71792110615
-2.72803809869
-2.72950080864
-2.72213633879
-2.70621627773
-2.68264531009
-2.65367031331
-2.01647501646
-2.11755345611
-2.25804600394
-2.37497745813
-2.45932630943
-2.52204951528
-2.57288985963
-2.61678160112
-2.65532964627
-2.68850280947
-2.71567833767
-2.73616792918
-2.74945500976
-2.75530143133
-2.75383053235
-2.74564453522
-2.73198079062
-2.71516038313
-2.08876285274
-2.16707806866
-2.2848995478
-2.39110249966
-2.47260039237
-2.53535832897
-2.58688430392
-2.63154394753
-2.67099092456
-2.70540771931
-2.73440147564
-2.75750183064
-2.77440631007
-2.78510361262
-2.7899593341
-2.78981447371
-2.78609893223
-2.78102849901
-2.1553239427
-2.21685335704
-2.31543925516
-2.4108569715
-2.48860140039
-2.55080715658
-2.6028266927
-2.64831254543
-2.68885788902
-2.72480156875
-2.75595372252
-2.78204515319
-2.80296864833
-2.81890432673
-2.83039898751
-2.83843839357
-2.84451482505
-2.85061735998
-2.21696623679
-2.26613791507
-2.34879296855
-2.43393353187
-2.50736365552
-2.56853054842
-2.62086584518
-2.66723537756
-2.70907809816
-2.74682809568
-2.78046410358
-2.80989304958
-2.83517473894
-2.85663734735
-2.87494522433
-2.89114210718
-2.90668267378
-2.92322903117
-2.26961878366
-2.31048758153
-2.38127227004
-2.4577792378
-2.52701755837
-2.58689277952
-2.63937490618
-2.68660357364
-2.7298077095
-2.76945340449
-2.8056348763
-2.83839007997
-2.86789799531
-2.89458266779
-2.919157919
-2.94265848306
-2.96643813727
-2.9918581085
-2.31885747047
-2.35343073937
-2.41451886528
-2.48333770741
-2.54845667589
-2.6068830348
-2.65942394231
-2.70754358085
-2.75222813775
-2.79393271384
-2.83283112521
-2.86906215701
-2.90289435688
-2.93480380852
-2.96552140312
-2.99602032498
-3.0275298887
-3.06108182746
-2.37140705447
-2.40069290286
-2.45310404809
-2.51447657907
-2.57523772792
-2.6319721656
-2.68453600325
-2.73373063246
-2.78025447019
-2.82450542799
-2.86670672377
-2.90706682101
-2.94591222992
-2.98373978599
-3.02124055769
-3.05928720227
-3.0989149625
-3.14082247121
-2.42645494776
-2.45156265468
-2.49670346892
-2.5513750005
-2.60790628786
-2.66289789645
-2.71553539659
-2.76604447877
-2.81481118159
-2.86213831687
-2.90823960595
-2.9533646443
-2.99783823918
-3.04213745997
-3.08685544886
-3.13271765418
-3.18053474942
-3.23064711323
-2.48266132232
-2.50471558213
-2.54427958936
-2.59352157803
-2.64646866052
-2.70002283673
-2.7530009109
-2.80517790187
-2.85665713386
-2.90759261902
-2.95816561078
-3.00857817745
-3.05913441711
-3.11020307168
-3.16226725065
-3.2158361042
-3.27151282447
-3.32927271152
-2.53772588352
-2.55782951826
-2.59372237101
-2.63931474736
-2.68991679694
-2.74282882713
-2.79672120634
-2.85108171889
-2.90577296977
-2.96080773186
-3.01626505893
-3.07228156884
-3.12905086689
-3.18682935439
-3.24591353096
-3.30662986856
-3.3693292173
-3.43372013484
-2.58751202333
-2.60677127589
-2.64111035323
-2.68534129618
-2.73549018797
-2.78914139787
-2.84493479032
-2.90220906652
-2.96066717662
-3.02019523225
-3.08075873655
-3.14238646541
-3.20513939177
-3.26912913068
-3.33447524598
-3.40132490244
-3.46983336061
-3.53949890805
-2.62426277793
-2.64401916915
-2.6794675092
-2.72539234549
-2.77779319618
-2.83425637659
-2.89342293526
-2.95461325219
-3.01747940164
-3.08183190281
-3.14753205664
-3.2144888777
-3.28262041981
-3.35189177341
-3.42225969579
-3.49371860391
-3.56626582782
-3.63924627302
-2.63044631764
-2.65243034711
-2.69230660677
-2.74348585426
-2.80094093945
-2.86196069828
-2.9252831365
-2.99046436108
-3.05727665315
-3.12560093626
-3.19523478743
-3.26604172326
-3.33781513707
-3.41045710597
-3.48380018821
-3.55779080399
-3.63232581453
-3.70671912318
-2.61559575353
-2.64098600509
-2.68741656066
-2.7457438897
-2.8093133745
-2.87511026148
-2.94227551797
-3.01075928627
-3.08065257871
-3.15188681623
-3.22432260308
-3.29771500605
-3.37186978338
-3.44655843865
-3.52165128737
-3.59697893603
-3.67251086129
-3.74746132991
-2.58436998857
-2.61534696092
-2.67160821687
-2.7394846548
-2.81016347073
-2.88080759243
-2.95144165895
-3.02275350602
-3.0951781063
-3.16879412345
-3.24343577406
-3.31883595056
-3.39472534394
-3.47085611812
-3.5470440846
-3.62312806555
-3.69903959365
-3.77403222747
-2.53920193721
-2.57913914718
-2.6494278976
-2.72906228268
-2.80714923629
-2.88209479062
-2.95551707605
-3.02905125396
-3.10351888444
-3.17908194423
-3.25553712652
-3.33257248197
-3.40984514567
-3.48710514584
-3.56410544473
-3.64072320374
-3.71684107042
-3.79178669202
-2.4813375026
-2.53558405075
-2.62507250443
-2.71807036176
-2.80298095038
-2.88116644559
-2.95651003469
-3.03166018132
-3.10772881207
-3.18487179965
-3.2628073314
-3.34113190563
-3.41946751829
-3.4974994305
-3.57499970506
-3.65177452628
-3.72772480404
-3.80209872167
-2.41106554198
-2.48796497777
-2.60236490293
-2.70909389427
-2.79927680151
-2.87929688502
-2.95568074397
-3.03195424574
-3.1093582751
-3.18794912209
-3.26732052982
-3.34697302015
-3.42647444281
-3.50548348382
-3.58373967059
-3.66102071251
-3.73718446913
-3.81145419113
-2.32792088697
-2.44005392225
-2.58458778809
-2.70362975707
-2.79674667687
-2.87702149617
-2.95346269459
-3.03012976061
-3.10819817934
-3.18755020127
-3.26763644002
-3.34788518176
-3.42784326628
-3.50717180104
-3.58561091146
-3.66290507147
-3.73876155201
-3.81206958586
-2.23090252841
-2.39637116076
-2.57402900189
-2.70215471222
-2.79602066639
-2.87598525261
-2.9528102073
-3.03058079156
-3.11013238448
-3.19102834965
-3.27251599184
-3.35391511924
-3.43477678562
-3.51478381869
-3.59373029487
-3.67140283889
-3.7474458844
-3.8204564297
-2.11879394778
-2.36250538463
-2.57112523263
-2.70147109328
-2.79136608529
-2.8679607063
-2.94313156057
-3.02068613111
-3.10094035559
-3.18300472954
-3.26579737745
-3.34846701935
-3.43047096456
-3.51149057781
-3.59136959473
-3.66999358884
-3.74702333507
-3.82042332394
-1.98950930735
-2.34728512028
-2.5871446231
-2.71870983166
-2.80431262323
-2.87668647552
-2.94880208455
-3.02447141996
-3.10372897148
-3.18537588209
-3.26808859167
-3.35085235993
-3.43302974549
-3.51427597026
-3.59448706559
-3.67375341085
-3.75225593275
-3.82902090247
-1.83331828019
-2.31018742312
-2.57600997251
-2.71324199709
-2.80028904934
-2.87298341644
-2.94520131412
-3.02103302165
-3.10055423742
-3.18252956978
-3.26559321672
-3.34869732093
-3.43118354146
-3.51271260329
-3.59321692651
-3.67291511246
-3.75244151495
-3.83582553604
-1.55003206207
-1.55287719975
-1.55847922313
-1.57135984
-1.59566405272
-1.63446649653
-1.68947036507
-1.76198481694
-1.85293460248
-1.9628976207
-2.09212614596
-2.24062775329
-2.40816683642
-2.5943517333
-2.79862362016
-3.02034719143
-3.25878532533
-3.51319121724
-3.78276562597
-4.06674873886
-4.36436421868
-4.67490986345
-4.99768541827
-5.33208453546
-5.677512328
-6.033476776
-6.39949724591
-6.7751963751
-7.1601956395
-7.55420984254
-7.95693489304
-8.36814320835
-8.78755431509
-9.21493266378
-9.64994899641
-10.0922746791
-10.5414209025
-10.996836411
-11.4577266663
-11.9231461428
-12.3918054696
-12.8621718645
-13.3322725449
-13.7997918724
-14.261878342
-14.7152664878
-15.1561528707
-15.5803963767
-15.9833649272
-16.359991917
-16.7046056637
-17.0111863899
-17.2734372575
-17.48499158
-17.6394113952
-17.7302023641
-17.7504222878
-17.6924897036
-17.5481730437
-17.30895081
-16.9666957704
-16.514530822
-15.9469707863
-15.2598342676
-14.4505550878
-13.5187604299
-12.4668541832
-11.3005006333
-10.0289143353
-8.66485202522
-7.22431924742
-5.72593528105
-4.19011034285
-2.63804049601
-1.09072721729
0.432024178886
1.91234633558
3.33489320264
4.68716987851
5.9597647593
7.14617315006
8.24262484099
9.24796249326
10.163333513
10.991122127
11.7347124606
12.3994175389
12.9919751915
13.5178344957
13.9812718595
14.3885129755
14.7474271114
15.0636689239
15.3398374252
15.5793107808
15.7872505022
15.9682829769
16.1266836341
16.2636681605
16.3791689248
16.4765529321
16.5605683337
16.632460672
16.6915208407
16.7391599153
16.7782312185
16.8102884136
16.8336546037
16.8467642648
16.8528097822
16.8544021383
16.853007284
16.8494540676
16.8442819647
16.8378880543
16.8306060678
16.8227209517
16.8144927216
16.8061461765
16.7978836202
16.7898710397
16.7822555906
16.775158302
16.7686887577
16.7629253062
16.7579283199
16.7537244981
16.7503338605
16.7477565583
16.7459960961
16.7450396692
16.7448778776
16.7454841399
16.7468348666
16.7488901789
16.7516141495
16.7549568275
16.7588735404
16.7633091488
16.7682127836
16.773524141
16.7791868745
16.7851442518
16.7913460764
16.7977408409
16.8042753902
16.8108867744
16.8175155095
16.8241036849
16.8305899467
16.8369128235
16.8430228423
16.8488767238
16.8544381038
16.8596719317
16.8645488278
16.8690420179
16.8731307376
16.8767967121
16.8800321087
16.8828375069
16.8852270181
16.8872246121
16.8888673842
16.89021988
16.8913756375
16.8924499547
16.8936210725
16.8951568822
16.8974397235
16.9010251273
16.906600279
16.9149645769
16.9271921498
16.9448122262
16.9700209192
17.0059215517
17.0568640678
17.1301508544
17.2141363091
-1.5217944435
-1.53429310646
-1.54775198772
-1.56332023946
-1.58904873946
-1.62916975726
-1.6857206172
-1.76014915625
-1.8533448438
-1.96580730937
-2.09770246924
-2.24894532187
-2.41922122092
-2.60806228518
-2.81485436975
-3.03891033922
-3.27946411707
-3.53574009273
-3.80693379056
-4.09227624628
-4.39100318071
-4.70241613906
-5.02584093955
-5.36068386027
-5.70638361203
-6.06246739226
-6.42849524926
-6.80411156951
-7.18898356928
-7.58285374735
-7.98547098964
-8.39663826733
-8.81613640043
-9.24376909465
-9.67927611758
-10.1223709392
-10.572642211
-11.0295848833
-11.4924834464
-11.9604296231
-12.432204649
-12.9063019968
-13.380802524
-13.8533829065
-14.3211840758
-14.7808384756
-15.228505398
-15.6600164389
-16.0707540145
-16.4554898963
-16.808379555
-17.1232395099
-17.3937074539
-17.6134276168
-17.7761897795
-17.87576592
-17.9052126696
-17.8565951674
-17.7211311566
-17.4896794375
-17.1541314135
-16.7083021059
-16.1470881217
-15.4660126555
-14.6619743684
-13.7339519458
-12.6837143554
-11.5164100928
-10.2409350137
-8.86998207429
-7.41975067001
-5.90929082243
-4.35958292844
-2.79248232061
-1.22966955281
0.308415079115
1.80342618453
3.23964162376
4.60427330166
5.88781280862
7.083877458
8.18863697255
9.20080549481
10.1219356705
10.955115299
11.7035280059
12.3718478511
12.9673935191
13.4967374359
13.9635903508
14.3731367129
14.7333095228
15.0504444434
15.3267954772
15.5658071323
15.7732643811
15.9541348267
16.1121005048
16.249436562
16.3657269742
16.4634120246
16.5486528845
16.6227257418
16.6835161634
16.7320961474
16.7714036034
16.8034227843
16.8269666678
16.841057141
16.8480173918
16.8502486346
16.8492710306
16.8459943366
16.841009718
16.8347539493
16.8275781659
16.8197841107
16.811634508
16.8033618349
16.7951659162
16.7872168714
16.7796593373
16.7726185856
16.7662008431
16.7604884511
16.7555364423
16.7513756555
16.7480217196
16.7454796799
16.7437490902
16.7428218572
16.7426846987
16.7433154126
16.7446867229
16.7467628154
16.7495044137
16.752865282
16.7567979215
16.7612503402
16.7661691643
16.7714962918
16.7771746011
16.7831489925
16.7893695469
16.7957857961
16.8023435147
16.8089827402
16.8156394369
16.822247903
16.8287492202
16.8350894591
16.8412215228
16.847102657
16.8526950492
16.8579629375
16.8628757028
16.8674075258
16.8715383707
16.8752497167
16.8785322919
16.8813859364
16.8838231101
16.8858668596
16.8875588862
16.8889584994
16.8901545993
16.8912748325
16.892508063
16.8941288998
16.8965221528
16.9001870732
16.9057442173
16.9139730586
16.9259103784
16.9430420096
16.9675190708
17.0023568901
17.0517305707
17.1224470787
17.2034641107
-1.50553164538
-1.52287867937
-1.54965745158
-1.58434151871
-1.62903664803
-1.68595269063
-1.75723619794
-1.84454675636
-1.94896958304
-2.0711552365
-2.2113799234
-2.36964333032
-2.54570412395
-2.7391632239
-2.9494775942
-3.17603360234
-3.41814429585
-3.67511514942
-3.94622762383
-4.23079830718
-4.5281512061
-4.83767250351
-5.15877404751
-5.49094364005
-5.8337029591
-6.18665604998
-6.54944168571
-6.92177926387
-7.30341573695
-7.6941701546
-8.09387499897
-8.50241667372
-8.91966936942
-9.34552958067
-9.77983968495
-10.222413322
-10.67294874
-11.1310429142
-11.5960836108
-12.067247044
-12.5433943012
-13.023071733
-13.5043925684
-13.9850141899
-14.4619941831
-14.9317999472
-15.3904489886
-15.8336668884
-16.2567509659
-16.654182035
-17.0198136887
-17.3472302697
-17.6299221932
-17.8616084619
-18.0363446528
-18.1479395619
-18.1890587857
-18.1512711051
-18.0254375798
-17.8028393208
-17.4766615254
-17.0410460134
-16.4901434376
-15.8186239092
-15.022281785
-14.0988639658
-13.0489801741
-11.876899891
-10.5910635431
-9.20420398782
-7.73308342518
-6.19777606709
-4.62054553594
-3.02459973164
-1.43295384031
0.13273445374
1.65328707423
3.11250087358
4.49718627929
5.79765257849
7.00794043266
8.12460745247
9.1461335471
10.0742386661
10.9133668184
11.6671154669
12.3386689477
12.9355104573
13.4657416493
13.9327054286
14.3409090102
14.6991918
15.0149029849
15.2912566865
15.5321417692
15.7415269175
15.9229661923
16.0823194695
16.2224050532
16.3420459378
16.4432641194
16.5305088663
16.6051647204
16.6667159001
16.7164964845
16.7566996735
16.7887187798
16.8123104525
16.8274120741
16.8356182463
16.8388831676
16.8386788589
16.8359885374
16.8314710596
16.8256134832
16.8187927157
16.8113288686
16.8034903128
16.7955151466
16.7876014784
16.7799227494
16.7726216474
16.7658277013
16.7596439892
16.7541553043
16.7494116036
16.7454472788
16.7422746528
16.7399036633
16.7383307282
16.7375523874
16.7375518954
16.7383114497
16.7398003666
16.7419871269
16.7448294172
16.7482851243
16.7523045957
16.756838753
16.7618326217
16.7672306465
16.7729759178
16.7790157975
16.7853006892
16.7917805749
16.7984002327
16.8050998188
16.8118162014
16.8184878876
16.8250584334
16.8314756823
16.837691246
16.8436609413
16.8493449284
16.8547069023
16.8597145127
16.8643378596
16.8685527333
16.8723422002
16.8756960782
16.8786128053
16.8811020909
16.8831835788
16.8848922142
16.8862813233
16.8874322289
16.8884642741
16.8895514378
16.890944267
16.8929928021
16.8961461383
16.900974025
16.9082075542
16.9188112665
16.9340361087
16.9555996673
16.9859968737
17.0285969944
17.0881425027
17.1574497288
-1.56281339532
-1.5846645307
-1.6186405465
-1.66450835847
-1.72264224875
-1.79373354077
-1.87883686517
-1.97893395052
-2.09478110816
-2.22689092365
-2.37550538085
-2.54064843771
-2.72213649106
-2.9196493195
-3.13273617502
-3.36088519045
-3.60351705635
-3.86004855963
-4.12987374029
-4.41242153532
-4.70712691393
-5.01348349469
-5.33100770089
-5.65928824005
-5.99794485945
-6.34667631647
-6.70521541131
-7.07337479741
-7.45099756311
-7.83800131472
-8.23432311682
-8.63995984025
-9.05490464063
-9.47917977433
-9.91276062866
-10.3555976678
-10.8075300395
-11.2682926318
-11.7374030882
-12.2141499241
-12.6974868065
-13.1860240252
-13.6779014648
-14.1707461486
-14.6614985896
-15.1464191716
-15.6213150829
-16.0817535913
-16.5229075992
-16.9389146792
-17.3232199506
-17.6691315039
-17.9700002121
-18.2196436804
-18.4123418834
-18.5417783496
-18.5998437141
-18.5775212278
-18.4660463664
-18.2578990835
-17.9470967506
-17.5277736848
-16.9934379013
-16.3375135155
-15.5540690462
-14.6388718065
-13.5906379269
-12.4121961713
-11.1112489107
-9.70057786234
-8.1978284564
-6.62474519532
-5.00574612045
-3.36617401953
-1.73103010179
-0.123860324876
1.43477865988
2.92817197308
4.34277806677
5.66830216054
6.89904957568
8.03249509356
9.06690499353
10.0036697383
10.8485087776
11.6062526023
12.2785901967
12.8731750807
13.4008708453
13.8680069301
14.2777416477
14.6376331848
14.9537767149
15.2304524786
15.4753263952
15.6914993665
15.879690172
16.0437577919
16.1862389215
16.3081196385
16.4117457698
16.5002964567
16.5755484243
16.6381271141
16.6891904007
16.7303342316
16.7627858129
16.7870343808
16.8035557215
16.8135379486
16.8184944693
16.8197468118
16.8182813089
16.8148103857
16.8098653055
16.8038612561
16.7971389013
16.7899844562
16.7826424875
16.7753190676
16.7681903898
16.7614052201
16.7550943173
16.7493646338
16.7442984898
16.7399483988
16.736348046
16.733513988
16.7314564287
16.7301754171
16.7296673175
16.7299181554
16.7309099466
16.732614431
16.7350002568
16.7380273989
16.7416544046
16.7458337349
16.7505167195
16.7556499914
16.7611797166
16.7670509897
16.7732136585
16.7796188466
16.7862167869
16.7929517353
16.7997643108
16.806592093
16.8133748146
16.8200551041
16.8265804768
16.8329016582
16.8389745167
16.8447584275
16.8502174581
16.8553187718
16.8600340952
16.864339703
16.868218888
16.8716601739
16.8746595144
16.8772217462
16.8793634869
16.8811149839
16.8825259441
16.8836697852
16.8846549658
16.8856370978
16.8868375173
16.8885571884
16.8911844246
16.8952099813
16.9012566896
16.91012432
16.9228402459
16.940715452
16.9655041244
16.9994516453
17.0451361263
17.0974088323
-1.70544542469
-1.72708005348
-1.76270870617
-1.81315867194
-1.87813177949
-1.95766173487
-2.05199736156
-2.16140814877
-2.28611179634
-2.42624206537
-2.58179709467
-2.75266311193
-2.93859755013
-3.13927952563
-3.35429886169
-3.58321396549
-3.82553543074
-4.08078306644
-4.34846141516
-4.62811340422
-4.91928845161
-5.22159355407
-5.5346560021
-5.85817217879
-6.19186771814
-6.53554498394
-6.88904046409
-7.25227172663
-7.62519109503
-8.00783039666
-8.40024922412
-8.80257554687
-9.21494423508
-9.63752821769
-10.0704621504
-10.5138605676
-10.9677287725
-11.4319634884
-11.9062319795
-12.3899496808
-12.8821686276
-13.3815621983
-13.8862911186
-14.3939446871
-14.9013340569
-15.4044928732
-15.8989737636
-16.3801602605
-16.843108695
-17.2816580831
-17.6888281573
-18.0575880907
-18.3810976384
-18.6532694404
-18.8683711029
-19.0194752953
-19.0974620304
-19.0933548218
-18.9996181695
-18.8101649937
-18.5198164329
-18.1228459146
-17.6121494291
-16.9795719241
-16.2167819817
-15.316637579
-14.2749062807
-13.0920744644
-11.7745952356
-10.3352173152
-8.79267581726
-7.17102594854
-5.49791762044
-3.80190610095
-2.11054838313
-0.449859324213
1.15734236786
2.69349449604
4.14486710075
5.50002335351
6.7534843888
7.90406863632
8.94975201707
9.89177549599
10.7374258901
11.4955267166
12.1706336507
12.7675298917
13.2960467105
13.7633632648
14.1761132145
14.5440745448
14.8706330808
15.1574658395
15.4094005486
15.6297714048
15.821660177
15.9886751638
16.1335233531
16.2580077877
16.3643183637
16.4549866881
16.5319045584
16.596244299
16.6491745474
16.6920307276
16.7259745346
16.7518244425
16.7703204395
16.782499379
16.7895935775
16.792777668
16.7930051509
16.7910223535
16.7873970631
16.7825858579
16.7769525768
16.7708066648
16.7644006548
16.757953796
16.7516441001
16.745631092
16.7400439748
16.7349965089
16.7305660314
16.7268119358
16.7237649217
16.7214499424
16.7198744649
16.7190461113
16.7189577487
16.7196021955
16.7209579298
16.7230031796
16.725703556
16.7290251765
16.7329246106
16.7373591494
16.7422788627
16.7476342749
16.7533720498
16.7594413617
16.7657927881
16.7723792155
16.7791496311
16.7860492168
16.7930180783
16.7999958752
16.8069227161
16.8137431286
16.8204048294
16.8268605289
16.833066127
16.8389823031
16.8445725468
16.8498047103
16.8546494608
16.8590826244
16.8630844019
16.8666411755
16.8697450615
16.8723970029
16.8746075593
16.8764010846
16.8778185662
16.8789247501
16.8798130904
16.8806179885
16.8815269891
16.8827941591
16.8847449641
16.8877885787
16.8924329236
16.8993052862
16.909170007
16.9229413272
16.9416553857
16.9664168013
16.9978631841
17.0306394373
-1.90764402779
-1.92753325944
-1.96289502149
-2.01487689342
-2.08279637991
-2.16646951202
-2.26573361276
-2.3804232975
-2.5103568281
-2.65533406482
-2.81509874497
-2.98936191745
-3.17777527133
-3.37997076325
-3.59553674552
-3.82406561175
-4.06512718212
-4.31831860644
-4.58323283421
-4.85950830199
-5.146793283
-5.44479413494
-5.75323745979
-6.07191804581
-6.40065934824
-6.73936165202
-7.08796204192
-7.44648189776
-7.81498435479
-8.19361978825
-8.58257750557
-8.98212628271
-9.39255489405
-9.81420140818
-10.2473755929
-10.6923718124
-11.1493759297
-11.6184582713
-12.0994441757
-12.5918794079
-13.0949098571
-13.6072621588
-14.1271111107
-14.6520119062
-15.1786631836
-15.7028853156
-16.2199604645
-16.7250697589
-17.2132185234
-17.6781461244
-18.1125133272
-18.5089551058
-18.8603757261
-19.1604164734
-19.4025640618
-19.5783670759
-19.6776285636
-19.6923244468
-19.6170377148
-19.4475570581
-19.1801035584
-18.8098355687
-18.3293763543
-17.7286950915
-16.9962088544
-16.120571916
-15.0930177642
-13.9101521195
-12.5763131584
-11.1041355968
-9.51381540635
-7.83232490635
-6.09199181621
-4.32638914024
-2.56674316827
-0.842128151347
0.821509399863
2.40542135046
3.89581599764
5.27918903319
6.55056126617
7.7124088214
8.76799176955
9.71848833242
10.5689091274
11.3290851808
12.006752904
12.6101253655
13.1506219457
13.6330749636
14.0606375126
14.4389894125
14.77236695
15.0653185918
15.322472857
15.5475860309
15.7439955662
15.9149912781
16.0633364006
16.1912433559
16.3008994018
16.3945398927
16.4740530379
16.5408688672
16.5962553182
16.6414661067
16.6776486283
16.7057635346
16.7266992381
16.7414414274
16.7510725904
16.7566407973
16.7590561367
16.7590622495
16.7572540617
16.7541103893
16.7500215453
16.7453102652
16.7402444736
16.7350496923
16.7299147925
16.7250024502
16.7204495835
16.7163686821
16.7128422202
16.7099296321
16.7076685821
16.7060853947
16.7051938669
16.7050022346
16.7055083318
16.7067052134
16.7085757093
16.7110985509
16.7142434682
16.7179775838
16.7222613522
16.7270529709
16.7323056719
16.7379719134
16.7440016243
16.750346911
16.7569605132
16.7637959242
16.7708023827
16.7779254752
16.7851064113
16.7922863665
16.7994071076
16.8064145554
16.8132575405
16.8198896985
16.8262674081
16.8323515694
16.8381054316
16.8434965193
16.8484946924
16.8530747121
16.8572147372
16.8608989843
16.8641163521
16.8668640882
16.8691473161
16.8709837119
16.8724043246
16.8734619475
16.8742342891
16.8748325837
16.8754085029
16.8761662811
16.8773647124
16.8793249365
16.8824326792
16.8871412514
16.8939526582
16.9033843365
16.9158519863
16.931453538
16.9492558123
16.9631783868
-2.13772624486
-2.15613327929
-2.19118749944
-2.2435646263
-2.3124494679
-2.39769714908
-2.49898273692
-2.6159363812
-2.74815730436
-2.89523922812
-3.05675055222
-3.2322670898
-3.42134650934
-3.62356634547
-3.83849450754
-4.06573176161
-4.30487846962
-4.55557942492
-4.81748742842
-5.09030892052
-5.37376535061
-5.66763980369
-5.97173762708
-6.2859335529
-6.61013370063
-6.94432339211
-7.2885296206
-7.64286963922
-8.00751174417
-8.38272149909
-8.76881665746
-9.16620728161
-9.57533820093
-9.99671538309
-10.4308271508
-10.8781503056
-11.3390508409
-11.8137691201
-12.3022834731
-12.8042628859
-13.3189361494
-13.8450722676
-14.3808628943
-14.923864189
-15.4707533751
-16.0172620928
-16.5584495756
-17.0893124976
-17.604938041
-18.0994474714
-18.565375423
-18.9950755736
-19.3808350207
-19.714967149
-19.9886617224
-20.1905034804
-20.3095198694
-20.3401172541
-20.2803810645
-20.1287307517
-19.8840333353
-19.5437401672
-19.1008071606
-18.5429084158
-17.8539069502
-17.016438102
-16.0149972753
-14.8400070245
-13.4922883868
-11.9846385368
-10.3397568291
-8.5887471132
-6.77041675262
-4.92544985275
-3.09021554892
-1.29798566605
0.421296208427
2.04805525854
3.57132151314
4.9827122649
6.2756708418
7.45049397604
8.51394398939
9.47275853144
10.33534781
11.1128942323
11.8115636455
12.4359729439
12.9923462396
13.4860581038
13.9232861693
14.3099006536
14.6508429027
14.9507918662
15.2141949237
15.4449825537
15.6466435828
15.8224171389
15.9751267649
16.1071950235
16.2208516998
16.3182165184
16.4011631959
16.4712423219
16.5298125595
16.5781224253
16.6173279591
16.6484521153
16.6724580012
16.6903088839
16.7030037903
16.7114962645
16.7166507606
16.719192479
16.7197299572
16.7187552364
16.7166810292
16.7138416364
16.710522523
16.7069556882
16.7033450669
16.6998563786
16.6966374141
16.6937990724
16.6914333163
16.6895993547
16.6883458669
16.6876993733
16.6876836756
16.6883059512
16.6895726208
16.6914750771
16.6940040358
16.6971367936
16.7008504736
16.7051116729
16.7098869033
16.7151344813
16.7208126908
16.7268753474
16.7332774517
16.739972917
16.746917543
16.7540644358
16.7613643975
16.7687629193
16.7762037034
16.783628823
16.790982907
16.7982126254
16.80526912
16.8121062216
16.8186819894
16.8249568674
16.8308950923
16.8364630924
16.84163101
16.8463716228
16.8506621314
16.854483362
16.8578216796
16.8606689251
16.8630250418
16.8648989436
16.8663124923
16.8673031733
16.8679307598
16.8682813626
16.8684711737
16.8686522786
16.8690165002
16.8697939535
16.871248806
16.8736621461
16.8772903878
16.88228664
16.8885349249
16.8953210352
16.900580447
16.8978182827
-2.36748426262
-2.38504081647
-2.42016015099
-2.47261243616
-2.54164079287
-2.62723404765
-2.72901684583
-2.84654424873
-2.97931731505
-3.12682630247
-3.28854310393
-3.46396297411
-3.65258256585
-3.85394020659
-4.06758494029
-4.29311755022
-4.53015397453
-4.77836763813
-5.03744966162
-5.30715256422
-5.58724955155
-5.87757898412
-6.1780051525
-6.48846461652
-6.80892884411
-7.13945245347
-7.4801381902
-7.83118573576
-8.19285610358
-8.56551820104
-8.9496069279
-9.34566231942
-9.75427375591
-10.1761035659
-10.6118068055
-11.0620297922
-11.5273038914
-12.0080227779
-12.5043035067
-13.0159306083
-13.5422125798
-14.0819604395
-14.63339515
-15.1941280738
-15.7609682762
-16.3297995882
-16.8956321742
-17.4533407649
-17.998219109
-18.5253399212
-19.0274062136
-19.4964129439
-19.9231628388
-20.296686268
-20.6035336247
-20.8281568722
-20.9607821857
-20.9998984616
-20.947705799
-20.8071351713
-20.5818503321
-20.273051523
-19.874421669
-19.3707296334
-18.7395621182
-17.9554346732
-16.9937107235
-15.8362013238
-14.4790158592
-12.9359392613
-11.2336144823
-9.40885290504
-7.51033797018
-5.58787704806
-3.68233955919
-1.82744945503
-0.0528948057853
1.61774514828
3.17087602586
4.60337019203
5.91597302904
7.11314296099
8.20281772064
9.19113959911
10.0832044347
10.884563072
11.6011750762
12.2404060914
12.8093695612
13.3144268608
13.7617926546
14.1573628876
14.5064360464
14.8138662243
15.0841475542
15.3213039109
15.5289371365
15.7102916214
15.8682434828
16.0053131636
16.1237717831
16.2257048928
16.312972922
16.3871895099
16.4497662985
16.5019796788
16.5449937186
16.5798709965
16.6076011434
16.6291437674
16.6454406952
16.6573897913
16.6658077709
16.6714065875
16.6747914902
16.6764695511
16.6768640132
16.6763267845
16.6751534909
16.6735919153
16.6718537849
16.6701177055
16.6685345498
16.6672239641
16.6662806522
16.6657735337
16.6657553995
16.6662619755
16.6673202843
16.668944836
16.6711442618
16.6739160608
16.6772529789
16.6811378688
16.6855501875
16.6904616986
16.6958410861
16.7016510315
16.7078527674
16.7144042883
16.7212642679
16.7283899282
16.7357387579
16.7432649814
16.7509202988
16.7586517539
16.7664049969
16.7741243751
16.7817567304
16.7892506646
16.7965589829
16.8036367237
16.8104429582
16.8169385658
16.8230880963
16.8288576113
16.8342167955
16.8391370326
16.8435938609
16.8475651881
16.8510340313
16.8539871114
16.8564182923
16.8583277925
16.8597267331
16.8606374318
16.8610995418
16.8611722513
16.8609363186
16.8604922753
16.8599642291
16.8594920475
16.8592203278
16.8592663959
16.8596614409
16.8602402281
16.8604504341
16.8589677071
16.8529932159
16.836032586
-2.57343278332
-2.59075284456
-2.62634429231
-2.67896237256
-2.74803244382
-2.83366551735
-2.93545845777
-3.05294561679
-3.18559163876
-3.33284485288
-3.49413484748
-3.66891977621
-3.85666750626
-4.05689826004
-4.26915345613
-4.49303678606
-4.72817609094
-4.97426462205
-5.23102007626
-5.49822683635
-5.775694087
-6.06329940175
-6.36094908979
-6.6686241845
-6.98634465985
-7.31421740096
-7.65240322038
-8.00116642007
-8.36084186502
-8.7318821808
-9.11481836432
-9.51029845013