/*--------------------------------*- C++ -*----------------------------------*\
| =========                 |                                                 |
| \\      /  F ield         | OpenFOAM: The Open Source CFD Toolbox           |
|  \\    /   O peration     | Version:  v1806                                 |
|   \\  /    A nd           | Web:      www.OpenFOAM.com                      |
|    \\/     M anipulation  |                                                 |
\*---------------------------------------------------------------------------*/
FoamFile
{
    version     2.0;
    format      ascii;
    class       volScalarField;
    location    "5";
    object      pa;
}
// * * * * * * * * * * * * * * * * * * * * * * * * * * * * * * * * * * * * * //

dimensions      [0 2 -2 0 0 0 0];


internalField   nonuniform List<scalar> 
12225
(
-3.79973133517
-0.850060775242
-0.582943166554
-0.946527580097
-0.939292918472
-0.985457898145
-0.942888575143
-0.885844420293
-0.740430569354
-0.432613183046
0.243232097394
1.49856585415
3.50375075192
6.54732076799
10.9144909141
16.709409826
22.4823122611
20.8132649804
23.104425655
10.9637218613
9.6482386084
8.82984736537
8.19190525379
7.69433166251
7.39982423389
7.31894563892
7.5417272758
8.17470337004
9.3972285247
11.316467758
13.9392373014
17.3621534305
21.5919306186
26.129506988
28.664016131
22.4831562322
-1.11896329324
3.61506157438
2.93059710078
2.41315222294
2.09481895265
1.90595171698
1.9012629972
2.06953600292
2.48578323276
3.2331408345
4.47512831644
6.33329718546
8.88610218291
12.1419969121
16.0444357851
19.9039433908
21.5390697937
16.6601175197
8.57333092296
7.07809605551
6.59800572866
5.9989414261
5.60830641119
5.29396223438
5.12583147084
5.09440317434
5.26704669895
5.71840678973
6.57798040786
7.94004876214
9.87370035874
12.3379885175
15.151281343
17.552518289
17.8007819371
13.7157845438
7.11614543901
6.74475239173
6.32688620397
5.91530269773
5.67642637248
5.50175592689
5.46576448945
5.55774571518
5.83942373018
6.37203456984
7.24758623009
8.52133099763
10.2156953393
12.2413645291
14.3240046632
15.7436145098
15.2881657894
12.0800918836
7.65328783231
7.07181310933
6.74552052143
6.3838697537
6.19302984486
6.05246539438
6.04672493061
6.16465428426
6.46225499336
6.98772993945
7.80270580114
8.93268452363
10.3603611335
11.9602243717
13.4263645762
14.1616675011
13.4195530172
10.9678134808
7.79425745117
7.25099558288
7.03773110015
6.75020794972
6.62697936838
6.53591754896
6.56979089165
6.71516741795
7.02146661127
7.52240535887
8.25587818809
9.22444713529
10.3825524383
11.5865417171
12.5483850735
12.8237279786
12.0046632783
10.1174277354
7.87295128613
7.38010340038
7.28048691586
7.06128486293
7.00031961356
6.95423693662
7.02240758975
7.18790873456
7.49234392003
7.95532598847
8.59602158661
9.3993435239
10.3020826272
11.1600355416
11.7306498488
11.7112771069
10.9070757242
9.42804521017
7.8822207984
7.45549793826
7.46645622311
7.30971062222
7.30478018257
7.29823788827
7.39434868747
7.57175907716
7.86411614483
8.27905389538
8.82150794516
9.46407090555
10.135926307
10.7056805272
10.985671011
10.7850543868
10.0317753565
8.84062784464
7.8751455817
7.50213839142
7.61428909418
7.51150147915
7.55499397001
7.58113493134
7.69763816625
7.87819839279
8.1493613565
8.50909597272
8.95187005916
9.44330700374
9.91349062138
10.2517168934
10.3229424746
10.0162801727
9.32204971617
8.34107760925
7.8797209042
7.52757386725
7.71415544648
7.65911971009
7.74324444714
7.79548389493
7.92548293554
8.10276808803
8.34808123214
8.65122603912
8.99886570726
9.35454165933
9.65550607785
9.81478411662
9.74160514309
9.37791647798
8.74343528431
7.91857352279
7.8551907394
7.49773291194
7.72692931114
7.70673563237
7.82022307135
7.88931868554
8.02450497697
8.1927375203
8.4108129955
8.66277400736
8.93105136851
9.18040332351
9.35771350893
9.39700985673
9.23923725187
8.85548146434
8.27608379079
7.56628524615
7.80727288427
7.42605708485
7.69137557616
7.69177802664
7.82633903293
7.90522556624
8.03930054077
8.19261736473
8.37910209669
8.57975846635
8.77570430973
8.9339075183
9.01158056692
8.96333115133
8.75064267319
8.36674763794
7.84341470503
7.23519202606
7.77120213585
7.33659407868
7.64594629758
7.65700431399
7.80797459025
7.8911925499
8.01968442097
8.15222668615
8.30007806083
8.44234033738
8.56147544085
8.63015997013
8.61756740465
8.49429923028
8.24360839171
7.86834144255
7.40715159377
6.89280706748
7.73609302071
7.23339152098
7.58290488318
7.60101244909
7.76382542752
7.84805091826
7.96733539012
8.07710452693
8.18426269703
8.26774993066
8.31453855206
8.30279800973
8.21464872797
8.03398691931
7.75891856767
7.4009023146
6.99634346899
6.56966529103
7.70883853832
7.11795896628
7.4943483736
7.50963626947
7.67775629106
7.75503484056
7.85960539077
7.94097909124
8.00709864932
8.03814917114
8.02402771506
7.95265608109
7.81151063259
7.59968355303
7.3180826451
6.9896929794
6.63772019356
6.28704008137
7.71174649315
7.01215507491
7.3980471425
7.39958861309
7.56301966479
7.62582562036
7.70707510164
7.75559515853
7.78034624298
7.7653180571
7.70565631361
7.5936489086
7.42562731601
7.20278476999
6.93567266764
6.64074970055
6.34339394507
6.05255315186
7.68125527162
6.89966489965
7.28956911019
7.27279333403
7.42574999941
7.46939075747
7.52537981899
7.54152864125
7.53071081795
7.48049927333
7.39089021557
7.25763210589
7.08182408585
6.86652845261
6.6241892792
6.36812607663
6.12016332256
5.88304440171
7.61488888773
6.81556646765
7.20540921064
7.17163191577
7.30877166519
7.33066499533
7.36162598107
7.3492338173
7.31026218382
7.23521574282
7.12754855212
6.98573199565
6.81294696108
6.61299451206
6.39738016792
6.17723790569
5.97013654988
5.77737309646
7.62400749729
6.88271090615
7.2307412242
7.18350599168
7.2961554599
7.29593300908
7.30306565057
7.26894893076
7.21092853885
7.12007221064
7.00298303893
6.85781109046
6.68944915636
6.4997185406
6.30129490069
6.10152135111
5.919003705
5.75100970116
7.58606883389
6.93752284535
7.27193798494
7.2225909634
7.31969880179
7.30449918766
7.2979234004
7.25159867093
7.18238345305
7.08429020551
6.96158181309
6.81620191675
6.64908358155
6.46691157503
6.27502888522
6.08864163432
5.91559342621
5.76290803131
7.53776767505
6.99218362356
7.31835450715
7.27198689615
7.35850470369
7.3326352266
7.31565799653
7.26131442029
7.18622866376
7.08338194743
6.9579460073
6.81308238683
6.64961843527
6.47101259711
6.28661355702
6.10638410618
5.94129883546
5.7939556374
7.54940482812
7.08276730102
7.39111174355
7.34528966441
7.41888836013
7.38218335196
7.35599741317
7.2940879398
7.21275480061
7.10581579326
6.98079352116
6.83740232158
6.676873719
6.50416143678
6.32659762753
6.15095674427
5.99263209891
5.8460148252
7.54881260778
7.19008669548
7.4714937434
7.42853868467
7.4866927487
7.43972419513
7.40262039316
7.33179313395
7.24513145384
7.13566241621
7.01014826134
6.86883418806
6.71439798903
6.54819465085
6.37746191253
6.20890150154
6.05044796558
5.90618697338
7.66191011175
7.39554353603
7.64346526404
7.59813227531
7.6377714515
7.57842298458
7.533028847
7.45736702682
7.36648503163
7.25546868535
7.13143859442
6.99611509837
6.84697362835
6.69171189343
6.53135806098
6.37018653744
6.21441061252
6.06833533816
6.68367550185
7.11840379866
7.31133417129
7.27161153162
7.2837826474
7.2144300391
7.15709018358
7.06887153217
6.96456204732
6.83967558296
6.70203110954
6.55665715927
6.40586599325
6.24910286321
6.09050034983
5.92998550551
5.76742928519
5.59710493021
10.8890227445
9.27476821927
9.49961029421
9.39986156848
9.36217134886
9.27080876375
9.19811010897
9.10410071391
9.00036024728
8.88218574706
8.75998739768
8.64245086063
8.52413246987
8.40740795804
8.29203727596
8.16849800229
8.02837099947
7.91060638934
-6.28503914
3.17868148023
3.32617254004
3.29576194578
3.27834565407
3.24685713411
3.23762820341
3.20542507747
3.15546556375
3.07926976243
2.98997794301
2.90223277759
2.80401667631
2.69035793001
2.56139252394
2.4060377584
2.20768341547
1.85230333305
31.6448738352
17.4138835573
16.4039765762
16.2179251282
16.0562375725
15.8703447171
15.6834082561
15.4676728942
15.2229633878
14.9465274158
14.6510350454
14.3484224494
14.033894314
13.7062730888
13.3753047737
13.0438426761
12.6921268122
12.5531063224
-5.87924987547
-0.745032467164
-0.303131530568
-0.473079941656
-0.341186052859
-0.296734577323
-0.213608645225
-0.171630327477
-0.152654896631
-0.1692123865
-0.20987609851
-0.271242350603
-0.341770862952
-0.40342816352
-0.426398053123
-0.361212412244
-0.139902215267
0.0767698417119
0.168960481017
0.165209278156
0.155255593837
0.143080843859
0.136598620515
0.136469065171
0.142713353802
0.150440699377
0.159664214726
0.166179418345
0.171368571587
0.171989830187
0.170579607502
0.164564620445
0.157089189298
0.146017450481
0.13477334536
0.121496540976
0.10963366655
0.0975243361772
0.0884908661228
0.0808686312359
0.0775311877383
0.0770099647882
0.0813800847286
0.0890020749277
0.101360197978
0.116713905356
0.136095103523
0.15774965537
0.182508201267
0.208567871679
0.236821942736
0.26565152654
0.295973935588
0.326146966464
0.35738295572
0.388398606119
0.420181794005
0.451639367682
0.483691353681
0.51541094286
0.547633308719
0.57959961737
0.612085293279
0.644466129362
0.677394147856
0.710338132275
0.743817582009
0.777209571611
0.810571918361
0.842891080994
0.873871556801
0.903033603353
0.930747671153
0.956689365855
0.981367941998
1.00448117032
1.02670081897
1.04757926204
1.06788653554
1.0858305172
1.10103081597
1.11203684663
1.1188909144
1.1204055455
1.1165062062
1.10621570913
1.08965155369
1.06597504462
1.03559134477
0.997763714453
0.953243381248
0.901480405617
0.843558091745
0.779144478492
0.709787247887
0.635395824961
0.55753130331
0.47621271954
0.393373526866
0.309200761429
0.225442352277
0.142371054882
0.0616027850116
-0.0163993639743
-0.090869443386
-0.161559435249
-0.227615295925
-0.290432274982
-0.349923293151
-0.407511525793
-0.463562249052
-0.521480723353
-0.582593097887
-0.643285261412
-0.700952680977
-0.764388369939
-0.84250537577
-0.931575825501
-0.999915394141
-1.00479358123
-1.00672302234
-1.07088838226
-1.17830125206
-1.27358544616
-1.33756234944
-1.39787046611
-1.4664300635
-1.53216240449
-1.59343684285
-1.64993161081
-1.70171612889
-1.74925519808
-1.79305775211
-1.83373731888
-1.87169341484
-1.90734949982
-1.94100269909
-1.97308276015
-2.00393879455
-2.03381191666
-2.06272492364
-2.09074357285
-2.11789248802
-2.14436337718
-2.17028576988
-2.19584970716
-2.22114320434
-2.24627718428
-2.27127724574
-2.29617635559
-2.32093192463
-2.34549412006
-2.36974867621
-2.39361633559
-2.41695107068
-2.43963669125
-2.46160118802
-2.48279569911
-2.50333624186
-2.52289617672
-2.54158577817
-2.55911831001
-2.57572199283
-2.59121249271
-2.60586670771
-2.61947761118
-2.63233619099
-2.64420385893
-2.65540405494
-2.66571924445
-2.67549470472
-2.68447314445
-2.69310052492
-2.70117991432
-2.70925811572
-2.71718402954
-2.72557860939
-2.7343138878
-2.74393721522
-2.75418773614
-2.76551593666
-2.77748626184
-2.79032674576
-2.80338251722
-2.81658025737
-2.82919333062
-2.84086205813
-2.8506662204
-2.85871421537
-2.86543247809
-2.87295803223
-2.88501353884
-2.90909788303
-2.95019149338
-3.01241254064
-3.09629767721
-3.19585168381
-3.30012995437
0.213128511887
0.160674441416
0.107922787052
0.0699944956583
0.0491075021609
0.0390625566379
0.0353436240773
0.0314319411651
0.0252143061447
0.0126179348054
-0.00597875343297
-0.0331477637756
-0.0674190137755
-0.110483880186
-0.16023265852
-0.217782945575
-0.280660318112
-0.349610414875
-0.421967099027
-0.498204244516
-0.575811408943
-0.655034518892
-0.733643028587
-0.811984052136
-0.888281718297
-0.963050796784
-1.03528921088
-1.10566307952
-1.17350097018
-1.23974013922
-1.30400588514
-1.36727172455
-1.42911587581
-1.49061561333
-1.55140316437
-1.61230574099
-1.67290231788
-1.73388756059
-1.79477485808
-1.85614403719
-1.91759635515
-1.97954036675
-2.04156417374
-2.10391230506
-2.1661257877
-2.22829297341
-2.28992136481
-2.35095678406
-2.41090663661
-2.4694705113
-2.52593150582
-2.57961091998
-2.6304549369
-2.67871122989
-2.72434213544
-2.76744560946
-2.80767411847
-2.84471265692
-2.87701872407
-2.90411189177
-2.92520763158
-2.93871287585
-2.9443729337
-2.94317531348
-2.93578244896
-2.92315615081
-2.90577461849
-2.88440160541
-2.85938893452
-2.83139485165
-2.80069827082
-2.76794660558
-2.73338018689
-2.69773295941
-2.66117900802
-2.62433305884
-2.58722059022
-2.55036857068
-2.51378277034
-2.47781279643
-2.44204072816
-2.40650856061
-2.37084693701
-2.33493348506
-2.2977928033
-2.25893363967
-2.21861366542
-2.17674787209
-2.13124953215
-2.08127323005
-2.03231967167
-1.98672577362
-1.93961504968
-1.89144109186
-1.85119742248
-1.81689534856
-1.78345094138
-1.74565432001
-1.70120837391
-1.65941336558
-1.60957892797
-1.56999904505
-1.56271541786
-1.56732801288
-1.52476864191
-1.42332402504
-1.39306996377
-1.47045416576
-1.54431186797
-1.59586120306
-1.63312391501
-1.66068683692
-1.68115519848
-1.69588120551
-1.70591912448
-1.71192737248
-1.71447806084
-1.71390012929
-1.71059938329
-1.70504163246
-1.69769054949
-1.68882095851
-1.6785241814
-1.66680378466
-1.6537662393
-1.63958548999
-1.6244949637
-1.60870056729
-1.59239864405
-1.57573984448
-1.55885769227
-1.54183911543
-1.52474347426
-1.50757124529
-1.49030105662
-1.47289437753
-1.45529634555
-1.43749962659
-1.41954457353
-1.40167045388
-1.38398872568
-1.3665139094
-1.34922064643
-1.33213517212
-1.31537000794
-1.29903789841
-1.28323864657
-1.26801906511
-1.25343300129
-1.23949180559
-1.22624623654
-1.21363096162
-1.20163446341
-1.19021936263
-1.17950108015
-1.16952847613
-1.16055979251
-1.15278325033
-1.14664945072
-1.14246309807
-1.14101975542
-1.14294271458
-1.14909877039
-1.16010931588
-1.17682867804
-1.19973560159
-1.22914852488
-1.26460183552
-1.30576065942
-1.35195818384
-1.40263786223
-1.45705014359
-1.51485959744
-1.57571525048
-1.63773841475
-1.69778570288
-1.74800953275
-1.77174907511
-1.73520118921
-1.55568823306
0.267374274636
0.0861899049398
-0.0464813484031
-0.109435121438
-0.131282335677
-0.136955966864
-0.138058185342
-0.142251850737
-0.150583592248
-0.165620220535
-0.186289905861
-0.214126212363
-0.247433528659
-0.287462569141
-0.332264412318
-0.38282995125
-0.437044755427
-0.495638609546
-0.556492003701
-0.620116012142
-0.684332938512
-0.749653080678
-0.814219201416
-0.878293886124
-0.940544133898
-1.00147255349
-1.06009584303
-1.1170803349
-1.17187718777
-1.22528342953
-1.27695826618
-1.32775908476
-1.37747966523
-1.42688348094
-1.47573338997
-1.52480482991
-1.573736733
-1.62307793952
-1.67258472618
-1.7226863812
-1.77311537785
-1.82421421894
-1.87568948583
-1.92775289231
-1.98007012846
-2.03272154364
-2.08536632662
-2.13796293127
-2.19013755308
-2.24177449308
-2.29245746325
-2.34166722104
-2.38858828617
-2.43307628088
-2.47520584581
-2.51538603103
-2.55405162915
-2.59229192338
-2.63162690399
-2.67300308356
-2.71645971702
-2.76223767487
-2.80938179514
-2.85697187762
-2.90389795504
-2.9493412223
-2.99245178053
-3.03257589107
-3.06902014847
-3.10131199178
-3.12894191712
-3.15167170135
-3.16922962941
-3.18161826415
-3.18882913908
-3.19105128489
-3.1883884161
-3.18118658232
-3.16971316751
-3.15434294042
-3.13527369632
-3.11272030355
-3.08679206469
-3.05769304553
-3.0253102583
-2.98928051164
-2.94982619696
-2.907674802
-2.8615515916
-2.81018637976
-2.75862428074
-2.7130847552
-2.67155753238
-2.62888901858
-2.58736789681
-2.54451064954
-2.50756174065
-2.49246772181
-2.4897349135
-2.48459358218
-2.48144484738
-2.52614686158
-2.61750501381
-2.71979816258
-2.78987452866
-2.79532608797
-2.7502713804
-2.69352969718
-2.6597160909
-2.64551347674
-2.64399132575
-2.64999659814
-2.66051939676
-2.67351817131
-2.68775750973
-2.70230828234
-2.71661799585
-2.73015234751
-2.74275145486
-2.75439554938
-2.76528278023
-2.77542005243
-2.78472375207
-2.79300989604
-2.80025685142
-2.80651290741
-2.81191743449
-2.81660598997
-2.82072328361
-2.8243925115
-2.82772061002
-2.83078626338
-2.83362293005
-2.83620635852
-2.83846822392
-2.84030161477
-2.84161949947
-2.8423864402
-2.84268639454
-2.84278690204
-2.84278620306
-2.84272528508
-2.84239677515
-2.84179697353
-2.8408579918
-2.83965772878
-2.83811026056
-2.83620406087
-2.83375724474
-2.83065885109
-2.82661596598
-2.8213744991
-2.81456242815
-2.80581616996
-2.79460513492
-2.78044590071
-2.76274531811
-2.74098079815
-2.71459065526
-2.68317533429
-2.64644636299
-2.60425656164
-2.55659422054
-2.50373102011
-2.44617964814
-2.38479183715
-2.32070324181
-2.25511859045
-2.19017617201
-2.12883083035
-2.07479290361
-2.03261612724
-2.00786954978
-2.00571600754
-2.02803226458
-2.07675969134
-2.15079871192
-2.23743258935
-2.30521980587
-2.28295538366
0.27359954296
-0.0956997656994
-0.307735922177
-0.375981277398
-0.38397504379
-0.376994439567
-0.370049651581
-0.369199070906
-0.374024854304
-0.385676841422
-0.402081778685
-0.42423561712
-0.45027803418
-0.481219846838
-0.515237875335
-0.553234759018
-0.593333542725
-0.636302823448
-0.680179778034
-0.725591485197
-0.770813874322
-0.816205252798
-0.860179564973
-0.903275168764
-0.944144352308
-0.983282189541
-1.01994205654
-1.05473268841
-1.08716645142
-1.11800011584
-1.14700077164
-1.17496683354
-1.20167437271
-1.22797557083
-1.25369987092
-1.27943818225
-1.30506152379
-1.33109866648
-1.35730375687
-1.38411100986
-1.4113126005
-1.43921400163
-1.46756537718
-1.49655645044
-1.52588152339
-1.55562581756
-1.58544870692
-1.6153593813
-1.64508314559
-1.67456668419
-1.70370268254
-1.73276037259
-1.76150551229
-1.78979006724
-1.81750054042
-1.84473767938
-1.87159705243
-1.89857565022
-1.92645835503
-1.95653734226
-1.99005146613
-2.0278693592
-2.06976370958
-2.11534425913
-2.16401372168
-2.21520382689
-2.26815537704
-2.32215731584
-2.37633658393
-2.42988190251
-2.48189305941
-2.53158453971
-2.57818731122
-2.62112969954
-2.65989035011
-2.69413724403
-2.72363963922
-2.74836872932
-2.76836579672
-2.78378912201
-2.79486924771
-2.80183533143
-2.80483228105
-2.80410485179
-2.79996290355
-2.79225901105
-2.78094415532
-2.76701704214
-2.75180091698
-2.73501818047
-2.71820719797
-2.70772495603
-2.70250060708
-2.69944593213
-2.69912315097
-2.70517299765
-2.71921987598
-2.73098417493
-2.74656117457
-2.79011854058
-2.87189627197
-2.96730414617
-3.03139260909
-3.06864093277
-3.06508686287
-3.00226789362
-2.88561577608
-2.75250289376
-2.64316560287
-2.56396359974
-2.50905871382
-2.47119552996
-2.44497212595
-2.42667071811
-2.41369525186
-2.40425249732
-2.39700914472
-2.39098961932
-2.38563199154
-2.3807273392
-2.37626998875
-2.37214035871
-2.36807091821
-2.36375485139
-2.35901314442
-2.35377841143
-2.34807300615
-2.34195229719
-2.33548700438
-2.32874597429
-2.32178316654
-2.31462718818
-2.30725054885
-2.29956066332
-2.29140071903
-2.28258439762
-2.27298618749
-2.2625869275
-2.25159257725
-2.24031971033
-2.22901730584
-2.21766943191
-2.20614297201
-2.19436578288
-2.18233925461
-2.17010702194
-2.15769474539
-2.14512015737
-2.132386408
-2.1194947118
-2.10643791555
-2.09321265235
-2.07986145079
-2.06641972781
-2.0529310538
-2.0394422149
-2.02602159628
-2.01273138911
-1.99965804553
-1.98687729595
-1.97438777144
-1.96214851234
-1.9501198181
-1.93818841277
-1.92621219179
-1.91397707285
-1.90121265108
-1.88761863791
-1.87330069142
-1.85880290476
-1.84528980686
-1.83481308045
-1.83035128307
-1.83461525468
-1.84928414315
-1.87482344197
-1.9091483831
-1.94239274398
-1.95011464369
-1.88841080898
0.190052614301
-0.409994054956
-0.67703514068
-0.712215080782
-0.688592006265
-0.663690398528
-0.647771146496
-0.642597056322
-0.64505953119
-0.654892591179
-0.669828427767
-0.690270281946
-0.714383153642
-0.742900112056
-0.77415129269
-0.808886904641
-0.845462681153
-0.884514616408
-0.924506473903
-0.965963700937
-1.0072558848
-1.04897849471
-1.08974471753
-1.12987567426
-1.16838504017
-1.20577232008
-1.2411984827
-1.27527866961
-1.30755338258
-1.33870619342
-1.36845213543
-1.39751661101
-1.42579303672
-1.4538848425
-1.48166495484
-1.50977188631
-1.53798778839
-1.56675575107
-1.59594516139
-1.6258870256
-1.65638235473
-1.68768468994
-1.7195375666
-1.75208483687
-1.78500687701
-1.8183450041
-1.8517594496
-1.88521787459
-1.91837147522
-1.95119168935
-1.98337949907
-2.01476114375
-2.04504162298
-2.07405386617
-2.10157917355
-2.12768017326
-2.15232002421
-2.17558947936
-2.19716283626
-2.21672750959
-2.23387287636
-2.24902230927
-2.26276501504
-2.27583196334
-2.28875468428
-2.30211086199
-2.3163008994
-2.33170644905
-2.34849613442
-2.36679069591
-2.38648208599
-2.40739963034
-2.42917677947
-2.45141398272
-2.47360035938
-2.49524053271
-2.51584858478
-2.53504309661
-2.55248358541
-2.56792967784
-2.58130645188
-2.59253343305
-2.6014663652
-2.60827783988
-2.61318265939
-2.6161299712
-2.61695424561
-2.61593262343
-2.61516337712
-2.61388796463
-2.61104683953
-2.60611459222
-2.59882422956
-2.59359079976
-2.5919148831
-2.60156778565
-2.62988621804
-2.66627030657
-2.72356833065
-2.8112776559
-2.9120000756
-2.99041861986
-3.02395403476
-3.02318683228
-2.98538751132
-2.90784774682
-2.80009243264
-2.68622839035
-2.58864586987
-2.5139161
-2.46031949319
-2.42324545067
-2.39825303199
-2.38186353232
-2.37137904297
-2.36488944447
-2.36081261771
-2.35814016656
-2.35616842286
-2.35478979827
-2.35393790545
-2.35357053182
-2.35336233908
-2.35303407501
-2.35234929829
-2.35123570705
-2.34968245492
-2.34774757876
-2.34549827701
-2.34300923101
-2.34033717027
-2.33749828567
-2.33444208245
-2.33103069736
-2.32703878718
-2.32223606331
-2.31645782735
-2.30975759718
-2.30242587436
-2.2948742883
-2.28742352235
-2.28003865762
-2.27263895484
-2.26510173434
-2.25745555678
-2.24967323829
-2.24179845747
-2.23377620148
-2.22561954682
-2.21723783886
-2.20861124218
-2.19960983168
-2.19020204211
-2.18023059756
-2.1696333736
-2.15822263491
-2.14592809705
-2.13256618067
-2.11809830541
-2.10238429755
-2.08537959172
-2.06695394219
-2.0471513808
-2.02597697467
-2.00362701911
-1.98026869016
-1.95616695918
-1.9316442007
-1.90740273745
-1.88443574244
-1.8642188385
-1.84867383521
-1.83999738678
-1.83958361969
-1.84795644016
-1.86431174502
-1.88445373038
-1.89745648836
-1.88167298419
-1.80874891523
-0.00955971156397
-0.864227999882
-1.14318867513
-1.10396741273
-1.03824726813
-0.993754917102
-0.967390293603
-0.954522680537
-0.950465662708
-0.954046354882
-0.962564146576
-0.976164274709
-0.993078371758
-1.01380661229
-1.03686711469
-1.06282714104
-1.09030381933
-1.11986613733
-1.15010778816
-1.18154459391
-1.21301254863
-1.24480055188
-1.27580209109
-1.30651455857
-1.33591531088
-1.36440032679
-1.39138681543
-1.4173347116
-1.44183196617
-1.46543629341
-1.48793943365
-1.50992971396
-1.53122406781
-1.55246729573
-1.57354488756
-1.59488831847
-1.61643812992
-1.6385986188
-1.66119904381
-1.68456960666
-1.70855281525
-1.73337551769
-1.75882908327
-1.78504936376
-1.81176624178
-1.83903676899
-1.86654796265
-1.89430587711
-1.92203676569
-1.94968723377
-1.97700983638
-2.00399603496
-2.03035494811
-2.05599672579
-2.0807929431
-2.10481879678
-2.1280730632
-2.15077110658
-2.17304556944
-2.195116459
-2.21688201694
-2.23824398885
-2.2589317569
-2.27877847993
-2.29754750087
-2.31514362927
-2.33144619163
-2.34651422868
-2.36041099172
-2.37336775994
-2.3855864669
-2.39735744541
-2.40886938019
-2.42030164782
-2.43170415794
-2.4430246104
-2.45412885458
-2.46492946782
-2.47526373235
-2.48494150687
-2.49386769679
-2.50205305425
-2.50944340164
-2.51591106529
-2.52138588873
-2.52614039608
-2.52984038305
-2.53041113377
-2.52389239657
-2.50880420634
-2.48912770916
-2.46243967021
-2.43147647654
-2.41171504801
-2.4182854705
-2.46028156449
-2.52821223333
-2.60605006004
-2.69328114829
-2.78541315183
-2.86729642317
-2.9206993178
-2.93979771888
-2.93013304638
-2.89160040279
-2.8266906001
-2.74401205255
-2.6578436711
-2.58063401465
-2.51786892371
-2.47025417501
-2.4357654155
-2.41169718164
-2.39541003382
-2.38472872585
-2.37782973747
-2.37327416608
-2.36999554234
-2.3674331458
-2.36545451887
-2.36410845184
-2.36332018077
-2.36282622743
-2.36232707913
-2.36159334356
-2.36051392828
-2.35906507479
-2.35728132858
-2.35522448911
-2.35295855787
-2.35053052932
-2.34793350051
-2.34508324196
-2.34178409123
-2.33775536087
-2.33271121871
-2.32648753761
-2.319190993
-2.3111702216
-2.30292059874
-2.2947289155
-2.28662630757
-2.27851046435
-2.27030741051
-2.26199803447
-2.25357683333
-2.24503513758
-2.23634674716
-2.22748072586
-2.21839085027
-2.20902127588
-2.19929904792
-2.18914862104
-2.17847122486
-2.16717075127
-2.15513111595
-2.14225928542
-2.12845224757
-2.11365454034
-2.09779672125
-2.08083967469
-2.06273096577
-2.04349043503
-2.02314645568
-2.00182618133
-1.97966189333
-1.95684257277
-1.93364523884
-1.91063888132
-1.88866243373
-1.86898334173
-1.85318984866
-1.84293897553
-1.83918820845
-1.84222086458
-1.85077375318
-1.86024198833
-1.86032680483
-1.83350365082
-1.76206195496
-0.334658533369
-1.44510664192
-1.67935033989
-1.53261424181
-1.4275402551
-1.36498106245
-1.32607206478
-1.30228910634
-1.28783046251
-1.28088969754
-1.27916609497
-1.28237126784
-1.28899310961
-1.2992294734
-1.31185905157
-1.32721988245
-1.34422048748
-1.3631888242
-1.38317195
-1.40446304832
-1.42600384562
-1.44821252997
-1.47019538036
-1.49212438754
-1.51335496284
-1.53420040049
-1.55403886218
-1.57325749481
-1.59149115744
-1.60916939728
-1.62605364551
-1.64261720481
-1.65878663665
-1.67495637636
-1.69104980699
-1.70752561231
-1.72424582925
-1.74153794931
-1.75933184208
-1.77788030021
-1.79705334333
-1.8170496788
-1.83769038644
-1.85909594718
-1.88103293175
-1.90354929612
-1.92638539984
-1.94954354629
-1.97275201707
-1.996032995
-2.01917014297
-2.04214631283
-2.06473313182
-2.08684500181
-2.10834783061
-2.12936512549
-2.1499236914
-2.17017445702
-2.19010790974
-2.20970531327
-2.22886398636
-2.24765329333
-2.26604205597
-2.28405564322
-2.30155974633
-2.31844762805
-2.33448826037
-2.34952850087
-2.36335721396
-2.37591535363
-2.38716808458
-2.39721795843
-2.40615398333
-2.41420382632
-2.42157769768
-2.42840303318
-2.43469912185
-2.44064558004
-2.44637869956
-2.45182205178
-2.45696492527
-2.4618338257
-2.46655860541
-2.47087780372
-2.47350298847
-2.47273209719
-2.46701159165
-2.45359336888
-2.42668106937
-2.38791981923
-2.34770870526
-2.31439874094
-2.29825798229
-2.30823073258
-2.35036646564
-2.4222049728
-2.50957094619
-2.59890854418
-2.68491283163
-2.76129621231
-2.82021717663
-2.85507100341
-2.86533310792
-2.85348562354
-2.82022767556
-2.76873123012
-2.70536813965
-2.63894090826
-2.57705626132
-2.52415159832
-2.48177194537
-2.44945490074
-2.42574625403
-2.40887393899
-2.39715964235
-2.38899240108
-2.38309720732
-2.37843073599
-2.37456519636
-2.37135811351
-2.36893097696
-2.36717670729
-2.36588747561
-2.36474856625
-2.3635451808
-2.36213360628
-2.36047530549
-2.35858191021
-2.35649960783
-2.35428146132
-2.35195160158
-2.34948326362
-2.34674892069
-2.34350618688
-2.33943031679
-2.33419636218
-2.32767452393
-2.31999799781
-2.31159339696
-2.30294959046
-2.29435323417
-2.28585811604
-2.27738181686
-2.26888668958
-2.26033688137
-2.25173214863
-2.24303370453
-2.23421971886
-2.22523937109
-2.21605901941
-2.20661135191
-2.19684083262
-2.18665518959
-2.17597419494
-2.1646839943
-2.15269278803
-2.13988883535
-2.12619533761
-2.11153223681
-2.09585229416
-2.0791034744
-2.06126825048
-2.04235390275
-2.02241133081
-2.00154018627
-1.97987418401
-1.95758645913
-1.93495512302
-1.91247720838
-1.89089947369
-1.87127975479
-1.85491190428
-1.84297480894
-1.83610885716
-1.83422943323
-1.83577340206
-1.83595792858
-1.82558022561
-1.7908095379
-1.72040690332
-0.778359390875
-2.11581959392
-2.24839891524
-1.98147374951
-1.85048537171
-1.77118671727
-1.71711978917
-1.67793743283
-1.64855886039
-1.62695624058
-1.61089514682
-1.5999265994
-1.5927841228
-1.58941437315
-1.58887624998
-1.59127529559
-1.59581097912
-1.60265914638
-1.6109925814
-1.62099511063
-1.63204729651
-1.6441854496
-1.65676189953
-1.66998444438
-1.68318489063
-1.6964794261
-1.70947274917
-1.72232202568
-1.73471075945
-1.74687803074
-1.7586537139
-1.77033210187
-1.78176714767
-1.79333546166
-1.80495946079
-1.81690234678
-1.82913597653
-1.84193103209
-1.85518033778
-1.86911198144
-1.88362240098
-1.89887279337
-1.91472213353
-1.93126884837
-1.94832665649
-1.96594012659
-1.98388707632
-2.002175638
-2.02061050781
-2.03919673578
-2.0577821783
-2.07642295538
-2.09492843912
-2.11322158929
-2.13131834645
-2.14943874336
-2.16761312263
-2.18583556793
-2.20393073058
-2.22175751279
-2.23919741766
-2.2562812034
-2.27299241879
-2.28939524305
-2.30542885265
-2.32104511672
-2.33607263585
-2.35037438398
-2.36369543592
-2.37587930827
-2.38679989959
-2.39646516676
-2.40479341356
-2.41185928415
-2.41787702537
-2.42304189709
-2.42734095077
-2.43088300315
-2.43400718022
-2.43680076353
-2.43919145027
-2.44091640143
-2.44138519377
-2.43968506213
-2.43382334774
-2.42078979425
-2.3984578592
-2.3665476948
-2.32760734921
-2.29017760208
-2.26337174746
-2.25488485122
-2.27049117618
-2.31132417527
-2.37484823615
-2.45394969721
-2.53726245126
-2.61634660272
-2.68639866205
-2.74329449557
-2.78337629172
-2.80479767194
-2.80819721831
-2.79494697434
-2.76613496486
-2.72442415885
-2.6743477567
-2.62152110182
-2.57099477218
-2.52618932198
-2.48878360489
-2.45903961255
-2.43627287925
-2.41938616225
-2.40706644281
-2.39800607942
-2.39100912557
-2.38522658745
-2.38024382729
-2.3760347202
-2.37266980817
-2.37008207937
-2.36805916995
-2.36632866828
-2.36467097054
-2.36294065853
-2.36107919273
-2.35908130816
-2.35697801036
-2.35480365944
-2.35256538021
-2.35020772862
-2.34756732552
-2.34436375835
-2.34023404455
-2.33486008849
-2.32813361237
-2.32023971439
-2.31162363607
-2.30274475981
-2.29388251463
-2.28509626627
-2.27635413506
-2.26763353279
-2.25891500649
-2.25018551825
-2.24139935296
-2.23251852193
-2.2234872978
-2.21426339528
-2.20478364642
-2.19498813949
-2.18479065733
-2.17410743354
-2.1628319754
-2.15087167786
-2.13812127057
-2.12450453061
-2.10994205666
-2.09438965458
-2.07779943918
-2.06016856067
-2.04150479906
-2.02187261662
-2.00135559174
-1.98009287243
-1.95823788928
-1.93606497805
-1.91399744039
-1.89269274959
-1.87300783226
-1.85596805299
-1.84239026411
-1.83262505893
-1.82629441837
-1.82163691869
-1.81404126942
-1.7954058003
-1.75487950214
-1.68483829084