/*--------------------------------*- C++ -*----------------------------------*\
| =========                 |                                                 |
| \\      /  F ield         | OpenFOAM: The Open Source CFD Toolbox           |
|  \\    /   O peration     | Version:  v1806                                 |
|   \\  /    A nd           | Web:      www.OpenFOAM.com                      |
|    \\/     M anipulation  |                                                 |
\*---------------------------------------------------------------------------*/
FoamFile
{
    version     2.0;
    format      ascii;
    class       volScalarField;
    location    "5";
    object      sensitivity;
}
// * * * * * * * * * * * * * * * * * * * * * * * * * * * * * * * * * * * * * //

dimensions      [0 2 -3 0 0 0 0];


internalField   nonuniform List<scalar> 
12225
(
4.57870656721
-5.70383554517
-4.26062429094
-3.73466052394
-3.65587520488
-3.63145062353
-3.72285645618
-3.98818674252
-4.44106536901
-5.01972900244
-5.6958432516
-6.41913732746
-7.22776143357
-8.35728965003
-10.0146286019
-12.0777877999
-14.5215676741
-15.5584624284
-19.3087427395
-10.3697568481
-8.04524607874
-8.47613670873
-8.16782643071
-8.23040603163
-8.29029328615
-8.45415403265
-8.69328978519
-9.01361616058
-9.50178643325
-10.1856519802
-11.1091122237
-12.4049226883
-14.1866258011
-16.3064669455
-18.3365192311
-17.9260282017
-5.57550871606
-6.78693635989
-8.11852503366
-7.49233574891
-7.30197265278
-7.16326737479
-7.06635190767
-7.072818728
-7.17432569258
-7.42152647247
-7.87570715391
-8.58169748934
-9.56597928807
-10.8545509477
-12.4859409446
-14.2976494662
-15.7035601705
-14.9191827826
-9.4020318057
-9.25676474986
-8.60147083278
-8.5255432295
-8.26351337593
-8.1812572387
-8.11164103275
-8.14328032617
-8.25519624566
-8.49557896069
-8.89335441573
-9.4778476304
-10.2691948777
-11.2678188424
-12.4672088362
-13.6739146262
-14.3057908843
-13.2561011773
-9.14745798662
-9.31432742459
-8.95968744088
-8.91732905362
-8.7328380581
-8.7179884602
-8.69985785456
-8.7725532887
-8.90822707616
-9.15207122558
-9.51563115879
-10.0208263591
-10.6801815188
-11.4771355699
-12.3632968643
-13.1233989149
-13.2816303671
-12.254043118
-9.57430780939
-9.78810611772
-9.36169503106
-9.40910742563
-9.25449611195
-9.2771763563
-9.27815707662
-9.36070405851
-9.49037991893
-9.70886668076
-10.0178917355
-10.4355126462
-10.964316644
-11.5724194638
-12.1871635308
-12.6069275576
-12.4961981923
-11.5886602054
-9.86507814741
-10.0742429184
-9.68317641251
-9.79511349982
-9.673002502
-9.73041072301
-9.74918148852
-9.83946403749
-9.96149051093
-10.1535247616
-10.4111471625
-10.7480089967
-11.1568129281
-11.5961696956
-11.9860889187
-12.1601233377
-11.9070902446
-11.1302288023
-10.0860420165
-10.2799919262
-9.9356831552
-10.0979700663
-10.0027992944
-10.0875956848
-10.1200296852
-10.2150155631
-10.3286984944
-10.4964823777
-10.7084157678
-10.9735583812
-11.2767024905
-11.5721264606
-11.7850712024
-11.7908926471
-11.4719196161
-10.8075700962
-10.2353628104
-10.4183686944
-10.1258527355
-10.3286568203
-10.2558872319
-10.3621885551
-10.4046292638
-10.5015257776
-10.6061330336
-10.7509836925
-10.9220186529
-11.1236385522
-11.3353492009
-11.5127964634
-11.5933399618
-11.4915323367
-11.1489474251
-10.5783922309
-10.317219668
-10.5091860654
-10.258887075
-10.4980141982
-10.4445100807
-10.5685061019
-10.6184225204
-10.7153467792
-10.8105421358
-10.9338923782
-11.0675918576
-11.2124996125
-11.3464857083
-11.430431418
-11.4163486089
-11.2494449048
-10.9084749515
-10.4144755782
-10.3320044864
-10.5639857652
-10.3257630361
-10.6007614126
-10.5623045882
-10.7021633
-10.7593417122
-10.8570955879
-10.9443252735
-11.0481066212
-11.1483570707
-11.2445960754
-11.3154928095
-11.3285736724
-11.2497336487
-11.047452809
-10.7191139527
-10.2882212621
-10.1389387785
-10.6055771494
-10.2927395946
-10.6132566757
-10.5745418505
-10.7267165633
-10.7871143172
-10.8830706787
-10.9606968389
-11.0473793538
-11.1213123206
-11.1813345428
-11.2069835727
-11.1730342123
-11.0572208677
-10.8416395236
-10.5344574203
-10.1549672188
-9.90211507078
-10.5907952077
-10.2148017467
-10.5708672904
-10.5307885587
-10.6884359435
-10.7473173942
-10.8395372496
-10.9083882568
-10.9790172349
-11.0298028558
-11.0589896893
-11.050083231
-10.9842515756
-10.8470830759
-10.6312868246
-10.3481759448
-10.0138418978
-9.6405173035
-10.5745511508
-10.1108227004
-10.5028476726
-10.4516515809
-10.611251146
-10.6637688499
-10.7465434459
-10.8000299167
-10.8510988396
-10.8772389816
-10.8773246164
-10.8381582737
-10.7475770535
-10.5985131975
-10.3899250761
-10.1353709291
-9.84748980846
-9.32232262346
-10.5543774525
-9.98109696442
-10.4186318117
-10.352217766
-10.5135747674
-10.5584598238
-10.6319240233
-10.6715327888
-10.7042557411
-10.7074399635
-10.6820718515
-10.6188264996
-10.5108088344
-10.3570463681
-10.1602249235
-9.93488945346
-9.68859221648
-9.008488425
-10.5234531636
-9.83306712842
-10.3132800468
-10.2280078662
-10.3893338566
-10.4252462307
-10.4887940474
-10.5149545965
-10.5309079728
-10.5158248891
-10.4717433675
-10.3931411026
-10.2779649286
-10.1279009832
-9.94816747207
-9.75163900763
-9.54396387768
-8.75527211595
-10.4830061093
-9.68096302588
-10.1959831679
-10.0880781382
-10.2463281638
-10.2700477702
-10.3215896674
-10.3329684868
-10.333607225
-10.3033317805
-10.2466908065
-10.1611166361
-10.0469641022
-9.9075268705
-9.74831073294
-9.57988128015
-9.40678581715
-8.51038131387
-10.4335830997
-9.53259833464
-10.0734338175
-9.94259997419
-10.0950006188
-10.1054189225
-10.1447468406
-10.1425103614
-10.1299695261
-10.088612858
-10.0249827039
-9.93819866161
-9.82991532771
-9.70366391742
-9.56445344968
-9.42092813589
-9.27580387938
-8.40612742021
-10.38537105
-9.4429397387
-9.98519859451
-9.83236931617
-9.97165909359
-9.96506656069
-9.98942478176
-9.97278098952
-9.94812248953
-9.89817910362
-9.83076829283
-9.74580969681
-9.64550559966
-9.53293241951
-9.4122676086
-9.29054953414
-9.16963436952
-8.75221865461
-10.3524397754
-9.51657720577
-9.9966521248
-9.84106848434
-9.9584003516
-9.9368048592
-9.94598631907
-9.91645350262
-9.8811730333
-9.82370530167
-9.75191286386
-9.66597847328
-9.56807228852
-9.46125364558
-9.34868916946
-9.23695987949
-9.12669915271
-9.02089725806
-10.3493543179
-9.61210737668
-10.0463247773
-9.89090035314
-9.99157393126
-9.95927126696
-9.95744836761
-9.91837999899
-9.87585234255
-9.8131194181
-9.73833721809
-9.65173788159
-9.55545544574
-9.45208386274
-9.34466682031
-9.23921076978
-9.13531545579
-9.22874482212
-10.3599901158
-9.70683344877
-10.1035196583
-9.95087415049
-10.0396611563
-9.99920935371
-9.98933374536
-9.94420718157
-9.89660265033
-9.83060917594
-9.75444671748
-9.66831215647
-9.5738271582
-9.47362340735
-9.37039487066
-9.26893935877
-9.17023324051
-9.4901436011
-10.3857365648
-9.81607421554
-10.1768292727
-10.0272451428
-10.1045609308
-10.0569294664
-10.0408860957
-9.99014111896
-9.93905400369
-9.87141814369
-9.7952431941
-9.70970248379
-9.61785542861
-9.52110471678
-9.42094745732
-9.3231875699
-9.22664600567
-9.76176422081
-10.4107987734
-9.9341202092
-10.2568605264
-10.112936822
-10.1791360464
-10.1258548703
-10.1033364395
-10.0485067855
-9.99452894826
-9.92545894989
-9.84931448959
-9.76634773018
-9.67770759795
-9.58459180488
-9.48887176301
-9.3938213485
-9.29992012235
-10.0467430945
-10.4510756404
-10.0580789357
-10.3423156609
-10.2028703224
-10.2543744894
-10.1949773493
-10.1673299353
-10.1079857788
-10.0509393743
-9.9809510139
-9.90576304884
-9.82430218119
-9.73897991052
-9.65110713374
-9.55922252095
-9.4671640854
-9.36728927083
-10.0705192419
-10.3296323963
-10.2306582654
-10.4448376931
-10.3238542212
-10.3642553998
-10.3058029031
-10.2762043386
-10.2161270735
-10.1585241651
-10.0904227785
-10.0179906965
-9.94120220607
-9.86324247063
-9.78517167261
-9.70581520486
-9.62780933435
-9.56611973519
-11.7244696959
-10.8712525378
-10.2639726527
-10.52026297
-10.3567704588
-10.3581380996
-10.2768200371
-10.2227775158
-10.1411121788
-10.062285597
-9.9721026037
-9.88437516483
-9.79654772126
-9.70818935527
-9.62100283276
-9.53313110156
-9.43541057054
-9.26859758152
-5.5279654998
-8.50237026899
-11.1689376835
-10.7258085992
-10.7459488555
-10.7403204823
-10.7107953704
-10.7096714597
-10.6899153045
-10.6803499794
-10.6756922245
-10.6636512936
-10.64510648
-10.629839255
-10.6140157901
-10.5851464053
-10.5494656803
-10.5367072715
-27.3310128097
-12.5354906857
-10.6183963458
-11.1088755227
-10.7636344273
-10.719692963
-10.5630732324
-10.4106764389
-10.2180867331
-10.0159400082
-9.81613395101
-9.63296427772
-9.43621314826
-9.23679555208
-9.06429239789
-8.93584932577
-8.83831284859
-8.839260002
-2.71854781411
-9.42312658703
-9.83432694279
-9.13079847677
-9.17749430229
-9.05018491081
-8.95695586605
-8.88744226668
-8.79688596696
-8.70892180784
-8.58104486994
-8.43054798915
-8.2819371739
-8.12706680727
-7.9494583128
-7.75612649301
-7.58694499207
-7.38335631737
-0.00804062486965
-0.00169988705816
-0.00250626269169
-0.00831767842525
-0.0152570237816
-0.0239772262885
-0.0326478341506
-0.0391001883882
-0.0416962045743
-0.0393589436841
-0.0314672612627
-0.017754713651
0.00175611733838
0.0269347701378
0.0574774040629
0.0930880334029
0.133336219105
0.177888671999
0.226281715959
0.278126217517
0.332875341461
0.390206155764
0.449553543861
0.51053989203
0.572704410614
0.635736776187
0.699275533651
0.763148522093
0.827168697165
0.891218454068
0.955221585489
1.01920454318
1.08317206577
1.14710494653
1.2110646319
1.27517527608
1.33942979879
1.40389342179
1.46859835604
1.53359015592
1.59886507169
1.66442292007
1.73020530733
1.79613202418
1.86205904028
1.92781325432
1.99316782918
2.05787582641
2.12161968356
2.1841488372
2.24520568722
2.3045790099
2.36202463314
2.41714939569
2.46946874983
2.51832523734
2.56293284912
2.60229496132
2.63512369116
2.65995527516
2.67672094695
2.68611966695
2.6879417544
2.68167543507
2.66681835284
2.64302949569
2.61023214574
2.56856464396
2.51844382324
2.46046742014
2.39539933079
2.32411069834
2.24758413272
2.16670844428
2.08239583402
1.99553298039
1.90685421798
1.81702875438
1.7266946872
1.63632756859
1.54628940172
1.45702198534
1.36874411211
1.28162046615
1.19592002636
1.11208537208
1.03049360564
0.950597178383
0.873342743982
0.801177647512
0.733407330894
0.66812805569
0.60624105431
0.550029194575
0.497576874909
0.445509130795
0.398931175262
0.364085628489
0.336189818999
0.30729384291
0.259735367615
0.193468633847
0.140988159393
0.117144492433
0.0971245326679
0.0458855282435
-0.0675381222034
-0.089270734327
-0.12759693201
-0.162198727364
-0.190028496083
-0.212974409043
-0.232441180638
-0.249551748389
-0.265064221971
-0.279468856819
-0.293110136891
-0.306251121324
-0.319081242252
-0.331711233547
-0.344181404066
-0.356546173219
-0.368892474286
-0.381297627958
-0.393791677832
-0.406370548061
-0.419006301583
-0.431673786341
-0.44434398169
-0.45699818932
-0.469611474455
-0.482167827321
-0.494647255788
-0.507043960851
-0.519347141557
-0.53153858219
-0.543593758227
-0.555478601956
-0.567132312367
-0.578488796194
-0.589480279855
-0.600141299703
-0.61046966696
-0.620436604559
-0.629932308667
-0.63879498101
-0.646805603122
-0.653701101171
-0.65916371739
-0.662826737551
-0.664246071795
-0.662925302265
-0.658340338913
-0.649985344762
-0.637371060746
-0.620106339382
-0.59792533761
-0.570735259889
-0.538654479813
-0.502043505131
-0.461499160006
-0.417889054115
-0.372401009742
-0.326350835666
-0.281265441911
-0.238723851269
-0.199985802013
-0.166292524668
-0.139364063303
-0.120436753381
-0.109330484444
-0.104583148344
-0.103061441904
-0.100723597587
-0.0998113459131
-0.0971053421006
-0.08533731291
-0.059810749533
-0.0215876915754
0.0280071159828
-0.00398484472859
-0.028809268978
-0.0487412661307
-0.0590278434498
-0.0612253578375
-0.0586841822003
-0.0529054556158
-0.0441748298788
-0.0323699641114
-0.0172333456356
0.00137182050638
0.0236350340163
0.049565716328
0.0791941779469
0.112377124648
0.149012563309
0.188845847838
0.231704941093
0.277250435694
0.325285476249
0.375439375173
0.427452395
0.480976240994
0.53580191162
0.591575473159
0.648145451407
0.705357986174
0.763122992944
0.821332916776
0.879979874803
0.939081944377
0.998653252814
1.05868942571
1.11927141892
1.18042941596
1.24221045743
1.304646255
1.36778858904
1.43164202387
1.49625421146
1.56163096426
1.62777825064
1.69465310389
1.76218557114
1.83023627759
1.89863276646
1.96710705237
2.03537667268
2.10302808513
2.1695669262
2.23436183644
2.296803276
2.35636730018
2.41246134867
2.46448881928
2.51185085863
2.55402964104
2.59021157817
2.6190269942
2.63936140315
2.65066738736
2.6528404957
2.64717609309
2.6346930908
2.6159382169
2.59114027051
2.56029472467
2.5232912043
2.48001890705
2.43041193186
2.37455838902
2.31262141384
2.24493985099
2.17201249873
2.09442744198
2.01279344018
1.92782749882
1.84022917711
1.75069580331
1.65982909336
1.56816665763
1.47620480219
1.38438618043
1.29307952351
1.2025284635
1.11304496256
1.02489275879
0.938489620376
0.854316097273
0.772600815913
0.694328068362
0.620099409776
0.549790069167
0.484407365052
0.419512466525
0.356850022983
0.302853529059
0.248631065768
0.196344393406
0.153507360554
0.131714039683
0.0227138728422
-0.135110903333
-0.253429263474
-0.334180415528
-0.401285457734
-0.415634977927
-0.411111649917
-0.40928810269
-0.413039477919
-0.423718787218
-0.437183723425
-0.452486073112
-0.469080904022
-0.4867179064
-0.505247467813
-0.524598262888
-0.544744494019
-0.565655876905
-0.587218934506
-0.609298001134
-0.631810381755
-0.654766067614
-0.678201260963
-0.702109404464
-0.726439617705
-0.751124465202
-0.776100672428
-0.801320176899
-0.826744907616
-0.852346926944
-0.878104823288
-0.904010336336
-0.930070639653
-0.956301038314
-0.98271185433
-1.00931307064
-1.03609123066
-1.06300583168
-1.08997105835
-1.11694516572
-1.14397739732
-1.17115152738
-1.19854804188
-1.22622959375
-1.25427965817
-1.28284024216
-1.31213025771
-1.34245236424
-1.37419356616
-1.40781330332
-1.44382993066
-1.48276369197
-1.52506629217
-1.57106011829
-1.62084505144
-1.67418902163
-1.73047374986
-1.78863678689
-1.84724950914
-1.90449294047
-1.95811112226
-2.0055659696
-2.04442887541
-2.07250376755
-2.08826880914
-2.09125320409
-2.08106952275
-2.05758228721
-2.02233310833
-1.97828459984
-1.92913662797
-1.87862681854
-1.82416369956
-1.76840195904
-1.71592176989
-1.66959366573
-1.6305585466
-1.60219016916
-1.59491770515
-0.0485726894269
-0.0855158716492
-0.0766126296831
-0.0526564291102
-0.0231931904497
0.00791993298649
0.039324809867
0.0707473905835
0.102318206797
0.134444438291
0.1675531134
0.20204738598
0.238212608609
0.276300697121
0.316411687378
0.358634543446
0.40289967846
0.449171690873
0.497297512151
0.547133048832
0.598401193526
0.650973665991
0.704543032861
0.75889734069
0.813807816755
0.8691314844
0.924685125736
0.980403658706
1.03621941941
1.09212969332
1.14812682583
1.20427504973
1.26062551415
1.31722262593
1.37413432949
1.43146258842
1.48922946674
1.54750184284
1.60632964609
1.66575183689
1.72577792143
1.78640068237
1.84755882761
1.90915460083
1.97101382432
2.03291760849
2.09458540544
2.15570620993
2.21587755795
2.27469410357
2.3316453739
2.38601763794
2.43707248187
2.48425814562
2.52721618353
2.56557096194
2.59906374364
2.62784947038
2.65269348686
2.67347751531
2.68884575986
2.69701607153
2.69658855125
2.68697795291
2.66795829368
2.63950235534
2.6017496599
2.55495756134
2.4995320832
2.43601818337
2.36508413221
2.28754998812
2.20433839149
2.11637088489
2.02461860108
1.93003992446
1.83350760737
1.73580320025
1.63768220626
1.53976020533
1.44253467501
1.34640442752
1.25189960562
1.15938922768
1.06885954335
0.98039224064
0.895259850401
0.814000347085
0.735745792898
0.661250359931
0.593261930094
0.531437461399
0.472653903711
0.417122336953
0.371302514144
0.346443957791
0.328980337049
0.290274213302
0.187092979066
0.0464084106893
-0.111412003874
-0.226580510379
-0.265545271737
-0.267791237807
-0.236231192044
-0.225550021617
-0.251248277036
-0.30658755462
-0.36002553181
-0.403491468621
-0.442846421183
-0.478314901582
-0.510962329031
-0.541491379766
-0.570425896682
-0.598146514013
-0.624955732996
-0.651106807313
-0.676766042544
-0.701975112897
-0.726721342855
-0.751036611585
-0.775043716232
-0.798873419729
-0.822603204736
-0.846244886224
-0.869792863109
-0.893235044919
-0.91656804991
-0.939789862757
-0.962904589855
-0.985919047286
-1.00885383429
-1.03174668858
-1.05464510455
-1.07759749621
-1.10063443296
-1.123757823
-1.14692189588
-1.17003466793
-1.19305365478
-1.21601111166
-1.23899109243
-1.26203933205
-1.28513740237
-1.30822765102
-1.33123395869
-1.35407192154
-1.37663896591
-1.3988125977
-1.42045091766
-1.44140122892
-1.4614879108
-1.48054707174
-1.49845698455
-1.51515506558
-1.53066615207
-1.54514390445
-1.55887851923
-1.57234557725
-1.58621396587
-1.60128831418
-1.61841081324
-1.63840915677
-1.66198425399
-1.68970641397
-1.72195053046
-1.75827976715
-1.79731300218
-1.83713645575
-1.87542130615
-1.90895904081
-1.93438742285
-1.94530190085
-1.93829857578
-1.9144599532
-1.87279621414
-1.81516776248
-1.75145624426
-1.70872375945
-0.123472202818
-0.112408449658
-0.0393131706628
0.0247003787313
0.0747988361852
0.115895338273
0.151651779308
0.184340644014
0.215377549497
0.245746085512
0.276076270219
0.306949782679
0.338738419561
0.371793692149
0.406294817279
0.442417658474
0.480190676565
0.519659679103
0.560698915005
0.603297127749
0.647286373664
0.692515732489
0.738781184488
0.785979854023
0.833862472793
0.882329920206
0.931274080407
0.980651253711
1.03040823962
1.08057376824
1.13119106936
1.18231655376
1.23400120539
1.28637086334
1.33947796755
1.39338720973
1.44816532609
1.50385231789
1.56043114698
1.6178790375
1.67611144517
1.7349936179
1.79431960022
1.85381809729
1.91313553085
1.97186878042
2.02954598533
2.08571156465
2.13990646492
2.19163482454
2.2404638733
2.28605477178
2.32801636685
2.36599010746
2.39975580476
2.42894239117
2.45316779422
2.47203568273
2.48552966916
2.49466841384
2.50053189042
2.50223412745
2.49821927543
2.48709631931
2.46775855193
2.43940279615
2.40150185112
2.35383689189
2.29649104133
2.22983189617
2.1545228764
2.07144938413
1.98170131488
1.88653657612
1.78725148082
1.68515444084
1.58150338966
1.47739386385
1.37379044195
1.27164088544
1.17159953338
1.07414330937
0.979832427823
0.889655436324
0.803247126758
0.721229555726
0.644859639726
0.574291935032
0.508788600262
0.449102744839
0.396515096577
0.354263528003
0.325983720607
0.313067474286
0.302162829625
0.244379957345
0.145661383626
0.0162087479672
-0.124095539846
-0.233178367744
-0.300480721989
-0.314787951879
-0.30588269413
-0.288985130729
-0.269951428612
-0.285397992606
-0.341857996736
-0.423703718043
-0.503071487894
-0.56902479717
-0.624509819728
-0.671658662218
-0.712788595869
-0.749545828955
-0.783089639929
-0.814242818734
-0.843624717167
-0.87170124851
-0.898754752295
-0.924891751743
-0.950143796887
-0.97459647364
-0.99843893587
-1.02186186816
-1.04498275049
-1.06784379382
-1.09045856947
-1.11282894109
-1.13495970856
-1.15685611033
-1.17852853608
-1.19999382273
-1.22128641023
-1.24246329888
-1.26359667939
-1.28475773899
-1.30598599163
-1.3272740286
-1.34854221476
-1.3696696716
-1.39058449841
-1.41131961516
-1.43197351777
-1.45262181968
-1.4732904007
-1.49397427312
-1.51466306657
-1.53535634594
-1.55605883869
-1.57678440805
-1.59755347091
-1.61839688717
-1.63934007251
-1.66041545042
-1.68166018729
-1.70310761045
-1.72477967719
-1.74668542785
-1.7687934345
-1.79104467847
-1.81337163631
-1.83565104271
-1.85767663823
-1.87923151725
-1.9001101195
-1.92021764357
-1.93964204882
-1.95814377407
-1.97533776487
-1.99103815169
-2.0051089018
-2.01698544107
-2.02574466076
-2.02946087457
-2.02482016116
-2.01363502732
-1.99642874274
-1.97419596727
-1.95362053217
-1.94883840521
-0.213633498272
-0.0810641607579
0.0706155376942
0.157678017205
0.208824928833
0.244636665391
0.273864031866
0.300269898979
0.325325512678
0.349920067047
0.374493215871
0.399449881735
0.425010108117
0.451460903449
0.478924575847
0.507589992297
0.537471616154
0.568666713577
0.601143379415
0.634883491846
0.669748041842
0.70573938325
0.742668476206
0.780441114415
0.818947276598
0.858130821201
0.897874762416
0.93818192017
0.979037565222
1.02048950516
1.06256118739
1.1053574785
1.14895281547
1.19341362399
1.23882016021
1.28526497996
1.33275780513
1.38133121603
1.43098045538
1.48165815028
1.53326865432
1.5856732266
1.63866934689
1.69200528776
1.74535806067
1.79836961042
1.85066295603
1.90188119656
1.95167499907
1.99972611919
2.04570250471
2.08925505389
2.13005181891
2.1678012044
2.20227220738
2.23314722461
2.26002478805
2.28229239842
2.29916157651
2.31072588977
2.31696446048
2.31786371116
2.31286307061
2.30103331708
2.28124642395
2.25238003638
2.2134995725
2.16401086521
2.10374659129
2.03298359905
1.95240292308
1.86306745911
1.76637479301
1.66382566011
1.55696084067
1.44739406244
1.33673826865
1.22623983705
1.11703172516
1.01032475969
0.907576127181
0.808691885002
0.714746203262
0.626721570958
0.544526168721
0.468779950451
0.400102519814
0.336148740857
0.280780193281
0.237651674077
0.201870813192
0.181837257156
0.143686666352
0.0867922733068
0.000264172772471
-0.119708379965
-0.233747805059
-0.332601207829
-0.399777747519
-0.425598843821
-0.424383216216
-0.411715105004
-0.406437852425
-0.407632949006
-0.418975111412
-0.45698569703
-0.520452581681
-0.596821635475
-0.670289597438
-0.734024454132
-0.788491092327
-0.835012063708
-0.875392165934
-0.911147328562
-0.943443363208
-0.973156499642
-1.00096793184
-1.02736468511
-1.0526206378
-1.07681185919
-1.099953037
-1.12214901151
-1.14360813534
-1.16455468962
-1.18511837224
-1.20536154047
-1.22530172452
-1.24494674654
-1.26429700178
-1.28335762946
-1.30213654612
-1.32065726488
-1.33896535587
-1.35713731106
-1.3752726021
-1.39346216029
-1.41176161591
-1.43014943877
-1.44851864781
-1.4667212447
-1.48466165951
-1.50237321056
-1.51994830029
-1.53746759993
-1.55496352935
-1.57243865564
-1.58988759729
-1.60730904687
-1.62470480314
-1.64208234996
-1.65945383336
-1.67683942446
-1.69425988205
-1.71174448788
-1.72932681427
-1.74704126666
-1.76491857785
-1.7829835579
-1.80124486583
-1.81970824453
-1.83840113338
-1.85733292686
-1.87647301375
-1.89577354335
-1.91518368374
-1.93468973007
-1.95434852584
-1.97390594058
-1.9928860493
-2.01082242131
-2.02717963616
-2.04111056866
-2.05150601031
-2.0567382794
-2.05491659138
-2.04713174481
-2.03501319218
-2.02110872693
-2.012266914
-2.01949991516
-0.288225412575
0.044432762866
0.258187996055
0.325342462854
0.350214858633
0.366467715486
0.382090044391
0.398825190829
0.416624817133
0.435425778761
0.454970345917
0.475350887828
0.496518318883
0.518637427405
0.541702866872
0.565848115887
0.591047487465
0.617376419763
0.644732458854
0.67317172045
0.702582218735
0.732903807704
0.764029006624
0.795946193006
0.828497953202
0.861675278204
0.895434976017
0.929801417434
0.964772848569
1.000426953
1.036830679
1.07406867869
1.11221282975
1.15139161572
1.19164969771
1.23303676213
1.27558764325
1.31929337526
1.3640808698
1.40985608207
1.4564586764
1.50368241041
1.5512626912
1.59889243093
1.64621744379
1.69286956839
1.73848079129
1.78277357675
1.82553437601
1.86654491993
1.90562832015
1.94262953876
1.9773505565
2.00960848283
2.03918081017
2.06563022596
2.08840423676
2.10704941462
2.12128060051
2.13144209191
2.1372626582
2.13812206357
2.13310060869
2.12098146885
2.10037524891
2.06989457482
2.02834486873
1.97495311478
1.90949783614
1.83241559704
1.74462094837
1.64748176768
1.54278693607
1.43251002722
1.31835749609
1.20218146963
1.0858979026
0.971399535605
0.85908292972
0.750829071109
0.648231382619
0.551293990608
0.460460285092
0.37700520914
0.299221872533
0.229694850015
0.171063950588
0.117969765422
0.0759855683794
0.0282266048192
-0.0237070863977
-0.0930917898888
-0.193655310902
-0.296368917854
-0.391006998341
-0.467190732374
-0.516713720927
-0.548623960661
-0.562601694797
-0.56038899763
-0.554118535309
-0.553417490452
-0.562669916154
-0.578976504176
-0.605211671415
-0.648288636568
-0.705959288777
-0.770466660547
-0.833249786665
-0.890050513249
-0.940174318812
-0.984017461312
-1.02257999525
-1.05692017366
-1.08796499612
-1.1164912876
-1.14313176366
-1.16832892285
-1.19230041596
-1.21508486356
-1.23668359452
-1.2572158168
-1.27691063194
-1.29599586517
-1.3146163582
-1.33284784235
-1.35072049895
-1.36824674681
-1.38542949408
-1.40227328743
-1.41878943683
-1.43500793006
-1.4509880839
-1.4668253999
-1.48263952934
-1.49853778615
-1.51457810333
-1.53072441397
-1.54684664109
-1.562776411
-1.57841574808
-1.59378778936
-1.6089764385
-1.62405862073
-1.63907049423
-1.65402305975
-1.66892014704
-1.68376699173
-1.69857252599
-1.7133477934
-1.72810995415
-1.74288124811
-1.75768985992
-1.77257124723
-1.78756595878
-1.80271392744
-1.81805161648
-1.8336089078
-1.84940145113
-1.86544102153
-1.8817448979
-1.89831183111
-1.9151103759
-1.93209493023
-1.94921266696
-1.96643320546
-1.98375848472
-2.00096684261
-2.01767244117
-2.03346954249
-2.04786192372
-2.06011643441
-2.06930968698
-2.0742510574
-2.07359527883
-2.06824926854
-2.05992754287
-2.0516288831
-2.04942222574
-2.06147093262
-0.316051531108
0.28186172738
0.50697620385
0.502258732434
0.483813839124
0.4750671445
0.474593688612
0.479559493845
0.487648533528
0.498002197032
0.509886478314
0.523199665199
0.537700045741
0.553484741931
0.570434915372
0.58864987359
0.608015114087
0.628601801872
0.650300245976
0.673088470316
0.696824784992
0.721534905604
0.747056486378
0.773352848228
0.800347455071
0.828029877615
0.856324684128
0.885273481277
0.914880621327
0.945215691573
0.976313560499
1.00828282897
1.04118582279
1.0750787457
1.11001294834
1.14602890024
1.18308260516
1.22113248043
1.26008101068
1.2997829952
1.34003995961
1.38062136538
1.42125523847
1.46165596357
1.50151703578
1.54055377026
1.57852821412
1.61531669399
1.65089020068
1.68529762975
1.71855856662
1.75063365052
1.7813659851
1.81052423089
1.83765605245
1.86201190202
1.88279200634
1.89951582237
1.91198215179
1.92058900317
1.92553974611
1.92623619208
1.92155593975
1.90988942213
1.88931018167
1.85792796783
1.81419269541
1.75708158976
1.68645241583
1.60303409107
1.50814766253
1.4034977476
1.29145033621
1.17472400637
1.05548479332
0.935064180553
0.816396019901
0.701274888321
0.590051472869
0.483725714912
0.38464117056
0.291211271581
0.204766301165
0.129371093367
0.0592725049543
-0.00203420905055
-0.0554384925884
-0.10957756943
-0.178386477162
-0.26784226028
-0.361458488331
-0.458723611714
-0.550852279691
-0.620243086103
-0.666865506953
-0.692608375992
-0.703197348805
-0.708285797765
-0.709800141055
-0.709946673905
-0.714323027127
-0.725642973673
-0.743529512763
-0.766404331357
-0.796520718409
-0.83697006145
-0.886230808979
-0.93982378494
-0.992878341487
-1.04247397725
-1.08752315267
-1.1278708155
-1.16392940468
-1.19633468746
-1.22575405599
-1.25282649897
-1.27808573867
-1.30190239335
-1.32442661813
-1.34566445039
-1.36562496185
-1.38443657763
-1.40233862717
-1.41955033268
-1.43622720213
-1.45245156526
-1.46826709496
-1.4836894868
-1.49872712488
-1.51338512054
-1.52768087793
-1.5416519401
-1.55537122891
-1.56895118329
-1.58252312764
-1.59620653259
-1.61005018556
-1.62400464984
-1.6379205936
-1.65162415531
-1.66502365842
-1.67813352929
-1.69102968134
-1.7037775278
-1.71641384509
-1.72895481029
-1.7414117689
-1.75379730153
-1.7661253212
-1.7784114752
-1.79067571055
-1.80294340571
-1.81524717972
-1.82762701441
-1.84012867598
-1.85279777015
-1.86567683061
-1.87880251234
-1.89219848931
-1.90588376155
-1.91987361102
-1.93416477274
-1.94872570982
-1.96351100834
-1.97846417474
-1.99354314231
-2.00871618609
-2.02377869365
-2.03840151084
-2.05222142712
-2.0647911888
-2.07548015821
-2.08353999668
-2.08810992643
-2.08821136638
-2.08474289387
-2.07943501949
-2.07535042806
-2.07770471657
-2.0923180092
-0.278591388979
0.615809043666
0.777321102669
0.663815104036
0.605300576293
0.57494035929
0.558715608513
0.550127884201
0.545825586095
0.544816743843
0.546104920629
0.549626758195
0.554976274875
0.562238482678
0.571167628048
0.581836346907
0.594060873329
0.607884559923
0.623089366741
0.639699584905
0.657550318905
0.676600825303
0.696713609539
0.717866521538
0.739894965257
0.762788909779
0.786472626482
0.810949628569
0.836178021021
0.862196465549
0.889012079058
0.91665732747
0.945142262359
0.974514914582
1.00474427834
1.03580424117
1.06763441652
1.10013543682
1.13315106281
1.16651129374
1.19999647518
1.23337715018
1.26641038201
1.29887487377
1.33057645426
1.36138144998
1.39122333701
1.4201988676
1.44853132435
1.47654576135
1.50449115238
1.53238505732
1.55987544156
1.58634358379
1.61080873954
1.63187389906
1.64845021839
1.66023318915
1.66735748402
1.67094308645
1.67201323771
1.67032484963
1.66474312197
1.65318025805
1.63295253508
1.60141288625
1.5563751885
1.49646476247
1.42152397952
1.33288943659
1.23271922037
1.1227477168
1.00585916908
0.88622285975
0.765652313195
0.645296957037
0.527736216038
0.415592302486
0.307778087337
0.205358864506
0.113546592907
0.0269100841078
-0.0549920571113
-0.124565434206
-0.187846995539
-0.25072663732
-0.322168610973
-0.406461759587
-0.503815990302
-0.602941153421
-0.690576666477
-0.764128444664
-0.817421999746
-0.847358484545
-0.860993653791
-0.864862115726
-0.865512698562
-0.867795435617
-0.872197747365
-0.879405365003
-0.891200174126
-0.907757271802
-0.92823364777
-0.952267063801
-0.981447844407
-1.01727979589
-1.05885958716
-1.10356995906
-1.14845147273
-1.19140306082
-1.23131923171
-1.26778634885
-1.30086796886
-1.33089088479
-1.35831139483
-1.38362354904
-1.40725134651
-1.42946547874
-1.45035590673
-1.46990217773
-1.4881278798
-1.50517836247
-1.52127822249
-1.53663491203
-1.55139974491
-1.56566283323
-1.57947452859
-1.59285747996
-1.60582359007
-1.61838284322
-1.6305578459
-1.64239515059
-1.65397932948
-1.66543377081
-1.67689849852
-1.68849067071
-1.70025026286
-1.7121109198
-1.72391815226
-1.73550824989
-1.74679650306
-1.75779285276
-1.76855752276
-1.77914229682
-1.78957913108
-1.79988539009
-1.8100781383
-1.82017575606
-1.83019726823
-1.84016252493
-1.8500937841
-1.8600193106
-1.86997435122
-1.88000225918
-1.89015234355
-1.90047454809
-1.91101653283
-1.92182000845
-1.93291525138