/*--------------------------------*- C++ -*----------------------------------*\
| =========                 |                                                 |
| \\      /  F ield         | OpenFOAM: The Open Source CFD Toolbox           |
|  \\    /   O peration     | Version:  v1806                                 |
|   \\  /    A nd           | Web:      www.OpenFOAM.com                      |
|    \\/     M anipulation  |                                                 |
\*---------------------------------------------------------------------------*/
FoamFile
{
    version     2.0;
    format      ascii;
    class       volVectorField;
    location    "5";
    object      U;
}
// * * * * * * * * * * * * * * * * * * * * * * * * * * * * * * * * * * * * * //

dimensions      [0 1 -1 0 0 0 0];


internalField   nonuniform List<vector> 
12225
(
(9.73367388486 0.0361232105704 0)
(9.49578958936 0.041320379832 0)
(9.24710759381 0.0416284654558 0)
(9.0004210104 0.041029929276 0)
(8.76259278281 0.0402343020609 0)
(8.53587921241 0.0394466756014 0)
(8.32061519586 0.0387085116511 0)
(8.11636146104 0.0380126023909 0)
(7.92238548894 0.0373473661345 0)
(7.73787775396 0.0367099946899 0)
(7.56203687654 0.0361076659619 0)
(7.39408762846 0.0355558485489 0)
(7.23326557778 0.0350766629732 0)
(7.07879337106 0.0347000227361 0)
(6.92982678647 0.0344709824733 0)
(6.78531376338 0.034480873879 0)
(6.64389386584 0.0350791532892 0)
(6.49506185038 0.0301377393612 0)
(10.0126690707 0.0660414949496 0)
(10.031843188 0.0734431956169 0)
(10.02468724 0.071716903081 0)
(10.0003524083 0.0696628932589 0)
(9.96667326097 0.0683284121565 0)
(9.92743851741 0.0676865948639 0)
(9.88448375228 0.067513485698 0)
(9.8387688766 0.0676024737693 0)
(9.79083840763 0.0678192680159 0)
(9.74103215416 0.0680996545665 0)
(9.68957587478 0.068431851927 0)
(9.63660949951 0.0688408303241 0)
(9.5821846444 0.0693785622503 0)
(9.52624829167 0.070124583382 0)
(9.46860400446 0.0712039191849 0)
(9.4088335158 0.0728493707399 0)
(9.34678901326 0.0756624815899 0)
(9.27627485713 0.0818198401236 0)
(10.0192038635 0.0555616869708 0)
(10.0509447746 0.0628185207322 0)
(10.06907278 0.0606964222062 0)
(10.0765585576 0.0592489340328 0)
(10.0787305028 0.0593284448454 0)
(10.0781101713 0.0604843811564 0)
(10.0756446402 0.0622108432353 0)
(10.0716251367 0.0641511685763 0)
(10.0660846379 0.0661102723573 0)
(10.0589718433 0.0680176032339 0)
(10.0502174199 0.069885800525 0)
(10.0397484209 0.0717814642746 0)
(10.0274787975 0.0738096549101 0)
(10.0132909175 0.0761153222866 0)
(9.99701553455 0.0789077263112 0)
(9.97842237062 0.0825219252327 0)
(9.95763556632 0.0875215207264 0)
(9.93126384795 0.0936724222377 0)
(10.0147993766 0.0459953200834 0)
(10.0418250197 0.0573397621104 0)
(10.0608180498 0.0584232311205 0)
(10.0714797816 0.059119290597 0)
(10.0778813166 0.0607269814684 0)
(10.0823344212 0.0629478776255 0)
(10.0857494297 0.0653910628591 0)
(10.0883943779 0.067807187876 0)
(10.0902693415 0.0700943041472 0)
(10.0912804159 0.07225818567 0)
(10.0913118722 0.0743724127552 0)
(10.0902490175 0.0765525153853 0)
(10.0879784334 0.078944939142 0)
(10.084380902 0.0817322823027 0)
(10.0793295823 0.0851564154721 0)
(10.0727052399 0.089555267564 0)
(10.0646154674 0.0953848253296 0)
(10.0534620737 0.102536092975 0)
(10.0110861193 0.0384442335537 0)
(10.0332033291 0.0521835986365 0)
(10.0508382721 0.0553318463353 0)
(10.0617167714 0.0568741164923 0)
(10.0686719826 0.0587318603358 0)
(10.0737611457 0.0609438646859 0)
(10.0778908096 0.0632948051191 0)
(10.0813661069 0.0656339197969 0)
(10.0842232111 0.0679119017183 0)
(10.0863958687 0.070159874085 0)
(10.087789232 0.0724621333589 0)
(10.0883076691 0.0749385172082 0)
(10.0878615076 0.0777382444249 0)
(10.0863674952 0.0810462775384 0)
(10.0837549303 0.0851007541664 0)
(10.0799840876 0.0902129998723 0)
(10.0751535664 0.0967717974702 0)
(10.0685655313 0.104951321556 0)
(10.0082703134 0.0322998568715 0)
(10.026223487 0.047076340114 0)
(10.0421710882 0.0519140480008 0)
(10.0528560005 0.0543489777041 0)
(10.0599928828 0.0566619331071 0)
(10.0652993667 0.059168687475 0)
(10.069629811 0.0617805085596 0)
(10.0733032793 0.0644014032857 0)
(10.0763803803 0.0670024028737 0)
(10.078817433 0.069619334826 0)
(10.0805394103 0.0723359600772 0)
(10.081470629 0.0752712900076 0)
(10.081545819 0.0785749556539 0)
(10.080715361 0.0824314345086 0)
(10.0789548594 0.0870706168411 0)
(10.0762834313 0.0927773381926 0)
(10.0728302847 0.0998921863528 0)
(10.0683862431 0.10870462058 0)
(10.0061600738 0.0272972764557 0)
(10.0206660626 0.0422305204973 0)
(10.0348406522 0.0484005518258 0)
(10.0451211291 0.0516990764412 0)
(10.0523117717 0.0544840750899 0)
(10.0577557107 0.0572834774556 0)
(10.0622207723 0.0601228823251 0)
(10.0660245148 0.0629603529752 0)
(10.0692453177 0.0657918865017 0)
(10.0718593423 0.0686646690228 0)
(10.073810434 0.0716683549796 0)
(10.0750423995 0.0749255654755 0)
(10.0755131466 0.0785876869609 0)
(10.0752030874 0.0828363265357 0)
(10.0741261778 0.0878880320431 0)
(10.0723470141 0.0939963886436 0)
(10.0700272946 0.101447670861 0)
(10.0671826758 0.110501097667 0)
(10.0045894916 0.0232169700652 0)
(10.0162817525 0.0377338255109 0)
(10.02870975 0.0448514500193 0)
(10.0384274465 0.0489179105917 0)
(10.0455623577 0.0521582303291 0)
(10.0510877866 0.0552451751732 0)
(10.0556600728 0.0583084208727 0)
(10.0595817148 0.061360618359 0)
(10.0629432043 0.0644242225395 0)
(10.0657385764 0.0675582845894 0)
(10.0679301186 0.0708568560784 0)
(10.0694809203 0.0744426130993 0)
(10.0703709504 0.0784628122146 0)
(10.0706072416 0.0830884101952 0)
(10.0702349533 0.088514011697 0)
(10.0693521608 0.0949544916166 0)
(10.0681413426 0.102635562751 0)
(10.0667445016 0.111743236776 0)
(10.0034263977 0.0198743104448 0)
(10.0128504621 0.0336255401237 0)
(10.0236353813 0.0413288593574 0)
(10.0326834388 0.046033672583 0)
(10.0396658925 0.0496968443015 0)
(10.0452207508 0.0530624102295 0)
(10.0498778028 0.0563440372686 0)
(10.0539118075 0.0596038927174 0)
(10.0574191374 0.0628888000564 0)
(10.0604091 0.0662677822637 0)
(10.0628613785 0.0698366958968 0)
(10.064757482 0.0737146757551 0)
(10.0660975792 0.0780402642987 0)
(10.0669111839 0.0829685321555 0)
(10.0672670977 0.0886674165807 0)
(10.0672849302 0.0953105522913 0)
(10.0671515871 0.103064456707 0)
(10.0670815451 0.112042049689 0)
(10.002567878 0.0171168257751 0)
(10.0101843686 0.0299094805366 0)
(10.0194794023 0.0378806896327 0)
(10.0278021689 0.0430699900494 0)
(10.0345536212 0.0471024033297 0)
(10.0400905573 0.0507262804401 0)
(10.0448123875 0.0542138339412 0)
(10.0489559251 0.0576685861648 0)
(10.0526171131 0.0611586276295 0)
(10.0558173374 0.0647607899553 0)
(10.0585518419 0.0685704504251 0)
(10.0608187913 0.0727002647193 0)
(10.0626357237 0.0772765703174 0)
(10.064049642 0.0824348995558 0)
(10.0651450177 0.0883140755314 0)
(10.0660514952 0.0950469656512 0)
(10.0669475372 0.102747005242 0)
(10.0680942725 0.111467630111 0)
(10.0019339893 0.014824693178 0)
(10.0081246219 0.0265792180269 0)
(10.0161091371 0.0345608157657 0)
(10.023697516 0.0400705793168 0)
(10.0301626257 0.0443958490648 0)
(10.0356425955 0.0482392604521 0)
(10.040412932 0.0519055784378 0)
(10.0446658535 0.0555296995451 0)
(10.048490979 0.0591966619966 0)
(10.0519180475 0.0629884031913 0)
(10.0549553229 0.0669971531954 0)
(10.057615089 0.0713261779173 0)
(10.0599286432 0.0760864601165 0)
(10.061955008 0.0813917036428 0)
(10.0637866312 0.0873510053801 0)
(10.065553673 0.0940596185414 0)
(10.0674158565 0.101586816304 0)
(10.0696646222 0.109943594542 0)
(10.0015024385 0.0130208529954 0)
(10.006672513 0.0238030910074 0)
(10.0136248104 0.031624869177 0)
(10.0205641928 0.0372995287683 0)
(10.0267379506 0.0418254568557 0)
(10.0321403728 0.0458335396752 0)
(10.0369460557 0.0496373303176 0)
(10.0413033654 0.053391117941 0)
(10.0452911894 0.057191420839 0)
(10.0489431301 0.0611225677595 0)
(10.0522764326 0.0652719331778 0)
(10.0553132623 0.0697322931608 0)
(10.0580938256 0.074599112344 0)
(10.0606831341 0.079964918341 0)
(10.0631747066 0.0859128169905 0)
(10.0656924424 0.0925072558458 0)
(10.0683751997 0.0997851170935 0)
(10.0715371735 0.107730201846 0)
(10.0011747099 0.0114919043637 0)
(10.0055312679 0.0213153608512 0)
(10.0116014407 0.0288286447008 0)
(10.0179357565 0.0345294547765 0)
(10.0238082593 0.0391715176081 0)
(10.0291141909 0.0432953865807 0)
(10.0339433337 0.0472023283399 0)
(10.0384015328 0.0510542865184 0)
(10.0425543712 0.0549538675599 0)
(10.0464363026 0.0589850260522 0)
(10.0500706986 0.0632288533126 0)
(10.0534868735 0.0677665880784 0)
(10.0567302936 0.0726775659241 0)
(10.0598681097 0.0780340020455 0)
(10.0629907085 0.0838951392825 0)
(10.0662120028 0.0902997008142 0)
(10.0696474716 0.0972588294452 0)
(10.073631993 0.104736975285 0)
(10.0008977244 0.00997077034816 0)
(10.0045427017 0.0187354681139 0)
(10.009793285 0.0257806198376 0)
(10.0155232857 0.0313776228768 0)
(10.0210726548 0.0360557200466 0)
(10.0262701714 0.0402477622942 0)
(10.0311306812 0.0442241042597 0)
(10.0357158055 0.0481436801747 0)
(10.0400736044 0.0521094281212 0)
(10.0442358126 0.0562018587812 0)
(10.0482288985 0.0604927487217 0)
(10.0520858635 0.0650496040159 0)
(10.0558539411 0.0699330910977 0)
(10.0595976822 0.0751941437445 0)
(10.0633991616 0.0808678631265 0)
(10.0673564958 0.0869692915363 0)
(10.0715578192 0.0934877806709 0)
(10.0763547501 0.100374808449 0)
(10.000675843 0.00846453053116 0)
(10.0037354763 0.0160854247207 0)
(10.0082719029 0.0224920471129 0)
(10.0134388278 0.0278143515857 0)
(10.0186674767 0.0323973216777 0)
(10.0237549801 0.0365622777781 0)
(10.0286581159 0.0405333119863 0)
(10.0333970879 0.0444534557359 0)
(10.0379997525 0.0484182076715 0)
(10.0424907227 0.0524989974983 0)
(10.0468953626 0.056755263583 0)
(10.0512460467 0.0612376026315 0)
(10.0555866584 0.0659874443755 0)
(10.0599739892 0.0710336113716 0)
(10.0644763961 0.0763898641123 0)
(10.0691721498 0.0820507402513 0)
(10.0741191478 0.0879908006492 0)
(10.0796846798 0.0941544227344 0)
(10.0005113075 0.00695584137877 0)
(10.0031280831 0.0133451305681 0)
(10.0070983144 0.0189344651611 0)
(10.0117969267 0.0237820229281 0)
(10.0167518001 0.0280963062862 0)
(10.0217570303 0.0320948085892 0)
(10.0267311422 0.0359446322884 0)
(10.0316600003 0.0397602352302 0)
(10.0365501604 0.0436199925799 0)
(10.0414157372 0.0475802954991 0)
(10.0462758311 0.0516843865778 0)
(10.0511569485 0.0559645074826 0)
(10.0560942392 0.0604424699887 0)
(10.0611317008 0.0651275585301 0)
(10.0663197259 0.0700154674381 0)
(10.0717140553 0.0750865472362 0)
(10.077342758 0.0803060837394 0)
(10.0835870961 0.085618862217 0)
(10.0004040782 0.00539553779459 0)
(10.0027311268 0.0104388442335 0)
(10.0063213542 0.0150160330369 0)
(10.0107036537 0.0191609340511 0)
(10.0154876306 0.0229893592832 0)
(10.0204799828 0.0266303009361 0)
(10.0255788978 0.0301896126126 0)
(10.0307451759 0.033743768251 0)
(10.0359663441 0.0373452819081 0)
(10.0412431534 0.0410303888611 0)
(10.0465843823 0.0448228437536 0)
(10.0520055778 0.0487367215213 0)
(10.0575286873 0.0527756135117 0)
(10.0631809042 0.056933349692 0)
(10.0689925963 0.0611925167362 0)
(10.0749964076 0.0655258285195 0)
(10.0811934352 0.0698956731898 0)
(10.0879749522 0.0742527506897 0)
(10.0003543817 0.00368676329499 0)
(10.0025566827 0.00720283530253 0)
(10.0059912275 0.0105353296936 0)
(10.0102698169 0.0137181487618 0)
(10.0150503162 0.0168044282608 0)
(10.0201519046 0.0198490575608 0)
(10.0254639563 0.0228976092477 0)
(10.0309320364 0.025983424481 0)
(10.0365288303 0.0291282706873 0)
(10.0422418487 0.0323443648447 0)
(10.0480671273 0.0356354532625 0)
(10.0540063433 0.0389977516148 0)
(10.0600657604 0.0424198753931 0)
(10.0662548383 0.0458834879705 0)
(10.0725846991 0.0493633481764 0)
(10.0790680196 0.0528284952581 0)
(10.085684657 0.0562429589338 0)
(10.0928358728 0.0595647466962 0)
(10.0003766702 0.00163323546787 0)
(10.002659863 0.0032902083732 0)
(10.0062318945 0.00505859911368 0)
(10.0107020347 0.00697497093407 0)
(10.0157256263 0.00903166666534 0)
(10.0211213955 0.0112090884581 0)
(10.0267767187 0.0134900371764 0)
(10.0326324616 0.0158630169528 0)
(10.0386536286 0.0183180792233 0)
(10.0448173918 0.0208447817319 0)
(10.0511072666 0.0234288272709 0)
(10.057510519 0.0260524900218 0)
(10.0640177269 0.0286932930466 0)
(10.0706218135 0.031325725864 0)
(10.0773172077 0.0339206489671 0)
(10.0841003347 0.0364473835164 0)
(10.0909350621 0.0388735385616 0)
(10.0982250671 0.0411652861922 0)
(10.0004985719 -0.000508256244408 0)
(10.0031222168 -0.000772076641761 0)
(10.0071874796 -0.000588299664674 0)
(10.0121795938 6.45424799276e-05 0)
(10.0176881588 0.00109696515644 0)
(10.0235207485 0.00240456086495 0)
(10.0295786213 0.00390942602871 0)
(10.035817599 0.00556015815638 0)
(10.0422103922 0.00732286453366 0)
(10.0487334744 0.00917020984551 0)
(10.0553644836 0.0110771773962 0)
(10.0620819393 0.0130167011565 0)
(10.0688668745 0.014961303018 0)
(10.0757025468 0.0168812245674 0)
(10.0825744976 0.0187475842648 0)
(10.0894713919 0.0205307833937 0)
(10.0963503974 0.0222038748072 0)
(10.1036146199 0.023739451615 0)
(10.0006793865 -0.00256363165548 0)
(10.0038127764 -0.00458854619687 0)
(10.0085766484 -0.00573692287979 0)
(10.014243715 -0.00606228201729 0)
(10.0203092493 -0.00579004794607 0)
(10.0265847316 -0.00512656483643 0)
(10.0330074837 -0.00420522047332 0)
(10.0395649939 -0.00310278621981 0)
(10.0462461379 -0.00186479107227 0)
(10.0530327335 -0.000525719288579 0)
(10.0599005821 0.00088413618227 0)
(10.0668240962 0.00233352996186 0)
(10.0737787852 0.00379178070959 0)
(10.0807435212 0.00522711391269 0)
(10.0876999477 0.00660983214302 0)
(10.0946348153 0.00791066279889 0)
(10.1015037842 0.00910443911006 0)
(10.1087144657 0.0101674304266 0)
(10.0009708485 -0.00482184255398 0)
(10.004890186 -0.00862368382168 0)
(10.0106376518 -0.0109236538857 0)
(10.0171502543 -0.0119835052355 0)
(10.0238292 -0.0122553610634 0)
(10.0305367656 -0.0120672169674 0)
(10.0372848753 -0.0115972650088 0)
(10.0441105475 -0.0109325115241 0)
(10.0510260969 -0.0101206025111 0)
(10.0580203112 -0.00919498676883 0)
(10.0650682129 -0.00818763079837 0)
(10.0721407016 -0.00712988209739 0)
(10.0792095261 -0.00605513162904 0)
(10.0862502677 -0.00499461713108 0)
(10.0932424327 -0.00397996658718 0)
(10.1001708891 -0.003038062858 0)
(10.1069915905 -0.00219525381307 0)
(10.1141120665 -0.00147246527469 0)
(10.0014350473 -0.00743883169104 0)
(10.0065211191 -0.0130326714382 0)
(10.0135698582 -0.0162255439973 0)
(10.0210514457 -0.0177305558859 0)
(10.0283336794 -0.0183275002662 0)
(10.0354147476 -0.018463112452 0)
(10.0424236142 -0.0183327813156 0)
(10.0494588581 -0.0180145064091 0)
(10.0565565238 -0.0175452238513 0)
(10.0637102507 -0.0169531008208 0)
(10.0708937024 -0.016267621013 0)
(10.0780739558 -0.0155208240899 0)
(10.085220081 -0.0147459334814 0)
(10.092305007 -0.0139759320387 0)
(10.0993071327 -0.0132420863327 0)
(10.1062110262 -0.0125738459387 0)
(10.1129735625 -0.0119982867332 0)
(10.120008569 -0.0115400680514 0)
(10.0021722648 -0.0106068477096 0)
(10.0089491085 -0.0179245349197 0)
(10.0176279108 -0.0216198136718 0)
(10.0261228093 -0.0232357008095 0)
(10.0339250971 -0.0239479878275 0)
(10.0412808091 -0.0242755885733 0)
(10.0484690549 -0.0243895536608 0)
(10.0556497791 -0.0243359747356 0)
(10.0628761743 -0.0241308246747 0)
(10.0701424766 -0.0237913822085 0)
(10.0774179551 -0.023342008712 0)
(10.0846661283 -0.0228133865541 0)
(10.0918527157 -0.0222376279376 0)
(10.0989489933 -0.0216477941737 0)
(10.1059310756 -0.0210748187307 0)
(10.1127807798 -0.0205503337244 0)
(10.1194517883 -0.0201040649021 0)
(10.1263483183 -0.0197662756551 0)
(10.0033345967 -0.0145727817668 0)
(10.0124940204 -0.0233525588549 0)
(10.0230858343 -0.0270171497133 0)
(10.0325235787 -0.0284101590892 0)
(10.0406936185 -0.029071464649 0)
(10.0482000535 -0.0295038196171 0)
(10.0554817061 -0.0298127770821 0)
(10.0627479346 -0.0299995071494 0)
(10.0700593019 -0.0300557106154 0)
(10.0774052357 -0.0299864122921 0)
(10.0847487695 -0.0298101281679 0)
(10.0920489035 -0.0295529933946 0)
(10.0992689965 -0.0292431421589 0)
(10.1063782027 -0.0289077098283 0)
(10.1133496563 -0.0285732695815 0)
(10.1201613285 -0.0282672873809 0)
(10.126762666 -0.0280238940877 0)
(10.133576686 -0.0278912261713 0)
(10.005137591 -0.0196443488817 0)
(10.0175426961 -0.0292762973197 0)
(10.0302040544 -0.0322773279097 0)
(10.0403821858 -0.0331635652273 0)
(10.0487152487 -0.0336243257785 0)
(10.0562283505 -0.0340149597608 0)
(10.0634971647 -0.0343345829413 0)
(10.0707592491 -0.0345337159131 0)
(10.0780725214 -0.0345869715114 0)
(10.0854181316 -0.0344993075521 0)
(10.0927529549 -0.0342957066644 0)
(10.1000336829 -0.0340102917607 0)
(10.1072236731 -0.0336753157914 0)
(10.1142920991 -0.0333186017652 0)
(10.121209758 -0.0329630298353 0)
(10.1279445695 -0.0326291185143 0)
(10.1344211573 -0.0323470976334 0)
(10.1409851456 -0.0321774398326 0)
(10.0078677122 -0.0261803305835 0)
(10.0245195559 -0.035489814066 0)
(10.0391833208 -0.0372478880316 0)
(10.0497953672 -0.0376903689123 0)
(10.0581011724 -0.0383008348303 0)
(10.0655259923 -0.0391383439881 0)
(10.0727277384 -0.0400177853443 0)
(10.0799410819 -0.0407832578834 0)
(10.08720548 -0.0413530528487 0)
(10.0944867157 -0.0417074530943 0)
(10.101732669 -0.041866350148 0)
(10.1088982894 -0.0418674500967 0)
(10.1159498996 -0.0417509373702 0)
(10.1228606267 -0.0415514780771 0)
(10.1296050956 -0.0412937460196 0)
(10.1361490212 -0.0409909127805 0)
(10.1423978354 -0.0406574484754 0)
(10.1486631709 -0.0403643465889 0)
(10.0117833732 -0.0346976656219 0)
(10.0335672307 -0.041478485376 0)
(10.049475677 -0.0402752252646 0)
(10.0595443117 -0.0386890184754 0)
(10.066876515 -0.0379550656489 0)
(10.0732256423 -0.0379644306001 0)
(10.0792928373 -0.0384103710104 0)
(10.0852966192 -0.0390313482811 0)
(10.0912545214 -0.0396573290755 0)
(10.0971174612 -0.040199100861 0)
(10.1028291317 -0.0406242665313 0)
(10.1083490359 -0.0409314733252 0)
(10.1136538538 -0.0411344884627 0)
(10.1187320988 -0.0412483507195 0)
(10.1235776813 -0.0412786092058 0)
(10.1281742988 -0.0412071649985 0)
(10.1324122062 -0.040976473799 0)
(10.1363217754 -0.0404957497516 0)
(10.013543182 -0.0461809090463 0)
(10.0356694657 -0.0538364434178 0)
(10.0440061611 -0.0532576959491 0)
(10.0428941439 -0.0517435819697 0)
(10.037192482 -0.0505185242556 0)
(10.0292803859 -0.049728961832 0)
(10.020209741 -0.0492721281868 0)
(10.0104451875 -0.0490084153488 0)
(10.0001927092 -0.0488285495947 0)
(9.98955499353 -0.0486655851108 0)
(9.97860276467 -0.0484858181696 0)
(9.96740338719 -0.0482769281398 0)
(9.95602459573 -0.0480385106446 0)
(9.94453548483 -0.0477723313 0)
(9.93301002304 -0.047472080508 0)
(9.92153145151 -0.0471034822781 0)
(9.91015287274 -0.0465543831657 0)
(9.89872117757 -0.045212466601 0)
(9.84859314594 -0.0265559954804 0)
(9.71691744559 -0.0318649316863 0)
(9.5759619884 -0.0329252598134 0)
(9.43399715337 -0.0330412914786 0)
(9.29613597103 -0.0328711997498 0)
(9.16431044322 -0.0326207745886 0)
(9.03903828438 -0.0323472646431 0)
(8.92024378581 -0.0320563782328 0)
(8.80761442902 -0.0317424414461 0)
(8.70077005179 -0.0314022700846 0)
(8.59933751013 -0.0310369571284 0)
(8.5029783237 -0.0306507527727 0)
(8.41139236778 -0.030249896812 0)
(8.32431519172 -0.0298396403793 0)
(8.24152006076 -0.0294204104031 0)
(8.16283067346 -0.0289782351579 0)
(8.08831230444 -0.0284481617234 0)
(8.01634698055 -0.0272629409955 0)
(0.0200413914619 -0.0711441187656 1.46397295177e-19)
(0.0419573674624 -0.0597492619575 0)
(-0.0184028152137 0.0585132632959 0)
(-0.106471075803 0.109323477279 0)
(-0.206576021067 0.128060631933 0)
(-0.316643765072 0.137417913368 -2.97409206687e-20)
(-0.434506539839 0.143112553342 0)
(-0.55802244745 0.146719330049 0)
(-0.685776057828 0.148859579902 1.82618947094e-20)
(-0.816717383524 0.149883348413 0)
(-0.949975532243 0.15002520553 -1.55872452552e-20)
(-1.08483400293 0.149458680891 0)
(-1.22067911146 0.148321473653 -1.43748727618e-20)
(-1.35699973309 0.146726329722 -1.40818682667e-20)
(-1.49335819335 0.144768747761 0)
(-1.62939454778 0.142529639936 1.38852216085e-20)
(-1.76480650079 0.140079114782 1.39244043023e-20)
(-1.89935394316 0.1374770253 1.40289017449e-20)
(-2.03284255499 0.134775612735 0)
(-2.16512762667 0.132019162472 0)
(-2.29610158008 0.129246292535 0)
(-2.42569706445 0.12648950283 0)
(-2.55387578938 0.123777125819 0)
(-2.68063158832 0.121132527464 0)
(-2.80598186371 0.118576154681 -1.5753139787e-20)
(-2.92997031614 0.116124635217 -1.60734034259e-20)
(-3.05265996362 0.11379240455 0)
(-3.17413561176 0.111590751425 1.67389240784e-20)
(-3.29449704938 0.109529455995 1.70808064339e-20)
(-3.41386125067 0.107615350368 1.74268257403e-20)
(-3.53235684968 0.105853460083 0)
(-3.6501253936 0.104245476335 0)
(-3.76731400721 0.102790798716 -1.84795515566e-20)
(-3.88407504337 0.101484350718 0)
(-4.00055848703 0.100317357537 0)
(-4.11690891116 0.0992753185252 -1.95335945572e-20)
(-4.23325430518 0.0983388074397 0)
(-4.34970070254 0.0974812493085 0)
(-4.46631919842 0.0966702225563 0)
(-4.58313789988 0.09586588897 0)
(-4.70012821897 0.0950231976586 0)
(-4.81719767116 0.0940906935426 4.30624519837e-20)
(-4.93417830511 0.0930133745903 0)
(-5.05082039574 0.0917327161483 0)
(-5.16678444891 0.0901912325786 4.47944906016e-20)
(-5.28164260497 0.0883342195924 4.53070586295e-20)
(-5.39488283624 0.0861149617911 0)
(-5.50592466144 0.0834915913084 0)
(-5.614125834 0.080426406946 4.65865302043e-20)
(-5.71878034976 0.076884770511 0)
(-5.81911740391 0.0728453183199 -4.71735327123e-20)
(-5.91431407275 0.0683009778757 0)
(-6.00353472558 0.0632546621393 4.74899482348e-20)
(-6.08595552963 0.0577120181965 0)
(-6.16077234368 0.0516738099956 4.74807557952e-20)
(-6.22719443964 0.0451290985627 4.73356354824e-20)
(-6.28441205899 0.038058970566 0)
(-6.33152374268 0.0304471808751 0)
(-6.36756869265 0.0222974836858 0)
(-6.39153721104 0.013642628267 4.55436861729e-20)
(-6.40241923961 0.00453424978941 0)
(-6.39945827311 -0.00498453307523 0)
(-6.38200284892 -0.0148575537082 0)
(-6.34934481736 -0.025041019664 0)
(-6.30083099329 -0.0354805257312 0)
(-6.23589850078 -0.0460973151835 0)
(-6.15413499904 -0.0567820869803 0)
(-6.05534164215 -0.067392814404 -3.16738883507e-20)
(-5.9395924415 -0.077760117542 0)
(-5.80727579122 -0.0876951159553 -2.53648286694e-20)
(-5.6591174395 -0.0970034992153 -2.17227831608e-20)
(-5.49617421624 -0.10549887215 0)
(-5.31980760081 -0.113018573302 1.34629963794e-20)
(-5.13163211999 -0.119432343278 0)
(-4.93345488687 -0.124651917492 -3.92826722325e-21)
(-4.7271986501 -0.128634880038 0)
(-4.51482920395 -0.131386492348 -6.84808236828e-21)
(-4.29829485288 -0.132948656351 1.26999819393e-20)
(-4.07946962566 -0.133395000514 0)
(-3.86010030588 -0.132829780084 0)
(-3.64177120211 -0.131373373836 0)
(-3.4259016024 -0.12914052241 0)
(-3.21371375642 -0.126261625467 4.70422134962e-20)
(-3.00619285622 -0.12289631538 -5.512083255e-20)
(-2.80416692313 -0.119150313954 1.27429007685e-19)
(-2.60843692205 -0.11503392134 1.45785587275e-19)
(-2.41950354592 -0.110601426675 1.65491001681e-19)
(-2.2374219073 -0.106046164059 0)
(-2.06222895788 -0.101422256694 0)
(-1.89453808319 -0.0965191754514 0)
(-1.73469760193 -0.0912523432332 2.63206320714e-19)
(-1.5818411911 -0.0858215555266 0)
(-1.4349847457 -0.080486295929 0)
(-1.29441784135 -0.0752842647157 3.68877984121e-19)
(-1.1611051454 -0.0703187821889 0)
(-1.03501987564 -0.0657670091519 -4.66886479137e-19)
(-0.914527050708 -0.0616208161618 0)
(-0.797743247352 -0.0581523204296 6.04750586464e-19)
(-0.684493833099 -0.0559595978889 0)
(-0.577562772425 -0.0545314902913 0)
(-0.478196878099 -0.053311466915 0)
(-0.382695146937 -0.0527097200027 1.15864951611e-18)
(-0.289966524459 -0.0524105919284 0)
(-0.20260494378 -0.0512680188521 1.91183868911e-18)
(-0.123050926117 -0.0486426921789 2.77970105285e-18)
(-0.0499578656264 -0.043442282802 0)
(0.0187560706608 -0.0309235475088 0)
(0.0702907892565 -0.0214371771447 0)
(0.132215339429 -0.0160547052607 2.3644318648e-18)
(0.191351915647 -0.0130034369657 0)
(0.244602786242 -0.0110359686197 0)
(0.292428643635 -0.00958835307502 1.53343734816e-18)
(0.335878950417 -0.0084258660064 1.38874935228e-18)
(0.375892220494 -0.00744446689045 0)
(0.413197932864 -0.00660547592851 -1.18075223257e-18)
(0.44836023515 -0.00588868939571 -1.10277931531e-18)
(0.481816907366 -0.00528873704391 1.03639795471e-18)
(0.513923350655 -0.00479719540758 0)
(0.544972977382 -0.00441005158365 0)
(0.575220883454 -0.00411724800008 0)
(0.604884763433 -0.00391150968984 -8.43200462279e-19)
(0.634150990364 -0.00378209906435 0)
(0.663172421062 -0.00372206647539 -7.73166376734e-19)
(0.6920857155 -0.00372111713751 0)
(0.721013289963 -0.00377246504756 0)
(0.750073831213 -0.00386473174022 0)
(0.779368875695 -0.00399048569635 6.6265986748e-19)
(0.808984515336 -0.00413907549896 6.39479583201e-19)
(0.838981597582 -0.00430430191415 0)
(0.869404368478 -0.00447722859453 0)
(0.900276408228 -0.00465292867863 0)
(0.93161013298 -0.00482383804728 0)
(0.963402715143 -0.0049859115425 0)
(0.995643320278 -0.00513266838556 0)
(1.02830884826 -0.00526074575291 1.02153059808e-18)
(1.06136934795 -0.00536464494188 0)
(1.09478439253 -0.00544162100026 0)
(1.12850677451 -0.00548718386036 0)
(1.16248083549 -0.00549909524861 -9.14265640146e-19)
(1.19664549765 -0.00547362972269 -8.91045650278e-19)
(1.23093256273 -0.00540879760834 8.69137146044e-19)
(1.26526503216 -0.00530236134064 8.48484616728e-19)
(1.2995568127 -0.00515349427489 0)
(1.33371491593 -0.00496183324986 0)
(1.36764367616 -0.00472797592083 0)
(1.40124834588 -0.00445230535493 7.77454736119e-19)
(1.43443398514 -0.00413728776128 0)
(1.46710306524 -0.00378356961461 0)
(1.49915898561 -0.00338843624255 -7.35134314729e-19)
(1.53050765445 -0.00295090279947 0)
(1.56105476783 -0.00247435609291 -7.11566552782e-19)
(1.59070515113 -0.00196388854659 0)
(1.61936586534 -0.00142541689962 -6.91395854745e-19)
(1.64694880656 -0.000864648116922 0)
(1.67337291197 -0.000287470105813 0)
(1.69856487473 0.000300414573512 0)
(1.72246064672 0.000892478758246 0)
(1.74500579532 0.00148160479169 0)
(1.76615534494 0.00206055495796 0)
(1.78587196658 0.00262266439043 0)
(1.80412537777 0.00316154743816 0)
(1.82089063864 0.00367162730737 -6.35907889408e-19)
(1.83614782387 0.00414777771149 0)
(1.84987613051 0.00458259720716 0)
(1.86205139079 0.00497093156798 -6.27855554992e-19)
(1.87264941187 0.00530976730807 0)
(1.88164789054 0.00558995346359 0)
(1.88903224329 0.00579711923351 -6.24093893947e-19)
(1.89483357339 0.00591487438746 0)
(1.89918363101 0.00593506545491 0)
(1.9024880673 0.00589955320882 -6.23627405096e-19)
(1.90432292573 0.00589241683655 6.24141099947e-19)
(1.90416174858 0.00599122394823 -6.25305506697e-19)
(1.90126610234 0.00629266900795 0)
(1.89459221769 0.00691198507925 0)
(1.88266521112 0.00798429985087 -1.2712422116e-18)
(1.86339540304 0.00969991148408 0)
(1.8334748058 0.01237744757 1.30822352922e-18)
(1.79308977437 0.0164623977651 1.34112322871e-18)
(1.64798890563 0.0235888099268 0)
(-0.0495898187261 0.0640398026099 -2.39696823875e-19)
(-0.142374505212 0.175388495245 0)
(-0.23168956355 0.239939586887 6.10450614687e-20)
(-0.331459211414 0.288259988715 -4.75430105661e-20)
(-0.436352241808 0.321030604447 -3.96025336699e-20)
(-0.548615504385 0.34404601584 1.68781928546e-20)
(-0.667413483358 0.36059351946 3.05966151674e-20)
(-0.791214385326 0.372409573814 0)
(-0.918802110126 0.380544117033 -1.2768738093e-20)
(-1.04915414757 0.3857171364 2.49657413937e-20)
(-1.18141223201 0.388461187323 3.59092759759e-20)
(-1.31486544595 0.389194375486 -2.36869092683e-20)
(-1.44891463231 0.388259680214 3.48735997988e-20)
(-1.58306314681 0.38594659107 1.14043862574e-20)
(-1.71689449508 0.382504564902 0)
(-1.85006864179 0.378150383721 -1.16218981987e-20)
(-1.98230642462 0.373074168686 -1.18139055049e-20)
(-2.1133879992 0.367442339494 -1.20471178035e-20)
(-2.24314071218 0.361401384842 2.51577555215e-20)
(-2.37143818983 0.355079144581 0)
(-2.49819088707 0.348587860559 2.63281416831e-20)
(-2.62334603775 0.342025015741 0)
(-2.74687996152 0.33547608026 -2.76414624238e-20)
(-2.86879800737 0.329014836113 0)
(-2.98912880327 0.322705990241 4.33773482608e-20)
(-3.10792540999 0.316605194975 -1.50752025748e-20)
(-3.22526069176 0.310761301421 -3.05191811471e-20)
(-3.34122778474 0.30521598904 -4.67381964208e-20)
(-3.45593608761 0.300005472772 -1.58561525945e-20)
(-3.5695123689 0.295159179499 -1.62464520264e-20)
(-3.68209685697 0.290700615841 0)
(-3.79384265853 0.286645247522 -3.43335264131e-20)
(-3.90491065273 0.283000441431 1.74223489929e-20)
(-4.01546738361 0.279762058301 0)
(-4.12567775696 0.276913670869 0)
(-4.23569959233 0.274422804663 1.8588566442e-20)
(-4.34567322702 0.272239944031 0)
(-4.45571289665 0.270294641042 0)
(-4.56589304581 0.268495585368 0)
(-4.67623644941 0.266728437486 0)
(-4.78670014134 0.264858158735 0)
(-4.8971659127 0.262728674859 4.21019207775e-20)
(-5.00742780118 0.260167867355 8.50576781727e-20)
(-5.11718231926 0.25699113356 0)
(-5.22602147296 0.253011474434 4.41377507071e-20)
(-5.33342957343 0.248048009121 -4.41196404424e-20)
(-5.43880277985 0.2419381003 0)
(-5.54147401241 0.234536069917 0)
(-5.64072259372 0.225712976543 -1.37807412901e-19)
(-5.73576109149 0.215359859162 -9.30474840768e-20)
(-5.82573978793 0.203413326383 4.64945674357e-20)
(-5.9097729423 0.189854029973 9.4567597171e-20)
(-5.98701032144 0.174699950869 4.8057230328e-20)
(-6.0566615138 0.157993037491 0)
(-6.11801081868 0.139779569406 -1.43278805844e-19)
(-6.1704863401 0.120103426387 -4.74396954379e-20)
(-6.21330180585 0.0990077800555 0)
(-6.24569440885 0.0765780560144 9.56233684243e-20)
(-6.26679356763 0.0529521369468 -9.50639418207e-20)
(-6.27568236123 0.0283004548432 -4.64145768208e-20)
(-6.27166593691 0.00277990522347 0)
(-6.25512247689 -0.0234366681278 0)
(-6.22531922216 -0.0503036053422 0)
(-6.18154736908 -0.0777921135448 8.43614372779e-20)
(-6.12305709244 -0.105832877364 0)
(-6.04913394498 -0.134281652178 -7.64238338486e-20)
(-5.95918096178 -0.162898132497 0)
(-5.85280501438 -0.191338969335 -3.38494259258e-20)
(-5.72989281072 -0.219170686607 0)
(-5.59067078159 -0.24589440723 -2.73447841075e-20)