/*--------------------------------*- C++ -*----------------------------------*\
| =========                 |                                                 |
| \\      /  F ield         | OpenFOAM: The Open Source CFD Toolbox           |
|  \\    /   O peration     | Version:  v1806                                 |
|   \\  /    A nd           | Web:      www.OpenFOAM.com                      |
|    \\/     M anipulation  |                                                 |
\*---------------------------------------------------------------------------*/
FoamFile
{
    version     2.0;
    format      ascii;
    class       volVectorField;
    location    "5";
    object      Ua;
}
// * * * * * * * * * * * * * * * * * * * * * * * * * * * * * * * * * * * * * //

dimensions      [0 1 -1 0 0 0 0];


internalField   nonuniform List<vector> 
12225
(
(-0.622547558657 38.5940833184 0)
(0.579390126193 8.33185358492 0)
(0.438736646861 7.31437869066 0)
(0.394604382983 6.47839986915 0)
(0.398706284731 5.80250594629 0)
(0.408588741132 5.34298948973 0)
(0.431529973855 5.07439062817 0)
(0.47588154445 5.02616954838 0)
(0.544867877749 5.21568623734 0)
(0.63223375816 5.64625397965 0)
(0.735969030413 6.24567273897 0)
(0.850667206061 6.89475346064 0)
(0.982186180105 7.42236042189 0)
(1.16669062495 7.76069108929 0)
(1.44029587257 7.80721432458 0)
(1.79116232115 7.24171750133 0)
(2.22386914152 5.60844845193 0)
(2.46984222859 2.43234493681 0)
(2.19694668635 -32.1142969091 0)
(1.1216279074 -7.70461529827 0)
(0.873240259786 -6.98607155173 0)
(0.914544606521 -6.26583044709 0)
(0.879539532743 -5.66266058926 0)
(0.884820184663 -5.13285919185 0)
(0.890841503927 -4.69520577017 0)
(0.908940914925 -4.35086204767 0)
(0.936229926594 -4.11500943177 0)
(0.973530816225 -3.99351027622 0)
(1.03005525563 -3.94871869623 0)
(1.10876966149 -3.93182833439 0)
(1.21383944255 -3.88427758452 0)
(1.36021023551 -3.75719071815 0)
(1.56213079877 -3.54455992636 0)
(1.80435460182 -3.24367001178 0)
(2.04088651787 -2.81119664584 0)
(2.01095599438 -2.393836447 0)
(0.49080835305 14.3931520227 0)
(0.670061286002 4.04748052452 0)
(0.803013841336 3.9256615612 0)
(0.741843385151 3.50706115098 0)
(0.723064007609 3.15607242888 0)
(0.710545310229 2.79053841427 0)
(0.702232405938 2.4184205002 0)
(0.704703113266 2.05032622131 0)
(0.717086597563 1.68574230376 0)
(0.744502250329 1.33921039075 0)
(0.793201462594 1.02365018136 0)
(0.867849744716 0.738786632225 0)
(0.971177709693 0.485528770088 0)
(1.1063268677 0.256243595894 0)
(1.2782525936 0.0167337519748 0)
(1.47068624335 -0.265742147485 0)
(1.62367822255 -0.631630463855 0)
(1.55159598003 -1.15235870674 0)
(0.97499764048 -3.10802772321 0)
(0.954088544168 -0.825894683304 0)
(0.882330753055 -0.944353316439 0)
(0.873950984674 -0.821678359719 0)
(0.845152019511 -0.767873475463 0)
(0.835847031861 -0.708614263068 0)
(0.827756704784 -0.657779388223 0)
(0.830163919466 -0.606892386612 0)
(0.840823682278 -0.555282415213 0)
(0.864629460963 -0.499348359564 0)
(0.904553191337 -0.438639840368 0)
(0.963679727453 -0.382348046467 0)
(1.04417445257 -0.340034368959 0)
(1.14641078728 -0.325017486695 0)
(1.27020573839 -0.359183993833 0)
(1.39603377516 -0.47248609677 0)
(1.46454624764 -0.696913934726 0)
(1.3617933386 -1.03786987083 0)
(0.931125624793 0.770283806265 0)
(0.954805507286 0.278588952834 0)
(0.913119125443 0.201152696279 0)
(0.909310186135 0.137638271305 0)
(0.888943826842 0.0690047126284 0)
(0.88713433374 0.0103052641748 0)
(0.88484711336 -0.0462302423719 0)
(0.89201438858 -0.0966461259535 0)
(0.905689645647 -0.140893958476 0)
(0.930474322758 -0.177412673458 0)
(0.967559818837 -0.20653517672 0)
(1.01923174581 -0.233920837736 0)
(1.08685471009 -0.265145025005 0)
(1.16894268533 -0.31064870311 0)
(1.26078133972 -0.385965715783 0)
(1.34047813702 -0.51383880986 0)
(1.3593724562 -0.710488412145 0)
(1.25726391827 -0.948293534755 0)
(0.97677314771 0.172330727703 0)
(1.00518660606 0.122596455656 0)
(0.955805589507 0.0728503131717 0)
(0.961139393683 0.0576773157992 0)
(0.943553970913 0.0281176540321 0)
(0.945449414324 0.00190518912317 0)
(0.944984129685 -0.0281814257628 0)
(0.953094945325 -0.0594104270404 0)
(0.966158073777 -0.0915468777365 0)
(0.988428730222 -0.123843329479 0)
(1.02009494056 -0.156702025632 0)
(1.06302618134 -0.193642750232 0)
(1.11755228016 -0.238316155209 0)
(1.18054154907 -0.298618034713 0)
(1.24466322637 -0.385445907045 0)
(1.28930195112 -0.511740990679 0)
(1.28002286281 -0.678312385957 0)
(1.18923178115 -0.848827409394 0)
(1.00627565304 0.21549446936 0)
(1.03530933732 0.132317979756 0)
(0.989432452239 0.0918333885228 0)
(1.00160223014 0.0723203379248 0)
(0.98731096432 0.0444109995897 0)
(0.992814942785 0.0194516046864 0)
(0.994187102429 -0.00831075296661 0)
(1.00312862967 -0.0375990333755 0)
(1.0154649518 -0.0687261214186 0)
(1.03510978729 -0.101715686843 0)
(1.0616213522 -0.137434312952 0)
(1.09640792077 -0.178778230987 0)
(1.1387670269 -0.229009115748 0)
(1.18453819201 -0.294292612451 0)
(1.22555977837 -0.381817087891 0)
(1.24474720695 -0.497138223447 0)
(1.22034943009 -0.633206661487 0)
(1.14223043193 -0.758651037806 0)
(1.0289291383 0.198295400041 0)
(1.05707176794 0.130753346304 0)
(1.01601343623 0.097119473004 0)
(1.03354010322 0.0777757064657 0)
(1.02200560125 0.052666348513 0)
(1.03037313002 0.0290542246256 0)
(1.03316750164 0.00277201208776 0)
(1.04262605218 -0.0256902636181 0)
(1.05414283233 -0.0566969627134 0)
(1.07134585522 -0.0905554171192 0)
(1.09322597417 -0.128157646296 0)
(1.12071247019 -0.171936528711 0)
(1.15227046767 -0.224613327336 0)
(1.18325435713 -0.290637249629 0)
(1.20598768522 -0.373979822034 0)
(1.20763738733 -0.475316561012 0)
(1.1760265781 -0.585018676972 0)
(1.10892272645 -0.680393754788 0)
(1.04431116894 0.178082918324 0)
(1.0717623452 0.127302111126 0)
(1.03614496108 0.0974019920995 0)
(1.05800721464 0.0782172868164 0)
(1.04880058785 0.0549079053873 0)
(1.05943691212 0.0321430368867 0)
(1.06328363797 0.00681029437948 0)
(1.07296266894 -0.0211273882145 0)
(1.08356009186 -0.0520091239889 0)
(1.0984190147 -0.0862581323824 0)
(1.11610882315 -0.12475339057 0)
(1.1370717756 -0.169483330447 0)
(1.15921258492 -0.222558686512 0)
(1.17799481795 -0.286740525526 0)
(1.18695947652 -0.363456263418 0)
(1.17727619443 -0.450633673995 0)
(1.14286649944 -0.539081814584 0)
(1.08497805166 -0.613737924457 0)
(1.05276380583 0.174168256835 0)
(1.08139062866 0.131696791095 0)
(1.05027991415 0.102214972361 0)
(1.07602239959 0.0830369956703 0)
(1.06884336959 0.0600084520757 0)
(1.08135888838 0.0369890053791 0)
(1.08599632433 0.0114620428532 0)
(1.09569016846 -0.016725101183 0)
(1.10531718377 -0.0479151489974 0)
(1.11795636192 -0.0825646730541 0)
(1.13178744262 -0.121561950379 0)
(1.14687907035 -0.166427750094 0)
(1.16095381 -0.218535541459 0)
(1.16999541339 -0.279213438844 0)
(1.16903975807 -0.348259374252 0)
(1.15240291041 -0.422446646542 0)
(1.11784465224 -0.494217501224 0)
(1.06750116457 -0.553986434329 0)
(1.05422308517 0.169402424343 0)
(1.08720228576 0.143709847075 0)
(1.05745044364 0.109153362087 0)
(1.08700077194 0.0927968940736 0)
(1.08140595852 0.0692382098737 0)
(1.09558487276 0.0459062227778 0)
(1.10096407394 0.0198248501477 0)
(1.11073173549 -0.00882247948789 0)
(1.11951872612 -0.0406656668737 0)
(1.13011457228 -0.0760882275777 0)
(1.14045736308 -0.115689637171 0)
(1.15047534782 -0.160406300591 0)
(1.15796717047 -0.210866847515 0)
(1.15959330062 -0.267582583941 0)
(1.15181182231 -0.329315241465 0)
(1.13133475337 -0.392691426297 0)
(1.09785559697 -0.451877881817 0)
(1.05377202628 -0.500834849845 0)
(1.03390115568 0.142540137743 0)
(1.09161168194 0.137416348342 0)
(1.0540732659 0.102003920526 0)
(1.08843402638 0.0887443493292 0)
(1.08281681866 0.0669400679304 0)
(1.09826678274 0.0453155203683 0)
(1.10396148564 0.0206486475797 0)
(1.11352228982 -0.00668497935441 0)
(1.12128147087 -0.0372368554617 0)
(1.13006815826 -0.0714002747891 0)
(1.137658187 -0.109650236599 0)
(1.14390375865 -0.152387891431 0)
(1.14668831599 -0.200026082299 0)
(1.14340328994 -0.252182451752 0)
(1.13172450421 -0.307339824949 0)
(1.10976756855 -0.362280858561 0)
(1.07833679206 -0.412608227916 0)
(1.0394026443 -0.454258890689 0)
(1.00931355941 0.130270690155 0)
(1.09010523701 0.127984204855 0)
(1.04608711155 0.0954435241284 0)
(1.08420530564 0.0822771535388 0)
(1.07851958305 0.0614805205121 0)
(1.09456718358 0.0407112364482 0)
(1.10011984061 0.0170677728341 0)
(1.10929741289 -0.00904185774599 0)
(1.11615514803 -0.0380935874412 0)
(1.12329053182 -0.0704724497774 0)
(1.12848491391 -0.106499874586 0)
(1.13152844672 -0.146395720051 0)
(1.13069799621 -0.190245248896 0)
(1.1240454938 -0.237256970445 0)
(1.1100513361 -0.285831884834 0)
(1.08793308064 -0.333261985828 0)
(1.05883395054 -0.376200612822 0)
(1.02439423101 -0.412011109536 0)
(0.98211784296 0.113473262184 0)
(1.08840193944 0.122171688241 0)
(1.03540230331 0.0890959585846 0)
(1.077335521 0.0763094072711 0)
(1.07060798101 0.0549741193985 0)
(1.08693935582 0.0338206155793 0)
(1.09190654211 0.0100776484537 0)
(1.10015425695 -0.0158142557756 0)
(1.1054464081 -0.0442498855401 0)
(1.11055760052 -0.0755206874451 0)
(1.11317530333 -0.109570171723 0)
(1.11314997963 -0.146587953053 0)
(1.10909641678 -0.18610189359 0)
(1.09975671313 -0.227526800603 0)
(1.08438260255 -0.269172937017 0)
(1.06284178604 -0.309036539568 0)
(1.03652842111 -0.344751081025 0)
(1.0067081193 -0.374508323684 0)
(0.949001798865 0.0934412844075 0)
(1.0862701623 0.107023535034 0)
(1.02199844369 0.0755567514079 0)
(1.06874696123 0.0631486363218 0)
(1.06056325551 0.042401795835 0)
(1.07716806108 0.0218568138586 0)
(1.08142568695 -0.00114421605431 0)
(1.08875916241 -0.0259229411176 0)
(1.09263250903 -0.0527842983033 0)
(1.09582294593 -0.0816958636051 0)
(1.09601111294 -0.112775168348 0)
(1.09325778575 -0.14566475297 0)
(1.08658529971 -0.180095335191 0)
(1.07529221135 -0.215133788411 0)
(1.05926705069 -0.249630902549 0)
(1.03877400135 -0.281983582999 0)
(1.01531278188 -0.310752476312 0)
(0.989629851967 -0.33479054128 0)
(0.916329377786 0.0789900679317 0)
(1.08300581733 0.0899838846762 0)
(1.00663867725 0.0628578055115 0)
(1.0578882076 0.0508895750312 0)
(1.04785080122 0.0314771287349 0)
(1.06452527531 0.0121400660107 0)
(1.06791105203 -0.00945504353423 0)
(1.07424566863 -0.0325704572125 0)
(1.0767204061 -0.057439272195 0)
(1.07814059903 -0.0838804130594 0)
(1.07636386418 -0.111794777951 0)
(1.07157528129 -0.140667290071 0)
(1.06318644803 -0.170101233787 0)
(1.05101297138 -0.199273012825 0)
(1.0352198827 -0.227286212433 0)
(1.01634402138 -0.253097530854 0)
(0.99571273009 -0.275800423301 0)
(0.973872203491 -0.294873486392 0)
(0.889917020543 0.0788294516437 0)
(1.07877126047 0.0693901299706 0)
(0.990829377797 0.047175137954 0)
(1.04572850638 0.0359097830144 0)
(1.03341214007 0.0187312098608 0)
(1.04980426847 0.00141526643357 0)
(1.05194997361 -0.0177480909571 0)
(1.05703646703 -0.0382580958414 0)
(1.05795111393 -0.0600741954598 0)
(1.05772755517 -0.0831263472148 0)
(1.05430172337 -0.107011285599 0)
(1.04811363593 -0.131358756934 0)
(1.03889014537 -0.15553001271 0)
(1.0266977566 -0.179062092374 0)
(1.01187758722 -0.201172684492 0)
(0.994993000296 -0.221304369054 0)
(0.977144315614 -0.238849115722 0)
(0.958748205281 -0.253616222058 0)
(0.864447942293 0.0771616519161 0)
(1.07363547309 0.0467714148591 0)
(0.975387950625 0.0303193202231 0)
(1.03296918127 0.0198870494473 0)
(1.01829945323 0.00547919459034 0)
(1.03408132184 -0.00927079333068 0)
(1.034834629 -0.0255352639052 0)
(1.03862375795 -0.0428116186706 0)
(1.03807989179 -0.0610757235634 0)
(1.03642678456 -0.0801034856112 0)
(1.03177548864 -0.0996033340225 0)
(1.024773114 -0.119072241224 0)
(1.01532641701 -0.138110514363 0)
(1.00363944698 -0.156302944397 0)
(0.990080511322 -0.173187367148 0)
(0.975162204364 -0.188378146759 0)
(0.959790663123 -0.20156673854 0)
(0.944191070032 -0.212619215023 0)
(0.853561858919 0.108055315662 0)
(1.06871864139 0.0191895275041 0)
(0.96606735583 0.0128275997045 0)
(1.02377596759 0.00232181882524 0)
(1.00679383385 -0.0082336194904 0)
(1.02116592773 -0.0199545511638 0)
(1.02009753355 -0.0325102602754 0)
(1.02226699745 -0.045897175603 0)
(1.02015446174 -0.0598817479539 0)
(1.0171627081 -0.0743421370662 0)
(1.01153389536 -0.0889434718638 0)
(1.00405052131 -0.103351245254 0)
(0.994704108883 -0.117236152304 0)
(0.983757258997 -0.13038305563 0)
(0.971531166758 -0.142462480261 0)
(0.958452777983 -0.153274525678 0)
(0.945264167791 -0.16263419123 0)
(0.932102680524 -0.170480712984 0)
(0.889459032462 0.135999074448 0)
(1.06547581985 -0.00138537743104 0)
(0.973776174563 -0.000541247617296 0)
(1.024958176 -0.0106459730058 0)
(1.00754287384 -0.0180402045339 0)
(1.01949637165 -0.0269557526236 0)
(1.01672573873 -0.0363617336205 0)
(1.0171729701 -0.046261562019 0)
(1.01358577353 -0.0566681519936 0)
(1.00936360493 -0.0672578543474 0)
(1.00284066543 -0.077940289992 0)
(0.994807148426 -0.0883198240647 0)
(0.985281236836 -0.098322428524 0)
(0.974519167389 -0.107676806037 0)
(0.962839738881 -0.116293615521 0)
(0.950565323756 -0.123951139413 0)
(0.938388620063 -0.13063113617 0)
(0.926324951954 -0.13622467464 0)
(0.917356916967 0.139246010339 0)
(1.06531002259 -0.00956874074819 0)
(0.983704082056 -0.00762042230131 0)
(1.03005052108 -0.0162777298957 0)
(1.01250901937 -0.0219034855676 0)
(1.02261183792 -0.028781684853 0)
(1.01860872929 -0.0360014589461 0)
(1.01780461283 -0.0435822942984 0)
(1.01312516799 -0.0515422519275 0)
(1.00806207844 -0.0595669989628 0)
(1.00091756823 -0.0676549569466 0)
(0.992515586996 -0.0754398766563 0)
(0.982872848989 -0.0829051347637 0)
(0.972245902211 -0.0898008787471 0)
(0.96089895014 -0.0961300070426 0)
(0.949144793976 -0.101689046945 0)
(0.937609854834 -0.106526114184 0)
(0.92620897247 -0.110600837861 0)
(0.938976777712 0.152004338136 0)
(1.0665053791 -0.0161257316786 0)
(0.993463258367 -0.0122410326501 0)
(1.03581547724 -0.0195984016703 0)
(1.01842293418 -0.023515212089 0)
(1.02717506926 -0.0287291433056 0)
(1.02222368247 -0.0341361829166 0)
(1.0204890495 -0.0399688570225 0)
(1.01509927613 -0.0459616899339 0)
(1.00944000023 -0.0521476479175 0)
(1.00189870543 -0.0582176957416 0)
(0.993309333363 -0.0641188667139 0)
(0.983682244572 -0.0696013843938 0)
(0.973217543513 -0.0747487633383 0)
(0.962185015522 -0.0792638770171 0)
(0.950857357804 -0.0832833356963 0)
(0.939739044501 -0.0866926976918 0)
(0.928878226419 -0.0896249961881 0)
(0.966060478921 0.147381928313 0)
(1.06920902259 -0.0218714699969 0)
(1.00461361189 -0.0142640451808 0)
(1.0431266492 -0.0204113336354 0)
(1.02591347921 -0.0223315998175 0)
(1.03336558843 -0.0259242805782 0)
(1.02757545609 -0.0297499015396 0)
(1.02511601292 -0.0340147321945 0)
(1.01907352086 -0.0385922427683 0)
(1.01298952956 -0.0432973800493 0)
(1.00523029823 -0.0479903691373 0)
(0.996599011611 -0.0524776674891 0)
(0.987005170686 -0.056675822425 0)
(0.976790602731 -0.06042640047 0)
(0.966104269534 -0.0636945929923 0)
(0.955088989387 -0.0664557821854 0)
(0.944354841029 -0.06875156526 0)
(0.933729759827 -0.0707176291641 0)
(0.994178374698 0.117437379324 0)
(1.07174293381 -0.037179502988 0)
(1.01653721404 -0.0246082102499 0)
(1.05097414124 -0.0295068655346 0)
(1.03421171791 -0.028864416701 0)
(1.04041300204 -0.030920479859 0)
(1.03395371171 -0.0332960831063 0)
(1.03075035009 -0.0362449009786 0)
(1.02422375566 -0.0395555650474 0)
(1.01779115652 -0.0430928840982 0)
(1.00984096237 -0.0466933651065 0)
(1.00118171234 -0.0500821488686 0)
(0.991828059872 -0.0531957661055 0)
(0.981928518539 -0.0558844985524 0)
(0.971603381464 -0.0580811209344 0)
(0.961040237239 -0.0596660125906 0)
(0.950586543569 -0.0608826109868 0)
(0.940246783047 -0.0618041360578 0)
(1.02390936462 0.249513197598 0)
(1.07588514781 0.0256412541798 0)
(1.02914104605 0.0470374237447 0)
(1.05943778215 0.0380890231576 0)
(1.04303356254 0.0389071075672 0)
(1.04762570352 0.0357470619956 0)
(1.04046143341 0.0330039426209 0)
(1.03666436378 0.0298236718576 0)
(1.02961830682 0.0264937886871 0)
(1.02282053477 0.0229039290228 0)
(1.01473432685 0.01923472553 0)
(1.00614108439 0.01554851155 0)
(0.996915032774 0.0119455880997 0)
(0.987332259907 0.00863685222894 0)
(0.977526682062 0.00584336841535 0)
(0.967342428556 0.003594079078 0)
(0.957186170963 0.00173217430824 0)
(0.946247093892 0.000113326272102 0)
(1.0248783523 -0.844251265847 0)
(1.06170279651 -0.451055635718 0)
(1.04492497075 -0.425235423228 0)
(1.06785945804 -0.40879177149 0)
(1.05330624586 -0.388010969435 0)
(1.05672014577 -0.375839507107 0)
(1.04963595209 -0.364582897221 0)
(1.04562276417 -0.355800403502 0)
(1.03849328731 -0.348537607038 0)
(1.03163309383 -0.34266519587 0)
(1.02373895063 -0.337876062841 0)
(1.01543702401 -0.333074805211 0)
(1.00670782785 -0.327846934908 0)
(0.997894498657 -0.322206785115 0)
(0.98910599212 -0.315738695743 0)
(0.98021936234 -0.307964069913 0)
(0.971516885702 -0.298677570567 0)
(0.964485764225 -0.288936523998 0)
(1.20884008973 4.73756507008 0)
(1.12424230333 1.66334177156 0)
(1.05591753053 1.77291137348 0)
(1.08261633326 1.65463518294 0)
(1.06350883708 1.59547072458 0)
(1.06265768627 1.52524745344 0)
(1.05301081231 1.46289727278 0)
(1.04628752302 1.4049092285 0)
(1.0367500414 1.35202975905 0)
(1.02752241952 1.30361768786 0)
(1.01717984595 1.2593908305 0)
(1.00713671568 1.21762489893 0)
(0.997103752787 1.17791656202 0)
(0.987053944692 1.14104873639 0)
(0.977169556159 1.10650978933 0)
(0.967244457812 1.07289072729 0)
(0.956368518731 1.03840057909 0)
(0.938532696293 1.00257916102 0)
(0.505799130787 -16.9667293092 0)
(0.850716216422 -5.60734377527 0)
(1.11971633972 -5.45101422693 0)
(1.07655757868 -5.1466735821 0)
(1.07770642392 -4.90444340515 0)
(1.07737955811 -4.67212849449 0)
(1.07406623137 -4.45140316918 0)
(1.07366041603 -4.24612181973 0)
(1.07128524376 -4.05394505087 0)
(1.06991650368 -3.8761252369 0)
(1.06907026098 -3.71071426616 0)
(1.06752316155 -3.55326620364 0)
(1.0653190643 -3.40563946392 0)
(1.06345711018 -3.26987969315 0)
(1.06155919953 -3.14467314965 0)
(1.05836018207 -3.02682087247 0)
(1.05454068958 -2.91323964209 0)
(1.05326042486 -2.80385336252 0)
(2.98510076906 36.5075256188 0)
(1.34876337411 10.6653813015 0)
(1.14173626704 10.2902635878 0)
(1.19047447195 9.73716042799 0)
(1.1510866467 9.28199038227 0)
(1.14425371122 8.8331033212 0)
(1.12596886715 8.40874738867 0)
(1.10857432064 8.00930289611 0)
(1.08725839338 7.62916503699 0)
(1.06511398606 7.26897292051 0)
(1.04331716006 6.92444079617 0)
(1.02336169425 6.59205795443 0)
(1.00208956105 6.27444684838 0)
(0.980580314653 5.97093418412 0)
(0.961875899499 5.68085181143 0)
(0.947719954551 5.40400268189 0)
(0.936725262218 5.14443346578 0)
(0.935604882171 4.91141105335 0)
(0.167152913386 -43.7111502098 0)
(0.955843238373 -12.6104131009 0)
(1.01435566497 -12.1351808845 0)
(0.954774257624 -11.5430538645 0)
(0.974591491555 -10.9862510664 0)
(0.976341428467 -10.4764048951 0)
(0.981054291256 -9.97776654732 0)
(0.987949818543 -9.51385074815 0)
(0.991834377274 -9.06708071772 0)
(0.995406605769 -8.64598542075 0)
(0.99365946095 -8.24654686537 0)
(0.988467402761 -7.86638729932 0)
(0.982716026708 -7.50355840019 0)
(0.975517942939 -7.15489608319 0)
(0.964826151901 -6.8170508373 0)
(0.95143131401 -6.48317260347 0)
(0.94040790468 -6.14255736069 0)
(0.924884565431 -5.77729160855 0)
(0.0987421314722 -0.0840630560375 -1.82605087139e-20)
(0.015070036655 -0.0208450281048 0)
(-0.0257919881689 0.0272882236936 0)
(-0.0491350892047 0.0220092343278 0)
(-0.0671675876517 0.00454527186982 0)
(-0.0795209957276 -0.0150942805444 1.59980789182e-21)
(-0.0843306537989 -0.0340723665808 0)
(-0.082309446195 -0.0521942821266 0)
(-0.0748695906704 -0.0696435431207 -9.1095824652e-22)
(-0.0634758183387 -0.0871012786872 0)
(-0.0492868153829 -0.105002169343 6.15296152608e-22)
(-0.0332383634218 -0.123880308762 0)
(-0.0160298910739 -0.143897980514 3.0718985651e-22)
(0.00185116243655 -0.165295345932 1.46388827763e-22)
(0.0200277500174 -0.188013502251 0)
(0.0382598901291 -0.212090845709 1.64458533227e-22)
(0.0563345206154 -0.237342064743 3.10692721003e-22)
(0.0741485219095 -0.263692642479 4.54001999512e-22)
(0.0915773801149 -0.29089435867 0)
(0.108555418255 -0.318808612793 0)
(0.124971345329 -0.34714245876 0)
(0.140819604046 -0.375743566038 0)
(0.156003755122 -0.404337441313 0)
(0.170506750777 -0.432748936684 0)
(0.184282633451 -0.46075303808 -1.11659998731e-21)
(0.197335193377 -0.488245426044 -1.16147038443e-21)
(0.209647985138 -0.515082367156 0)
(0.221259045777 -0.541221434109 1.2190680235e-21)
(0.232193133169 -0.566600102039 1.23489712111e-21)
(0.242486322481 -0.591230524393 1.24567227909e-21)
(0.252179116549 -0.615104849302 0)
(0.261330781719 -0.638281498517 0)
(0.269986166299 -0.660787811342 -1.25161664052e-21)
(0.278176366644 -0.682692048084 0)
(0.28594883605 -0.704031486447 0)
(0.293359716196 -0.724903389679 -1.2428339826e-21)
(0.300429916801 -0.745338430925 0)
(0.307195789616 -0.765405825774 0)
(0.313685604165 -0.785136112397 0)
(0.31993081761 -0.804596318194 0)
(0.32595418206 -0.823813879593 0)
(0.331782176181 -0.842850921927 2.44676147487e-21)
(0.33743337931 -0.861735410304 0)
(0.342927147137 -0.880525662487 0)
(0.348276033092 -0.899248622911 2.43544015999e-21)
(0.353493330006 -0.917956925574 2.43282042855e-21)
(0.358587911747 -0.936675631102 0)
(0.363571209656 -0.955452228503 0)
(0.368448271924 -0.97430304043 2.42289279113e-21)
(0.373243100326 -0.993277995366 0)
(0.377982521286 -1.01242571007 -2.41456721617e-21)
(0.382704515296 -1.0318844407 0)
(0.387442891651 -1.05183233175 2.40630832101e-21)
(0.392210092934 -1.07245133962 0)
(0.397008902973 -1.09385920931 2.40461669478e-21)
(0.40182123555 -1.11612215381 2.4072704772e-21)
(0.406618340933 -1.13922877495 0)
(0.411346080715 -1.16311013687 0)
(0.41590856858 -1.18767925133 0)
(0.420184865683 -1.21281055121 2.42978539092e-21)
(0.424266747487 -1.23676265579 0)
(0.428331296578 -1.25853608801 0)
(0.432408028381 -1.27864277409 0)
(0.436475140994 -1.29749190608 0)
(0.440499706899 -1.31531500242 0)
(0.444455945737 -1.3322765258 0)
(0.448335510871 -1.34846570084 0)
(0.452137531777 -1.36397066908 -2.46843368989e-21)
(0.455876895969 -1.37884766935 0)
(0.459571567606 -1.393183677 -2.55374859301e-21)
(0.463241813559 -1.40704449115 -2.61832792046e-21)
(0.466908092207 -1.42054232001 0)
(0.470596714735 -1.43376924597 2.80313426929e-21)
(0.47431021135 -1.44685945789 0)
(0.478051738775 -1.45990967763 -3.07709885377e-21)
(0.481827282456 -1.47307783498 0)
(0.485617957726 -1.48645139093 3.46006219135e-21)
(0.48940230875 -1.50017046025 -3.69913813952e-21)
(0.493163232673 -1.51433163654 0)
(0.49686503667 -1.5290960021 0)
(0.50045107563 -1.54452601974 0)
(0.503896078908 -1.56076382533 0)
(0.507126383173 -1.57786240013 -5.47053969263e-21)
(0.510085462766 -1.59597809132 5.95782805235e-21)
(0.512721855119 -1.61516645339 -1.29843105092e-20)
(0.515000916424 -1.63560215256 -1.41526470523e-20)
(0.516978089373 -1.65759167302 -1.54292911076e-20)
(0.518501021046 -1.68158252376 0)
(0.519923124358 -1.70777135412 0)
(0.52216802163 -1.7364466744 0)
(0.524939391252 -1.76792640435 -2.1801708306e-20)
(0.527696661127 -1.80273526651 0)
(0.531517084212 -1.84093399477 0)
(0.538166302244 -1.88269584077 -2.90272293026e-20)
(0.546676008084 -1.93241155676 0)
(0.555767888079 -2.00629454311 3.63996254826e-20)
(0.572553640516 -2.10686147546 0)
(0.608859495465 -2.21748410835 -4.70939651904e-20)
(0.66795357766 -2.34303370936 0)
(0.743082370283 -2.5150446821 0)
(0.802996361427 -2.76332540499 0)
(0.819502062111 -2.86434117863 -9.01439018491e-20)
(0.854743299014 -2.74448485403 0)
(1.00191506367 -2.51052467317 -1.5119767334e-19)
(1.27727037471 -2.22197599509 -2.24624289514e-19)
(1.66702596873 -2.03184899712 0)
(1.19338448757 -2.35891518417 0)
(0.93884930436 -2.29879854418 0)
(0.911281610911 -1.92595266699 -2.11344244557e-19)
(0.85281358986 -1.61477738921 0)
(0.796427757596 -1.37275477992 0)
(0.750034647688 -1.17656835613 -1.50638160887e-19)
(0.712047130935 -1.01053581548 -1.39428809312e-19)
(0.680877967988 -0.865509506445 0)
(0.655087103171 -0.735622172916 1.226965817e-19)
(0.633478260098 -0.617109333124 1.16173064062e-19)
(0.615181181953 -0.507193054721 -1.10478231863e-19)
(0.599574549957 -0.403974641238 0)
(0.586178107317 -0.305933600835 0)
(0.574557664472 -0.211993174245 0)
(0.564313817478 -0.12125905061 9.29585335512e-20)
(0.555187736446 -0.0330114147128 0)
(0.547052531768 0.0533466991152 8.62256246735e-20)
(0.53980666123 0.138226682859 0)
(0.533316167309 0.221910438812 0)
(0.527426507283 0.304522457452 0)
(0.521987631297 0.38617417775 -7.50526819846e-20)
(0.516880571342 0.466931917602 -7.26282824817e-20)
(0.512011845587 0.546873937112 0)
(0.507318228576 0.626045628767 0)
(0.502748537485 0.704485873527 0)
(0.498270717416 0.782202439327 0)
(0.493859865792 0.859183017746 0)
(0.489509218631 0.935387350696 0)
(0.485213175713 1.0107486211 -1.17718659859e-19)
(0.480960761909 1.08516739552 0)
(0.47674072297 1.15852017373 0)
(0.472535577551 1.23064363968 0)
(0.468310943389 1.30133580639 1.058419192e-19)
(0.464032574296 1.37041327165 1.03211929488e-19)
(0.459670904218 1.43769182552 -1.00716514584e-19)
(0.455278549235 1.50311975974 -9.83430183668e-20)
(0.450877982255 1.56650946922 0)
(0.446472935632 1.62777233687 0)
(0.442011827026 1.68668103725 0)
(0.437412600767 1.74307748136 -8.99956498832e-20)
(0.432564335999 1.79665114392 0)
(0.427335676153 1.84712062229 0)
(0.421564685389 1.89399687101 8.48985852238e-20)
(0.415069325839 1.93676289778 0)
(0.407635557418 1.97461019228 8.20272515725e-20)
(0.399032999227 2.00663817064 0)
(0.389027474502 2.03161875508 7.95526173587e-20)
(0.377404534477 2.04818297568 0)
(0.363964711146 2.05459524507 0)
(0.34856600919 2.04902919893 0)
(0.331134382178 2.02938882972 0)
(0.311684161653 1.99363839639 0)
(0.290332541246 1.93967985386 0)
(0.267309619488 1.86578147367 0)
(0.242950739132 1.77057457312 0)
(0.217710785447 1.65330066676 7.33865620913e-20)
(0.192187658869 1.51392806669 0)
(0.167021018108 1.35366755617 0)
(0.142934160266 1.1749101265 7.37371404373e-20)
(0.120651707865 0.981751854835 0)
(0.100717828926 0.779889455129 0)
(0.0836573755546 0.576204840266 7.56194155462e-20)
(0.0702359692756 0.378476731858 0)
(0.0609581411964 0.19591566073 0)
(0.055653792641 0.0374781191304 7.86204664688e-20)
(0.0535438296198 -0.088158012035 -7.97876059518e-20)
(0.0530346965338 -0.174063162799 8.11049401022e-20)
(0.0520960279947 -0.217175576352 0)
(0.0519002729949 -0.217236673294 0)
(0.0507549102977 -0.163621478888 1.74102934232e-19)
(0.0447118909903 -0.0458284104313 0)
(0.0307055697142 0.146929128727 -1.86709732286e-19)
(0.0076902145052 0.437513268913 -1.93067219669e-19)
(-0.0290960557392 0.87245237556 0)
(-0.195019570416 -0.0867462102992 3.52979230387e-20)
(-0.130312327827 0.0565430211427 0)
(-0.0999607030967 0.103456117217 -1.21102882178e-21)
(-0.0871563584354 0.101997423057 -5.95770932502e-22)
(-0.0805379809247 0.0793800577231 -1.01130040131e-21)
(-0.0733550484819 0.0522285208363 -9.07820056378e-22)
(-0.0633131843325 0.0285211329196 9.12813410662e-22)
(-0.0503969549988 0.0108246442098 0)
(-0.0352256159164 -0.000453977363221 6.36944155945e-22)
(-0.0185830246103 -0.00609768193187 9.46232144831e-22)
(-0.00111126647316 -0.00692314275892 6.14420513769e-22)
(0.0167464945761 -0.00396414831877 -1.26819287614e-21)
(0.0346625674108 0.00205580699375 1.24431211823e-21)
(0.0524263991253 0.0103556306515 -1.18553833831e-22)
(0.0698712391555 0.0204504083886 0)
(0.0869015181261 0.0317979200892 -1.37650507511e-22)
(0.103427745734 0.0440952815413 -2.6360239284e-22)
(0.119417387389 0.0569658000522 -3.89865625341e-22)
(0.134808787476 0.0702211535344 3.17494528628e-21)
(0.149606527374 0.0836000808278 0)
(0.163768388646 0.0969888572271 3.71978071496e-21)
(0.177294035584 0.110207710073 0)
(0.190165362574 0.123194951351 -4.20096936248e-21)
(0.202407453311 0.13583396567 0)
(0.214000646459 0.148097829519 5.61921244884e-21)
(0.224986192421 0.159920820395 -3.71342256806e-21)
(0.235402462445 0.171307063565 -4.92756211782e-21)
(0.245294405893 0.182222924293 -6.19036216802e-21)
(0.254697576784 0.192688184733 -1.14635880452e-21)
(0.263664542617 0.202688621324 -1.16129561836e-21)
(0.2722495371 0.212259579686 0)
(0.280492944028 0.221395589163 -5.47547874249e-21)
(0.288426365882 0.230133967023 1.18001435571e-21)
(0.296093727063 0.238474655203 0)
(0.303522658965 0.246459858142 0)
(0.310736710745 0.254087741979 1.18270449598e-21)
(0.317754426594 0.261392812678 0)
(0.324593524753 0.268374102173 0)
(0.331261282328 0.275060902582 0)
(0.3377720785 0.281451074167 0)
(0.344133402339 0.287567757113 0)
(0.350353002468 0.293406903688 9.91361499227e-21)
(0.356433369276 0.298986254751 1.2393169902e-20)
(0.362375317698 0.304298742702 0)
(0.368174154957 0.309357454465 1.02616241583e-20)
(0.373826102749 0.314151548815 -2.36905674073e-21)
(0.379319115585 0.318689360312 0)
(0.384645510688 0.322955426725 0)
(0.389783358296 0.326949132375 -1.54882079021e-20)
(0.394705947914 0.330640729661 -1.32399149158e-20)
(0.399377449945 0.334006304908 2.37981690596e-21)
(0.403776443472 0.337060596789 1.3501208866e-20)
(0.4079031456 0.339880713372 1.12488408427e-20)
(0.4117474737 0.342554131535 0)
(0.415298841809 0.345178787297 -1.63204291634e-20)
(0.418541324006 0.347805217773 -2.412560287e-21)
(0.421482616547 0.350468746203 0)
(0.424082630611 0.353151429284 1.44386078853e-20)
(0.426217350606 0.356037509963 -1.46495777125e-20)
(0.427801250523 0.359566031805 -2.47624652184e-21)
(0.428773037587 0.361851434466 0)
(0.429165862412 0.362139719698 0)
(0.429260295952 0.361115018195 0)
(0.429285574187 0.359119482607 1.56405188537e-20)
(0.429394909633 0.356339439411 0)
(0.429690864301 0.352815905653 -1.612478516e-20)
(0.430234199707 0.348575529927 0)
(0.431060049722 0.34359758808 -1.42004936511e-20)
(0.432186386297 0.337920993778 0)
(0.43361728272 0.331574089436 -1.48376918589e-20)
(0.435353449162 0.324673681196 -1.51948531777e-20)
(0.43737878131 0.317323284256 0)
(0.439672712267 0.309714997067 -2.84125468764e-21)
(0.442218596935 0.301999307227 0)
(0.444985341316 0.294408851646 3.11829293266e-21)
(0.447929649934 0.287102729705 0)