/*--------------------------------*- C++ -*----------------------------------*\
| =========                 |                                                 |
| \\      /  F ield         | OpenFOAM: The Open Source CFD Toolbox           |
|  \\    /   O peration     | Version:  v1806                                 |
|   \\  /    A nd           | Web:      www.OpenFOAM.com                      |
|    \\/     M anipulation  |                                                 |
\*---------------------------------------------------------------------------*/
FoamFile
{
    version     2.0;
    format      ascii;
    class       volScalarField;
    location    "18";
    object      alpha;
}
// * * * * * * * * * * * * * * * * * * * * * * * * * * * * * * * * * * * * * //

dimensions      [0 0 -1 0 0 0 0];


internalField   nonuniform List<scalar> 
12225
(
0.391903530746
0.329350275018
0.349452592695
0.349226848427
0.360936081601
0.365126844299
0.370952997633
0.374877885208
0.376933574018
0.375961151052
0.370529422599
0.362009180609
0.35515596301
0.343592568424
0.320684693529
0.290703612885
0.251878883077
0.219392038935
0.22334984818
0.281707515732
0.313203733681
0.308655217234
0.317485116763
0.319760755773
0.323350706017
0.325544604722
0.326702908082
0.326164349304
0.322615708811
0.316303236909
0.309724302965
0.300028310034
0.282796464179
0.260416280515
0.23577103115
0.233195323263
0.371644960128
0.299489949187
0.317793098251
0.315943900493
0.32545533915
0.328664539519
0.333030431979
0.335922288409
0.337874317077
0.338395020374
0.336815936984
0.333017778056
0.327496962694
0.318683097804
0.304238251061
0.28602126673
0.269099861135
0.273677340355
0.306471852178
0.287772896107
0.313574203063
0.307874577271
0.31640517535
0.31804576703
0.321096954515
0.322888050063
0.32405479718
0.324197252475
0.323006741268
0.3203269419
0.316027790709
0.309187512869
0.298888277154
0.287105960507
0.279399499424
0.288567544464
0.339536250236
0.288185285023
0.312319027353
0.305539458872
0.313246872535
0.313972810685
0.316154791117
0.317052639413
0.317305541791
0.316603955969
0.314826895282
0.311893258065
0.307588007778
0.301474131141
0.293584173056
0.286120884222
0.283963905735
0.294027675689
0.326859432838
0.284433373026
0.309129553828
0.30102899763
0.308179556379
0.308199825271
0.309848093228
0.310258882636
0.310089110594
0.309086419558
0.307209039028
0.30442301007
0.300576103212
0.295559864883
0.289924039316
0.285828802505
0.286909915632
0.296448188415
0.330009182617
0.283105381898
0.306655077199
0.297716468667
0.304201218409
0.303582473412
0.304722682858
0.304698720469
0.304185727394
0.3029803446
0.301090121452
0.298523756728
0.295251225434
0.291390569102
0.287723317578
0.286117587887
0.289001200183
0.297718148544
0.327932460631
0.281662357885
0.304512315879
0.294844014063
0.300782265842
0.299647051298
0.300404852523
0.300076239257
0.299379420309
0.298128545189
0.296353748907
0.294105077741
0.291469943667
0.288712431182
0.286673225361
0.286818624685
0.290656730091
0.298534700703
0.326957090524
0.280918787659
0.302769483126
0.29260454719
0.298021311733
0.296446709739
0.296887265769
0.296348179584
0.295580102201
0.294390217256
0.292818705532
0.290962846933
0.288996695064
0.287259987135
0.286521865883
0.287879442686
0.29217616093
0.2993391746
0.326089831569
0.280597491707
0.301573828641
0.291046761514
0.296027273681
0.294092402136
0.294301238168
0.29364168399
0.292871585417
0.291790532662
0.290471685286
0.289058546041
0.287773648021
0.286957849231
0.287248167563
0.289416256957
0.293886138064
0.300382599192
0.326132632486
0.280526171249
0.301204008514
0.290349736052
0.295079872831
0.292940666189
0.293072308244
0.292391665896
0.291676977558
0.290754913188
0.2897335034
0.288760559077
0.288061174871
0.287935933592
0.288886532913
0.291429581812
0.295731739418
0.301491100696
0.330026236454
0.280643959661
0.302639864054
0.291227691224
0.296017189487
0.293786414356
0.293903926387
0.293227915096
0.292610242895
0.291848837976
0.290995439867
0.290218174282
0.289753104743
0.289887466713
0.291005705171
0.293461322641
0.297322857281
0.302295096113
0.333232456534
0.281304469862
0.304089553084
0.292282449122
0.296901333599
0.294506727966
0.294529254813
0.293781863055
0.293080838424
0.292245300969
0.291384417246
0.290671234306
0.290375118582
0.29070465907
0.291974656619
0.294395502461
0.29793846484
0.302343157197
0.33714239369
0.282129850991
0.305747020781
0.29342125354
0.297835357581
0.295099352205
0.294827094353
0.293868874057
0.293064160391
0.292229177059
0.291479655305
0.291003132661
0.291033888466
0.291717018996
0.293219005011
0.295665807142
0.298918982329
0.302832159217
0.342249359723
0.283034687547
0.307834531136
0.294805815884
0.299010572618
0.295870846674
0.295263805255
0.294055811941
0.293129848484
0.292335886549
0.29175600435
0.291586612836
0.292001286669
0.293022983237
0.294733279253
0.297158138333
0.300144874988
0.303554597482
0.347638900722
0.284003534097
0.310225345725
0.296500197151
0.300600129722
0.297113877794
0.296259804578
0.294869807552
0.293895098309
0.293152272031
0.292765679007
0.292847471473
0.293554223663
0.29478473324
0.296581438423
0.298894689504
0.301591707564
0.304576071912
0.352533932927
0.284891982811
0.312659839216
0.298367886395
0.302510229624
0.298819027032
0.297865312866
0.296422767011
0.295478149962
0.294852565644
0.294613412326
0.294883205833
0.295742488871
0.297062235314
0.298814951467
0.300971025611
0.303365025303
0.306000220666
0.357176150637
0.285576772342
0.314991622994
0.300237079812
0.304562826002
0.300809356067
0.299898927315
0.298499508669
0.297645623124
0.297137068378
0.297022787951
0.297406763125
0.298335446475
0.29964813898
0.301305414678
0.303281895441
0.305417338867
0.307746055886
0.359728783899
0.285669744533
0.316240695633
0.301306948326
0.305925001026
0.302315501153
0.301629295071
0.300432382444
0.299790547664
0.299482846529
0.299543066848
0.300053355325
0.301046323842
0.302346614081
0.30392123857
0.305756431511
0.307703122891
0.309804337426
0.354496876554
0.28506006326
0.314692017398
0.300599389503
0.305683699363
0.302730023781
0.30266828301
0.302109352124
0.302041772806
0.30224455803
0.302721724743
0.30353872341
0.30473212562
0.306139893502
0.307733711629
0.309509524186
0.311333201821
0.313238235777
0.350019996887
0.283950537195
0.312854402676
0.29937632611
0.304822226414
0.302390850515
0.302823080521
0.302726535606
0.303099175574
0.303664913513
0.304435596715
0.305453212264
0.306787023614
0.308251698542
0.309857117386
0.311580310305
0.313329695004
0.315112763633
0.347835040268
0.283102081697
0.311013316211
0.298062343044
0.303776342931
0.301803558346
0.302636033181
0.302941021802
0.30365540389
0.304509495943
0.305513754356
0.306688444414
0.308115819502
0.309632716009
0.311236898282
0.312929330872
0.314612399652
0.316330379129
0.34088657745
0.281402638062
0.309310141111
0.296834440197
0.30284319911
0.301304799736
0.302521691418
0.303190402623
0.304222162077
0.305355784657
0.306560118125
0.307897364842
0.309431419569
0.311020345359
0.312639470244
0.314337272571
0.315994371569
0.317656583662
0.345617991677
0.280993506669
0.307101164633
0.295221806637
0.301478450395
0.300387055178
0.301970900605
0.303003455316
0.304335200899
0.305712039328
0.307123378258
0.308609176257
0.310253608778
0.31190990491
0.313595558626
0.315321875469
0.317003646198
0.318651489498
0.322505540031
0.278592253769
0.305647947751
0.294442669133
0.3009487046
0.300273972937
0.302192442524
0.303507792745
0.305084728861
0.306666478036
0.308240314858
0.30982576132
0.31153932008
0.313239485738
0.314935060116
0.316681304092
0.318399090306
0.320074607978
0.359730206099
0.278892880177
0.302454254671
0.291856709668
0.298536754448
0.298251937007
0.300418765115
0.302011844855
0.303829878658
0.305646466155
0.30741841151
0.3091721954
0.311015665845
0.312843786599
0.314658732988
0.316496251358
0.31828245474
0.31988261466
0.272541671998
0.275200169788
0.300335220669
0.291493028875
0.298176848453
0.298450063603
0.30094582848
0.302858515054
0.304966853818
0.307070368221
0.30914360968
0.31105682966
0.312984600322
0.314889105865
0.31672188365
0.318575208429
0.320446036854
0.322488163001
0.41065326605
0.280107872015
0.292414277492
0.285575277822
0.292107173953
0.292545643295
0.294935429496
0.296682795027
0.29856204293
0.300430005218
0.302155699812
0.303764917318
0.305444284118
0.307112395369
0.308761312421
0.310536983727
0.312412230607
0.313921278286
0.154108566536
0.261114645282
0.28546342463
0.279297350024
0.285470829402
0.286526152892
0.289463978232
0.292107408426
0.295116183513
0.298368683175
0.301755412317
0.304928979293
0.308144604608
0.311493544883
0.31489316989
0.318357427137
0.321933076232
0.325400290692
0.329351281661
0.297225066266
0.301778477705
0.300180959758
0.307683629605
0.308653942021
0.3112140795
0.313193832643
0.315204548193
0.316969964749
0.318393222465
0.31972166466
0.321111176124
0.322181705446
0.32293719272
0.323570044514
0.323890411214
0.324631936884
0.476040392751
0.476400263953
0.476585886749
0.476567484462
0.476353896768
0.475980424903
0.475548341788
0.475091100171
0.474635170439
0.47419903108
0.47379475777
0.473429417731
0.473106418329
0.472826675376
0.472589332586
0.47239233403
0.472233012914
0.472107987117
0.472014130764
0.471948475518
0.471907764058
0.471889855903
0.471891556413
0.471912259373
0.471950177838
0.472005858127
0.472077793002
0.472166386235
0.472271131858
0.472392956717
0.472531715932
0.472688025952
0.472861588792
0.473053263586
0.473262905741
0.473490425442
0.473734718274
0.473996536525
0.474274711305
0.474569177144
0.474878545983
0.475202046843
0.475537967177
0.475884635564
0.476239906147
0.476601221798
0.476965970676
0.477331019047
0.477693105716
0.47804927517
0.478396674867
0.47873393095
0.479057910882
0.47936440924
0.479648073757
0.479903796499
0.480126192935
0.480309891944
0.480449386601
0.480539437354
0.480575987452
0.480557841376
0.48048406227
0.480351722345
0.480159878305
0.479911654051
0.479609113436
0.479254365204
0.4788507343
0.478401012419
0.477909481021
0.477380009482
0.476817367001
0.476225783869
0.475609917611
0.474973743093
0.474321217042
0.473656885153
0.472984543146
0.472306826266
0.471625784206
0.470944713694
0.470265675064
0.469591365155
0.468921007265
0.468257256452
0.467600183111
0.466943526823
0.466291005242
0.465639112179
0.464987098613
0.464334725525
0.463679803539
0.463048699725
0.462455987336
0.461863909893
0.461240903016
0.46060175366
0.45994836489
0.459286707274
0.458511557571
0.457644416029
0.457504656498
0.45746091539
0.45724966727
0.456817775932
0.456197610564
0.455864758445
0.455475558033
0.455123348089
0.454835440198
0.454590518818
0.454373554752
0.454172259144
0.453987197679
0.453815290922
0.453653827746
0.453499512585
0.453351358527
0.453210248494
0.453079453641
0.452960163207
0.452851061589
0.452751043174
0.452657270906
0.452568486315
0.452483944849
0.452403142161
0.45232570576
0.452251226056
0.452179317967
0.452109749154
0.452042319854
0.451977005987
0.451913761288
0.451852686082
0.451793824202
0.451736841633
0.451682211373
0.451630097989
0.451582299523
0.451537477653
0.451496484997
0.451460836923
0.451432214005
0.451412413783
0.451402533478
0.451403367601
0.451415604172
0.451439778876
0.45147696575
0.451528681927
0.45159663472
0.451682456967
0.451787910908
0.451914819073
0.452065221377
0.452241360956
0.452446179427
0.452683269649
0.452957948776
0.453275909295
0.453645169116
0.454077014585
0.454586846416
0.455191599882
0.455912178332
0.456765230089
0.457764019391
0.458931301003
0.460280081648
0.461807003096
0.463495167632
0.465302655336
0.467169863315
0.469153140545
0.471203336923
0.473241774778
0.475158393662
0.476640109543
0.476141006165
0.476375749282
0.476276889942
0.475990691043
0.47564215878
0.475285026165
0.474941079571
0.474620680469
0.474328370559
0.474066408812
0.473835236852
0.473635544955
0.473466489116
0.473327683118
0.473217715414
0.47313543376
0.473078953127
0.473046427297
0.473035336641
0.473044155046
0.473070313073
0.473112360939
0.473167944419
0.47323685377
0.473317689839
0.47341129366
0.473516810733
0.473635079552
0.473766309731
0.473911815494
0.474071769991
0.474247160595
0.474438571858
0.474647188384
0.474872673515
0.475115734332
0.475376058392
0.475653921621
0.475948805226
0.476260835494
0.476589024339
0.476932595807
0.477290054644
0.477659649173
0.478039115483
0.478425681335
0.478815969205
0.479206361012
0.479592220182
0.479968379172
0.480327252007
0.480663810378
0.480975171301
0.481258386661
0.481509581813
0.481724916986
0.481900608063
0.482030973643
0.482110103576
0.482135934092
0.482107034454
0.482021182275
0.481878775643
0.481683799381
0.481435285779
0.48113070816
0.48076997825
0.480353504823
0.479882287028
0.479357400738
0.478780817365
0.47815469941
0.477482403627
0.476767516558
0.476014159617
0.475226995564
0.474411136071
0.473571904543
0.472714810508
0.471843874049
0.47096219648
0.470073622294
0.469182343781
0.468290254463
0.467395754434
0.466504201842
0.465622410564
0.464740939665
0.463839169864
0.462935629031
0.462060943536
0.4611818029
0.460258394598
0.459320920076
0.458454108877
0.457662809143
0.456838475465
0.456162713669
0.455492528982
0.454789598997
0.454113598161
0.453306303892
0.452710509158
0.452068165189
0.451476893307
0.450907652134
0.450575149268
0.45032291539
0.45009570082
0.449864174397
0.449629927179
0.44937795127
0.449119773604
0.448861261949
0.448606155745
0.448353909335
0.448103531849
0.447853280356
0.447602516871
0.447353950323
0.447111376046
0.44687662125
0.446649778975
0.446429195189
0.446212959568
0.446000142929
0.445790038181
0.445582206084
0.445376154864
0.445171696577
0.444968740201
0.444767260404
0.444567128833
0.444368241186
0.444170218049
0.443972730537
0.443775172702
0.443576760473
0.443376772545
0.443175507186
0.442973204646
0.442768671015
0.44256154356
0.442352118416
0.442141255594
0.441929373785
0.441716064987
0.441500333106
0.441280943098
0.441056867314
0.440826975741
0.440590048178
0.440344857516
0.440090709363
0.439827730564
0.439556749081
0.439279741801
0.438999316906
0.4387190476
0.438442221063
0.438173820076
0.437919402639
0.437684375319
0.437472823129
0.437288472822
0.437134362688
0.437007055089
0.436914359805
0.436855519801
0.436828831793
0.436835928339
0.436883659064
0.436981724522
0.437131742949
0.437403779781
0.437707685852
0.438070442988
0.438482431421
0.438901736061
0.439343988698
0.475775031968
0.475851313412
0.475815569763
0.475698251549
0.475573878564
0.475471176162
0.475381150503
0.475297239405
0.475215650861
0.475136260842
0.475059670292
0.474987502599
0.474921394162
0.474863213717
0.474814326143
0.474775923876
0.474748482868
0.474732323805
0.47472703733
0.474732177458
0.474746837758
0.474771009388
0.474803159203
0.474843667444
0.474892168669
0.474949423829
0.475015267428
0.47509097776
0.475177012981
0.4752747414
0.47538475391
0.475508514423
0.475646402922
0.475799460666
0.475968029265
0.476152636872
0.476352832574
0.47656919253
0.47680115774
0.477048457954
0.477310179554
0.477585312984
0.47787229185
0.478169230542
0.478473776537
0.478783208831
0.479094241098
0.479403286984
0.479706310865
0.479998980843
0.48027513563
0.480528375265
0.480751793536
0.480940881874
0.481092134501
0.481202739559
0.481270356753
0.481295058486
0.481277727164
0.481216847554
0.481109747291
0.48095425574
0.480744989384
0.480478188784
0.48015557354
0.479776338979
0.479339331833
0.478844446642
0.478293256067
0.477688230503
0.477033142912
0.476332467576
0.475591323756
0.474815107217
0.474009291376
0.473179334293
0.472330472858
0.471467910943
0.470596535608
0.469721045044
0.46884356345
0.467967025778
0.467095858117
0.466232862694
0.465374271376
0.464518526437
0.463679878133
0.462861283782
0.462039041446
0.461203549877
0.460388636671
0.459622002159
0.458828564735
0.45803223673
0.457268608015
0.45653625964
0.455861645928
0.455342388171
0.454750130363
0.453970341125
0.453121261429
0.452516132772
0.452196811367
0.451863348123
0.451680405802
0.451449840132
0.451065046676
0.450506063242
0.449976946582
0.44951895599
0.449091593541
0.44869290161
0.44832766839
0.447989168997
0.447671994676
0.447370347314
0.447080186677
0.446798351133
0.446523573831
0.446257753079
0.446003079423
0.445760036164
0.445527276505
0.445302576824
0.445084802906
0.444873219997
0.44466733395
0.444466748996
0.444271124358
0.444079968931
0.443892593163
0.443708296818
0.443526614131
0.443347240773
0.443169908323
0.442994275944
0.442819758926
0.442645955848
0.442472707313
0.442301170481
0.442131459142
0.441962637621
0.44179354143
0.441624499412
0.441456989599
0.441292152311
0.441130473045
0.440971932491
0.44081663208
0.440664716958
0.440516361112
0.440371542194
0.440230379947
0.440092857431
0.439958732684
0.439827511112
0.43969848454
0.439570525603
0.439442459117
0.439312611143
0.439179287405
0.439040808078
0.438895457404
0.438741389705
0.438577260289
0.43840150962
0.438211595811
0.438007208833
0.43779162409
0.437567907587
0.437341162099
0.437121208842
0.436920165489
0.436761629565
0.436671979156
0.436668839507
0.436771456329
0.436987172224
0.437273079418
0.437477562237
0.475306937779
0.475423375811
0.475681777249
0.475819478439
0.475893396672
0.475950756747
0.475985630713
0.475998021616
0.475989954396
0.475964494217
0.475924867758
0.47587503685
0.475818293336
0.47575812158
0.47569724311
0.47563815448
0.475582572829
0.475531871521
0.475486561781
0.475447662215
0.475414822359
0.475388356634
0.475368107317
0.475354720638
0.475347827846
0.475348832118
0.475358069852
0.475376863653
0.475406021818
0.475447204828
0.475501318512
0.475569713379
0.475653263524
0.475753335111
0.475869878427
0.476003831732
0.476155137319
0.476323930116
0.476509621882
0.476711925638
0.476929637058
0.477161478717
0.477405511497
0.477659420245
0.477920407789
0.478185223275
0.47845005113
0.478711005675
0.478963582643
0.479202944556
0.479424431735
0.479624485013
0.479797403893
0.479938338413
0.480042815191
0.480107088345
0.480127731218
0.480103094312
0.480034581776
0.479924914439
0.47977474687
0.479582975672
0.479346909765
0.47906120233
0.47871941641
0.47831757767
0.477853634919
0.477326530374
0.476736573331
0.476085678641
0.47537728813
0.474616498219
0.473809834905
0.472964234505
0.472087067069
0.471186613515
0.470270229615
0.46934351014
0.468413570448
0.467487137943
0.466566441544
0.465650785273
0.464748193116
0.463867916537
0.463001689624
0.462141651215
0.461301891136
0.460515638266
0.459736903556
0.458955416171
0.458205258845
0.457503173402
0.456837023271
0.456185956403
0.455581230141
0.454973217201
0.454302546565
0.453576962935
0.45274934323
0.451962918311
0.451412345912
0.451170918158
0.450998833685
0.450786047712
0.450605394978
0.450292346035
0.449768923981
0.449105157822
0.448464505397
0.447886754118
0.447366136549
0.446907746539
0.446503776272
0.44614060396
0.445808346211
0.445498927079
0.445207002036
0.444928656093
0.444662626253
0.444409846197
0.444171345195
0.443946094613
0.443731127201
0.443524189028
0.443324128471
0.443130272716
0.442941991618
0.442758656279
0.442579591975
0.442404154669
0.442231464377
0.442060951757
0.441892408149
0.441725515077
0.44155987684
0.441394802772
0.441229733965
0.441064535022
0.440899981859
0.440737405926
0.440577144611
0.440417593928
0.44025689504
0.440095085106
0.439933303535
0.439772478317
0.439612878113
0.439454352211
0.439296665601
0.439139554123
0.438982832078
0.438826309776
0.43867012627
0.43851441868
0.438359318775
0.438204983633
0.438051711171
0.437900037345
0.437750628349
0.437604200921
0.437461157017
0.437321942251
0.437186905342
0.437055789391
0.436927893863
0.436801800199
0.436674152982
0.436542852635
0.436406159262
0.436261305642
0.436106844468
0.435944311142
0.435777200312
0.435612504565
0.43546811026
0.435349925574
0.435266100195
0.435218698865
0.435158942169
0.434959089029
0.474763998558
0.475417975475
0.476069207235
0.476309029748
0.476394200294
0.476450078497
0.476483461975
0.476497124676
0.476490624531
0.476465478923
0.476422943801
0.476365588492
0.476296109954
0.476217863548
0.476133569721
0.476046142073
0.475957498574
0.475869835614
0.475784247246
0.475701816777
0.475623036434
0.475549095351
0.475479650722
0.475415876812
0.475358233523
0.475307773372
0.475265106074
0.475231916971
0.475209141066
0.475198428862
0.475200806699
0.475218030735
0.475250753785
0.475300146152
0.475366765054
0.475451335663
0.475553522627
0.475673850692
0.475811688812
0.475966599515
0.476137413931
0.476322879243
0.476521041576
0.476729685989
0.476946029359
0.47716706146
0.477389134507
0.477608428432
0.47782086685
0.478021804206
0.478205078989
0.478366354022
0.478500315835
0.478601842309
0.478666909587
0.478692045284
0.478673447253
0.47860860969
0.478497096427
0.478337483028
0.478128650793
0.477870029464
0.477561420645
0.47720370357
0.476795902281
0.476335418501
0.475819847711
0.475247459349
0.474618278797
0.47393344874
0.4731957439
0.472409481949
0.471581505166
0.470717593008
0.469824411082
0.468910510348
0.467984572524
0.467050021929
0.466110599963
0.465179074755
0.464261711293
0.463348423015
0.462445503251
0.461571146658
0.46071372285
0.459859024862
0.459027290337
0.458238144544
0.457500016334
0.456778315388
0.456056093776
0.455385196985
0.454726901064
0.4540977205
0.453444011678
0.452680614159
0.451858448787
0.451056116151
0.450358852642
0.449902454196
0.449702028809
0.449629656808
0.449493607548
0.449285384644
0.449027829727
0.448630304075
0.448098199261
0.447507042086
0.446930132764
0.446391001996
0.445905853632
0.445481153438
0.445107998993
0.444774778924
0.444472315944
0.444192989986
0.443931270677
0.443683321888
0.443447781339
0.443224953094
0.443014856727
0.442815354349
0.44262326765
0.442436742643
0.442255166024
0.442078376153
0.441906212825
0.441738421073
0.441574621339
0.441414417425
0.441257525751
0.441103649083
0.440952341493
0.440803194445
0.440655642786
0.440509031985
0.440363034616
0.440218022461
0.44007556385
0.439937024426
0.439802616828
0.439669860251
0.439536462585
0.439402019754
0.439267267955
0.439133060294
0.43899968917
0.43886712274
0.438735161764
0.438603562113
0.438472179481
0.438340897966
0.438209578913
0.438078136585
0.437946510871
0.437814777756
0.43768297303
0.437551107455
0.437419308993
0.437287731336
0.437156223433
0.437024644377
0.436892740786
0.436759870363
0.436625398167
0.436488236839
0.436346106615
0.436198041245
0.43604384973
0.435882467525
0.435714795237
0.43554369903
0.435372278884
0.435205499795
0.435053361429
0.434916976432
0.434788531599
0.43465222707
0.434448792075
0.434065255997
0.474272351253
0.47608506596
0.476945030113
0.476946414415
0.476845458032
0.476799250107
0.476778419094
0.476763386065
0.476740522178
0.47670376041
0.476650297448
0.476581483628
0.476498761941
0.476405260915
0.476303219986
0.476195603218
0.476084277978
0.475971449247
0.475858198801
0.47574643933
0.475636468402
0.475529373265
0.475425809839
0.475326854338
0.475232708516
0.475145099784
0.475064818795
0.474993446195
0.47493211395
0.474882633989
0.474846171415
0.474824227773
0.474817799019
0.474828267417
0.474855722877
0.474901061326
0.474964213899
0.47504523456
0.475143371728
0.475258150961
0.475388096123
0.475531802847
0.475687068913
0.475851562672
0.476022383792
0.476196534123
0.476370396784
0.476540557184
0.476703044402
0.476853336674
0.476985536071
0.477095398982
0.477177173025
0.477225648137
0.477236165541
0.477204605035
0.477127199903
0.477004633279
0.476838471206
0.476629679045
0.47637830582
0.476084264497
0.47574563538
0.475360653394
0.474924360892
0.474433241678
0.473883736569
0.473273657188
0.472603357126
0.47187576109
0.4710933338
0.470261974543
0.469390657631
0.468487962866
0.467557957542
0.466610457017
0.465659161005
0.464709539299
0.46375779364
0.462813248761
0.461900352979
0.460983751906
0.460079907494
0.459202009585
0.458361227996
0.457561568565
0.456780601174
0.456024482996
0.455293034902
0.4545682123
0.453891741496
0.453219685652
0.452476658923
0.451721970291
0.450949320823
0.450191253408
0.449514364283
0.448962777881
0.448561058214
0.448342605976
0.448240711026
0.448130505146
0.447941648022
0.447692329281
0.44737011914
0.446945458537
0.446453378374
0.445939040713
0.445433545533
0.444954612349
0.444518829581
0.444130312087
0.443783155897
0.443469762284
0.443183365749
0.442917978718
0.442668952007
0.442433460909
0.442210645126
0.44200101407
0.441804280098
0.44161802385
0.441439621721
0.441267648408
0.441101746735
0.440941876729
0.440787945604
0.440639662103
0.440496553262
0.440358011293
0.440223328785
0.440091592299
0.439962061495
0.439834098804
0.439706977297
0.439579950762
0.439452812622
0.439326578965
0.43920314792
0.439084330917
0.438969893554
0.438857244289
0.438744109222
0.438629831874
0.43851498254
0.438400211193
0.438285832407
0.43817186803
0.438058202778
0.437944861168
0.437831783113
0.43771892009
0.43760620719
0.43749350086
0.437380723179
0.437267779
0.43715462218
0.43704117124
0.436927423779
0.43681332592
0.436698587539
0.436582918178
0.436465840955
0.436346513473
0.43622394456
0.436096821537
0.435962916739
0.43582110309
0.435670829179
0.435510891739
0.435342314695
0.435167770871
0.434989719339
0.434811561302
0.434641652956
0.434479777651
0.43431525915
0.434125307439
0.433852541781
0.433407408546
0.474016639449
0.477471151863
0.478051796016
0.477482775977
0.477144120636
0.476996671864
0.47692253111
0.476869117373
0.476811052841
0.476740800955
0.476654602424
0.476553771131
0.47643936878
0.476314453553
0.476180753967
0.476041170373
0.475897102661
0.475750986495
0.475603755005
0.475456816705
0.475310908788
0.475167553628
0.475026741237
0.474889946538
0.474757881257
0.474631734096
0.474512344639
0.474401489726
0.474300194746
0.474210178742
0.474132530461
0.474068976386
0.474020207466
0.47398732946
0.473970875824
0.473971425516
0.473988600963
0.474022672413
0.474072761037
0.474138164681
0.47421737323
0.474308936053
0.474410656248
0.474520357491
0.474635351524
0.474753182848
0.474870751401
0.474985264922
0.475093811945
0.475192936585
0.47527604207
0.475339569015
0.475377149471
0.47538155263
0.475346380334
0.475265758728
0.475136457823
0.474961761364
0.474743454147
0.474483502272
0.474182931321
0.473844430745
0.473468348909
0.473052114344
0.47258846123
0.472073350322
0.471501211601
0.470867709579
0.470173186721
0.469421733588
0.468616491317
0.467760334742
0.466866071755
0.465947812914
0.465008551621
0.464054200086
0.463099754675
0.46215106802
0.461198587189
0.460259451204
0.459342299294
0.458461060477
0.457619057567
0.456790035724
0.45598337148
0.455209656241
0.454469730413
0.453762807826
0.453051892195
0.452313084954
0.451589538018
0.450848008624
0.450099141582
0.449388003496
0.448718367545
0.448135904276
0.447667740061
0.447318894495
0.447069743102
0.446906126578
0.446761911343
0.44657842096
0.446342759084
0.446059510933
0.445711768435
0.445300999369
0.444858593195
0.444408731174
0.443968321133
0.443550607084
0.443166375882
0.442817737606
0.442501783177
0.442214293354
0.441950958921
0.44170744708
0.441480331417
0.441267511153
0.441068470686
0.440883334959
0.440711029107
0.44054893498
0.440394378198
0.44024583866
0.440102676076
0.439964618416
0.439831393301
0.439702629711
0.43957781666
0.439456352157
0.439337644928
0.439221218669
0.439106693244
0.438993559856
0.438881108374
0.438768663291
0.438656284802
0.438545385142
0.438438088109
0.438336138002
0.438238794362
0.438143512481
0.43804803326
0.437951713621
0.437854946349
0.437758166244
0.437661550855
0.437564997651
0.437468508294
0.437372024778
0.437275558505
0.437179061808
0.437082487285
0.436985797097
0.436888891592
0.436791641133
0.43669396255
0.436595762826
0.436497004151
0.436397533081
0.436296981379
0.436194939683
0.436090875978
0.435983788006
0.435872558106
0.435755832093
0.435631531237
0.435498472682
0.435355916074
0.435202538491
0.435039032034
0.434867578881
0.434689650996
0.434506843507
0.434325356449
0.434143613459
0.43395015386
0.433718599172
0.433396640317
0.432915652275
0.474123834297
0.479368158712
0.479048462274
0.477786859063
0.47731212626
0.477098961327
0.476969323891
0.476856413481
0.476738604618
0.476611024447
0.476470362249
0.476318991657
0.476156956226
0.475987171
0.475810416002
0.475629325592
0.475444748601
0.475258772871
0.475071881933
0.474885975085
0.47470121122
0.474518915284
0.474339714064
0.474164665078
0.473993965859
0.473829285299
0.473671235517
0.473521246755
0.473380246183
0.47324983607
0.473130917099
0.473024756076
0.472932116156
0.472854058611
0.472790555653
0.472742249215
0.472708890918
0.472690307898
0.472685619923
0.47269418418
0.47271442822
0.472745007414
0.472783948808
0.472829447992
0.472879474919
0.472932353058
0.472986366397
0.473040105905
0.473092010737
0.473140317448
0.473179797934
0.473204386525
0.473206115805
0.47317346232
0.473094853833
0.47296014064
0.472768946437
0.472528096282
0.472241841035
0.471915409804
0.471555716827
0.471170343366
0.470764252397
0.470327162
0.469850740143
0.469327209901
0.468749017365
0.468107545807
0.467399826855
0.466634306924
0.465818838554
0.464952889315
0.464046936145
0.46312752265
0.462180228664
0.461219099615
0.460266767048
0.459331025995
0.458423488328
0.457548947319
0.456686183078
0.455846842946
0.455042119244
0.454270542579
0.453534275316
0.45282740129
0.452126861371
0.451412360921
0.450681210688
0.44994937417
0.44924865915
0.448558397556
0.447915977715
0.447334419556
0.446815571725
0.44638146933
0.446036308742
0.445772716992
0.445564270678
0.445387886277
0.445201459859
0.444984307473
0.444731921138
0.444437477919
0.444094486619
0.443716276727
0.44332464798
0.442933114663
0.44255230102
0.442190900971
0.441855017418
0.441546042347
0.441262939662
0.441003586807
0.440765195537
0.440544584128
0.440339125829
0.440147213319
0.4399684543
0.439802701399
0.439648609884
0.439503770019
0.439365965361
0.439233919074
0.439107099906
0.438985332852
0.438868478074
0.438756305959
0.438648435241
0.438544369455
0.438443565432
0.438345504545
0.438249574894
0.438155037236
0.438060925595
0.437966533743
0.437872152065
0.437779417507
0.437690627292
0.437607135898
0.437527997354
0.437450803241
0.43737354581
0.437295658415
0.437217368868
0.437138981475
0.43706050447
0.436981872606
0.436903011205
0.436823906278
0.436744598658
0.436665065842
0.436585273436
0.436505136524
0.436424534531
0.436343304614
0.436261306423