/*--------------------------------*- C++ -*----------------------------------*\
| =========                 |                                                 |
| \\      /  F ield         | OpenFOAM: The Open Source CFD Toolbox           |
|  \\    /   O peration     | Version:  v1806                                 |
|   \\  /    A nd           | Web:      www.OpenFOAM.com                      |
|    \\/     M anipulation  |                                                 |
\*---------------------------------------------------------------------------*/
FoamFile
{
    version     2.0;
    format      ascii;
    class       surfaceScalarField;
    location    "18";
    object      phia;
}
// * * * * * * * * * * * * * * * * * * * * * * * * * * * * * * * * * * * * * //

dimensions      [0 3 -1 0 0 0 0];
oriented        oriented;


internalField   nonuniform List<scalar> 
24170
(
1.9010253606e-07
1.31131468573e-07
2.59145630987e-07
-6.69588704526e-08
2.56867499846e-07
2.71663893721e-09
2.64150599459e-07
-7.13756780797e-09
2.74500055266e-07
-1.06753107295e-08
2.85980682401e-07
-1.00587237249e-08
2.98128622044e-07
-1.09535126263e-08
3.11466822444e-07
-1.06779492556e-08
3.25033608464e-07
-1.0981657277e-08
3.39349209614e-07
-1.15645662498e-08
3.54966594803e-07
-1.31588299473e-08
3.74533848349e-07
-1.77873869711e-08
4.03836950018e-07
-2.79029398866e-08
4.48380017452e-07
-4.36893830791e-08
5.04490213671e-07
-5.55486395331e-08
5.49282873823e-07
-4.45840394051e-08
6.07098536121e-07
-5.78604753708e-08
-5.411199249e-07
1.14806946255e-06
7.09810552868e-07
-2.28783847933e-07
3.58040943288e-07
2.89010125079e-07
4.12244970579e-07
-5.07489268702e-08
4.23426725253e-07
-1.84818469153e-08
4.40173193907e-07
-2.78345298918e-08
4.57688406863e-07
-2.63830373354e-08
4.76635917428e-07
-2.82621781296e-08
4.97180485359e-07
-2.81137360515e-08
5.18746153301e-07
-2.91773850833e-08
5.41710975402e-07
-3.10363398508e-08
5.66865377037e-07
-3.53161373191e-08
5.96250121328e-07
-4.49991159378e-08
6.32464219333e-07
-6.26324103722e-08
6.7496672383e-07
-8.53205420454e-08
7.15524599747e-07
-9.56346330757e-08
7.50422619488e-07
-7.93343406897e-08
8.4014560399e-07
-1.47700947369e-07
-6.59574714826e-07
9.5843302059e-07
-9.6382335302e-08
2.33438951087e-07
4.29204236791e-07
-2.36953501476e-07
3.33665583972e-07
4.41918854586e-08
3.56002066841e-07
-4.11767864989e-08
3.54183907424e-07
-2.64808549576e-08
3.62154451356e-07
-3.37684473312e-08
3.67815317968e-07
-3.34519186586e-08
3.75506675351e-07
-3.46734452798e-08
3.83757021744e-07
-3.64338823091e-08
3.93595973532e-07
-3.98959497057e-08
4.06108890112e-07
-4.7030746928e-08
4.23379760816e-07
-6.17388609708e-08
4.47056260623e-07
-8.59146993696e-08
4.75685007534e-07
-1.13742379761e-07
5.06919627359e-07
-1.26769962114e-07
5.59129215301e-07
-1.3156457915e-07
6.73063061943e-07
-2.61733909573e-07
-6.81175196034e-07
6.94648827069e-07
7.52023452441e-07
-1.2130965488e-07
3.10199423179e-07
2.06346098287e-07
4.25195578353e-07
-7.14255809235e-08
4.1747824869e-07
-3.44352328947e-08
4.30647872432e-07
-4.05081179287e-08
4.38803052562e-07
-4.16785561094e-08
4.4883610273e-07
-4.27354822449e-08
4.59338945749e-07
-4.36005702288e-08
4.7024388513e-07
-4.56190621684e-08
4.81800327281e-07
-4.97507197812e-08
4.94682201581e-07
-5.85394830973e-08
5.09528527129e-07
-7.56299635061e-08
5.25576276376e-07
-1.01364197034e-07
5.39744239024e-07
-1.27604413659e-07
5.5461654082e-07
-1.41538990487e-07
5.93155344172e-07
-1.70142936597e-07
6.5593391768e-07
-3.2463974371e-07
-6.29373690838e-07
6.03999883467e-07
-2.10368506044e-08
3.17814093783e-07
4.55451318276e-07
-2.71957777508e-07
4.02425125283e-07
-1.95777467875e-08
4.09496108323e-07
-4.19978678432e-08
4.15642042832e-07
-4.70226360446e-08
4.24580929518e-07
-5.03829848071e-08
4.34257224458e-07
-5.22266059268e-08
4.45698718695e-07
-5.46224676585e-08
4.58711408148e-07
-5.83445680173e-08
4.73954119543e-07
-6.47616263087e-08
4.92044205848e-07
-7.64845163201e-08
5.12737398829e-07
-9.6247002806e-08
5.33927745528e-07
-1.22506654032e-07
5.53099871731e-07
-1.46771759207e-07
5.76109583846e-07
-1.64573636964e-07
6.17150729575e-07
-2.11242329716e-07
6.48540614612e-07
-3.56102048665e-07
-5.61450705613e-07
5.80650686011e-07
7.41272616761e-07
2.67695526039e-08
4.25202658437e-07
4.29005126259e-08
4.48711003969e-07
-4.42496069658e-08
4.61402731835e-07
-5.55133828608e-08
4.66261952331e-07
-5.23342549488e-08
4.73703685415e-07
-5.76867387322e-08
4.81206074616e-07
-5.92704941486e-08
4.89925470739e-07
-6.25888273163e-08
4.99760857297e-07
-6.74199545821e-08
5.11513583503e-07
-7.58293139602e-08
5.25676731432e-07
-9.01277414802e-08
5.4166951955e-07
-1.11866382618e-07
5.57561394469e-07
-1.38159325428e-07
5.73216040407e-07
-1.62289380957e-07
5.95791223021e-07
-1.87093916417e-07
6.28946039879e-07
-2.44394416961e-07
6.38469631606e-07
-3.65643476755e-07
-5.0093563898e-07
5.77902672744e-07
3.22442789935e-07
1.8425257021e-07
4.8350206367e-07
-1.20549810678e-07
4.77429967265e-07
-3.94335327188e-08
4.83341086902e-07
-6.18565366304e-08
4.91114955213e-07
-6.02068786261e-08
4.99541033507e-07
-6.59416521244e-08
5.08761180381e-07
-6.83453768809e-08
5.18970643307e-07
-7.26604382175e-08
5.30276178644e-07
-7.87008340024e-08
5.4308580772e-07
-8.86650210019e-08
5.57327198119e-07
-1.04416146216e-07
5.71873132724e-07
-1.26441858144e-07
5.85215068357e-07
-1.5150651511e-07
5.98800272085e-07
-1.75866182984e-07
6.18126557923e-07
-2.06405042094e-07
6.39298282955e-07
-2.65556092018e-07
6.3433710582e-07
-3.60695846434e-07
-4.50641527348e-07
5.84228388384e-07
5.55898068374e-07
1.42968070808e-07
5.0882248049e-07
-7.5773636138e-08
5.14123171119e-07
-4.58727058905e-08
5.20891143345e-07
-6.89431862799e-08
5.27317810841e-07
-6.65271381873e-08
5.34804518399e-07
-7.3023290702e-08
5.43199060714e-07
-7.62552456899e-08
5.52754993421e-07
-8.17243819739e-08
5.63610108475e-07
-8.91505749608e-08
5.75895002843e-07
-1.00634634031e-07
5.89091566324e-07
-1.17370960989e-07
6.01877668322e-07
-1.39025743126e-07
6.13358814447e-07
-1.62817971403e-07
6.25349832617e-07
-1.87714529709e-07
6.402492642e-07
-2.21186093231e-07
6.50607326522e-07
-2.75830825153e-07
6.37743060968e-07
-3.47687413872e-07
-4.08948019142e-07
5.96161191464e-07
5.41000544067e-07
1.54298300892e-07
5.50786334217e-07
-8.75843803729e-08
5.53646894885e-07
-4.97803850825e-08
5.59202969349e-07
-7.47855767182e-08
5.65611551789e-07
-7.28718105248e-08
5.72669482818e-07
-7.98669669878e-08
5.80650975425e-07
-8.40588098907e-08
5.89663160998e-07
-9.06302025899e-08
5.99850289117e-07
-9.93169381012e-08
6.1109260774e-07
-1.11895546913e-07
6.2264834257e-07
-1.2893710269e-07
6.33356267982e-07
-1.49713081042e-07
6.42906271365e-07
-1.72311945219e-07
6.52667289818e-07
-1.97396033904e-07
6.62383445199e-07
-2.30811060913e-07
6.64415255764e-07
-2.77766555076e-07
6.4786742236e-07
-3.31030531775e-07
-3.73510385292e-07
6.1265684643e-07
5.9196448814e-07
1.54376329558e-07
5.90581417613e-07
-8.81239868577e-08
5.96110182429e-07
-5.60162854942e-08
6.0054359918e-07
-7.91735112857e-08
6.06657531949e-07
-7.85161473013e-08
6.1315720219e-07
-8.57663232042e-08
6.20616909573e-07
-9.09163370181e-08
6.28970831467e-07
-9.84754531625e-08
6.38280956334e-07
-1.08225600492e-07
6.48200224335e-07
-1.21490685383e-07
6.5790704134e-07
-1.38384797286e-07
6.66516385905e-07
-1.58097044417e-07
6.73995284817e-07
-1.7960188357e-07
6.80904325887e-07
-2.04122883611e-07
6.85467952792e-07
-2.3522385522e-07
6.81563115644e-07
-2.73727014578e-07
6.63578356529e-07
-3.12866355996e-07
-3.42756035264e-07
6.3301411803e-07
6.36086443743e-07
1.53939633041e-07
6.35022349569e-07
-8.85585940005e-08
6.41331822338e-07
-6.31185036973e-08
6.44985278818e-07
-8.29783224925e-08
6.50585307114e-07
-8.39669561417e-08
6.56432281848e-07
-9.13031692583e-08
6.6318925007e-07
-9.73902978524e-08
6.70675779453e-07
-1.05720817166e-07
6.78830765783e-07
-1.16195331652e-07
6.87158333034e-07
-1.29676501459e-07
6.9488767909e-07
-1.4597634682e-07
7.01371812399e-07
-1.64454284855e-07
7.06584871698e-07
-1.84664618863e-07
7.10310514467e-07
-2.07716257719e-07
7.1031426688e-07
-2.35088582825e-07
7.02386993505e-07
-2.65681442568e-07
6.84007900849e-07
-2.9433128653e-07
-3.15449207705e-07
6.56880236126e-07
5.73211624659e-07
1.53269822785e-07
5.72654860306e-07
-8.91160243398e-08
5.78008722287e-07
-6.90083109003e-08
5.80622732016e-07
-8.56288222692e-08
5.84849065405e-07
-8.80147895495e-08
5.89208078218e-07
-9.53807835114e-08
5.9425518235e-07
-1.02189087786e-07
5.99761246529e-07
-1.11036543363e-07
6.05583228609e-07
-1.21904660289e-07
6.11269027613e-07
-1.35278791111e-07
6.16248797183e-07
-1.50872211657e-07
6.2008620997e-07
-1.68258136924e-07
6.22620760545e-07
-1.87230499779e-07
6.23348105777e-07
-2.08386692913e-07
6.20496171949e-07
-2.32245511583e-07
6.1182363742e-07
-2.56947678129e-07
5.96419993998e-07
-2.78865456817e-07
-2.94457173295e-07
5.75580449325e-07
7.00392546327e-07
1.51574823739e-07
6.99545660349e-07
-8.90651370632e-08
7.0503215529e-07
-7.48932459461e-08
7.07661321571e-07
-8.84567169753e-08
7.11821160045e-07
-9.21352058927e-08
7.16089403647e-07
-9.95730787926e-08
7.20983170485e-07
-1.06970542909e-07
7.26193814964e-07
-1.16176354411e-07
7.31489149556e-07
-1.27144293988e-07
7.36361645372e-07
-1.40083542169e-07
7.40223239382e-07
-1.54769330674e-07
7.42660938858e-07
-1.7077543595e-07
7.43378087436e-07
-1.87989119202e-07
7.41520282859e-07
-2.0667460981e-07
7.35620070254e-07
-2.26373919468e-07
7.24080482461e-07
-2.455193887e-07
7.06771472319e-07
-2.61475312453e-07
-2.72460990077e-07
6.84750856763e-07
8.55013342021e-07
1.48954430205e-07
8.54323164212e-07
-8.89657673298e-08
8.59209870768e-07
-8.05901169799e-08
8.61690651358e-07
-9.12126982057e-08
8.65366218521e-07
-9.62227620931e-08
8.69186715541e-07
-1.03522022285e-07
8.73422661059e-07
-1.11418100672e-07
8.77774700106e-07
-1.20649222354e-07
8.8187870002e-07
-1.31371767145e-07
8.85179860867e-07
-1.43571983055e-07
8.87211147197e-07
-1.56875958109e-07
8.8745742e-07
-1.7119011205e-07
8.85453724606e-07
-1.8616426289e-07
8.80367182083e-07
-2.0172665109e-07
8.70976332189e-07
-2.17166058778e-07
8.56562041108e-07
-2.31180685794e-07
8.37202618371e-07
-2.42249437213e-07
-2.49324801329e-07
8.14117627302e-07
1.04391441322e-06
1.44241234357e-07
1.04278347358e-06
-8.90489047159e-08
1.04679537463e-06
-8.52669556949e-08
1.04829501301e-06
-9.36235300755e-08
1.05101924043e-06
-9.93495087783e-08
1.05360475419e-06
-1.06677396253e-07
1.05647710432e-06
-1.14609116707e-07
1.05906070268e-06
-1.23623205369e-07
1.061015419e-06
-1.33689976554e-07
1.06190043514e-06
-1.4462102241e-07
1.06106034726e-06
-1.56350402474e-07
1.05821050277e-06
-1.68452976872e-07
1.05263113721e-06
-1.80827826854e-07
1.0437535215e-06
-1.92947797642e-07
1.03070248782e-06
-2.04346876398e-07
1.01336740268e-06
-2.13946916487e-07
9.92044068825e-07
-2.21086308354e-07
-2.25139313871e-07
9.67729224926e-07
1.27710022857e-06
1.33170570546e-07
1.27344807871e-06
-8.65785352013e-08
1.27513958997e-06
-8.83068409689e-08
1.27506559616e-06
-9.43869950114e-08
1.27572357794e-06
-1.00770051946e-07
1.27627576604e-06
-1.07724612976e-07
1.27664021525e-06
-1.15454040989e-07
1.27639186828e-06
-1.23798056249e-07
1.27517692441e-06
-1.32751819148e-07
1.2723768797e-06
-1.421939684e-07
1.26779565373e-06
-1.51850232642e-07
1.26070337811e-06
-1.61620860297e-07
1.25093493077e-06
-1.71070390256e-07
1.23767410772e-06
-1.7995640257e-07
1.22098109955e-06
-1.8768068358e-07
1.20055308898e-06
-1.93822658085e-07
1.17729523162e-06
-1.97869035519e-07
-1.99757561498e-07
1.15160442183e-06
1.56021657209e-06
1.17032514416e-07
1.55379479757e-06
-8.18976380475e-08
1.55163127967e-06
-8.73533140836e-08
1.54863095526e-06
-9.22432772693e-08
1.54605438582e-06
-9.87479070163e-08
1.54323719762e-06
-1.05251143595e-07
1.53987189468e-06
-1.12366795203e-07
1.53557258713e-06
-1.19691648943e-07
1.5298586512e-06
-1.2725126445e-07
1.52244323053e-06
-1.34869753543e-07
1.51286651227e-06
-1.42402127141e-07
1.50086564042e-06
-1.49687152226e-07
1.48606913768e-06
-1.56413159267e-07
1.46835494207e-06
-1.62349576211e-07
1.44764316066e-06
-1.67161839555e-07
1.42427225737e-06
-1.70616305785e-07
1.39863380026e-06
-1.72489798175e-07
-1.72702469553e-07
1.37138968848e-06
1.89662185689e-06
1.01070369726e-07
1.8930317065e-06
-8.01943310439e-08
1.88546577638e-06
-8.13723437783e-08
1.87798870252e-06
-8.53203718945e-08
1.87058121721e-06
-9.16499088568e-08
1.86299909609e-06
-9.76289752548e-08
1.85458490982e-06
-1.03856505261e-07
1.84498605402e-06
-1.09944554744e-07
1.83374638968e-06
-1.15928723599e-07
1.8206558667e-06
-1.21686247564e-07
1.80532682849e-06
-1.27120094205e-07
1.78777453651e-06
-1.3212859762e-07
1.76767429544e-06
-1.36500393748e-07
1.74534678179e-06
-1.40095856111e-07
1.72065618352e-06
-1.42763029817e-07
1.69430196343e-06
-1.44421049857e-07
1.6664913612e-06
-1.45066661336e-07
-1.44957152854e-07
1.63850555974e-06
2.36603557741e-06
2.75584183291e-08
2.30943503567e-06
-2.73178477016e-08
2.28819367017e-06
-6.17732872775e-08
2.27321383995e-06
-7.16501912116e-08
2.25944723412e-06
-7.82709185605e-08
2.24555831262e-06
-8.36312690075e-08
2.2306995882e-06
-8.86014094908e-08
2.21440781089e-06
-9.32344355005e-08
2.19631185515e-06
-9.74497247818e-08
2.17625362538e-06
-1.01374969669e-07
2.15403083439e-06
-1.04843353815e-07
2.12987618919e-06
-1.07913506644e-07
2.1035464991e-06
-1.10398964755e-07
2.07567329929e-06
-1.12274704391e-07
2.04599467168e-06
-1.1347894945e-07
2.01535386876e-06
-1.13933621035e-07
1.9832886715e-06
-1.13499650478e-07
-1.1130942093e-07
1.94932812141e-06
1.56074851921e-06
1.40349860115e-07
1.66876654709e-06
-1.40366571388e-07
1.67021784799e-06
-6.82425848632e-08
1.66111915037e-06
-6.50000729637e-08
1.65038191654e-06
-6.8712305134e-08
1.6391356451e-06
-7.27321346252e-08
1.62697477926e-06
-7.65670397473e-08
1.61415274317e-06
-7.98832281959e-08
1.59977028047e-06
-8.30933956664e-08
1.58466233052e-06
-8.57868827756e-08
1.56794260077e-06
-8.8278128497e-08
1.55047729046e-06
-9.0259302649e-08
1.53177398203e-06
-9.18783671133e-08
1.51248437559e-06
-9.29509614389e-08
1.49244610254e-06
-9.35431453648e-08
1.47212375579e-06
-9.35877458193e-08
1.45210954547e-06
-9.34623424284e-08
-9.54111995251e-08
1.43633361372e-06
1.79129314764e-06
-1.90822003998e-07
1.48195847199e-06
1.63675990172e-07
1.44650943897e-06
-3.41489182563e-08
1.43556309619e-06
-5.72727172974e-08
1.42554252074e-06
-6.02960875277e-08
1.41447693964e-06
-6.30496344878e-08
1.4028577949e-06
-6.49596886744e-08
1.38977744604e-06
-6.71499383628e-08
1.37594765182e-06
-6.90363034086e-08
1.36075687537e-06
-7.07951324099e-08
1.34480788144e-06
-7.22888479076e-08
1.32797735616e-06
-7.36462214803e-08
1.31070634686e-06
-7.47107756463e-08
1.29302994767e-06
-7.54296007215e-08
1.27527669627e-06
-7.588494778e-08
1.25787990373e-06
-7.62393052667e-08
1.24057627502e-06
-7.61968956546e-08
-7.164816384e-08
1.21686688887e-06
6.44094857085e-07
4.34580490029e-07
1.25472101682e-06
-4.48384495581e-07
1.28543072682e-06
-6.93531232232e-08
1.27505225398e-06
-4.78823348213e-08
1.26510605617e-06
-5.15411496154e-08
1.25502107024e-06
-5.29844730802e-08
1.24383098825e-06
-5.43836576273e-08
1.23212044298e-06
-5.5641161094e-08
1.2198059619e-06
-5.69077314621e-08
1.20695505206e-06
-5.81697229819e-08
1.1936688709e-06
-5.91602514221e-08
1.17972542508e-06
-5.99463433107e-08
1.16523932718e-06
-6.03731582571e-08
1.15022971902e-06
-6.05749818349e-08
1.13452923164e-06
-6.0317899725e-08
1.11731924113e-06
-5.90687244651e-08
1.09791570289e-06
-5.68572880788e-08
-5.95146090437e-08
1.08578097979e-06
2.1809232579e-06
-6.34295165099e-07
1.11439117435e-06
6.18840471617e-07
1.07841121043e-06
-3.07173366474e-08
1.08371156006e-06
-5.33993357824e-08
1.07815772515e-06
-4.59125465007e-08
1.07051867395e-06
-4.60622599224e-08
1.06190151788e-06
-4.58337307161e-08
1.05272542143e-06
-4.65939442749e-08
1.04311646889e-06
-4.75473999869e-08
1.03346775492e-06
-4.85478976493e-08
1.02362621247e-06
-4.9560895021e-08
1.0139389477e-06
-5.03543432712e-08
1.00434761933e-06
-5.09869419623e-08
9.95029793024e-07
-5.13936663516e-08
9.86471964263e-07
-5.1801681757e-08
9.80268889332e-07
-5.30083135007e-08
9.79055388499e-07
-5.55696901964e-08
-5.23170143651e-08
9.71794220886e-07
-5.53306864366e-07
8.88345541722e-07
1.02887100187e-06
-9.59677215818e-07
1.01441821613e-06
-1.58225363898e-08
9.86683299949e-07
-2.38322168532e-08
9.76489521316e-07
-3.48582441423e-08
9.65625954471e-07
-3.43015107663e-08
9.54011320703e-07
-3.42358957441e-08
9.41227890153e-07
-3.39012868937e-08
9.27612223747e-07
-3.39461763804e-08
9.13053030448e-07
-3.4124468612e-08
8.9772889863e-07
-3.42387472682e-08
8.81715857906e-07
-3.44212043057e-08
8.65251576302e-07
-3.45002300177e-08
8.48313361596e-07
-3.44929142136e-08
8.30821971669e-07
-3.43903540761e-08
8.11253165873e-07
-3.34309035309e-08
7.86284579351e-07
-3.0597706133e-08
-3.55946693848e-08
7.69592721371e-07
2.81698563537e-06
-1.08019775027e-06
7.17346755817e-07
1.14537861924e-06
8.08798576069e-07
-1.02800259212e-07
8.3536732116e-07
-4.7777228924e-08
8.35055289031e-07
-3.34431058275e-08
8.3140556965e-07
-3.04390977948e-08
8.27326064005e-07
-2.97499196143e-08
8.23715947743e-07
-3.01679702981e-08
8.2043857865e-07
-3.06529949246e-08
8.17726263583e-07
-3.12912684764e-08
8.1543074178e-07
-3.18506926429e-08
8.13417937888e-07
-3.22766340202e-08
8.11519690266e-07
-3.25293678946e-08
8.09563278338e-07
-3.24591150518e-08
8.07343270741e-07
-3.20921428131e-08
8.06227072351e-07
-3.2243594115e-08
8.09870911976e-07
-3.42393677387e-08
-2.4882382576e-08
7.99307010339e-07
-1.37263038231e-06
1.03252764707e-06
9.8004323336e-07
-1.20122854941e-06
7.58723073162e-07
1.22099391125e-07
7.50036858228e-07
-3.62973435466e-08
7.30501694249e-07
-1.16885815222e-08
7.21203512486e-07
-2.00207583225e-08
7.08969112236e-07
-1.71683986344e-08
6.96400599336e-07
-1.74735417428e-08
6.83313956396e-07
-1.74790765439e-08
6.69883906289e-07
-1.77748825437e-08
6.56253100454e-07
-1.80643155811e-08
6.42381076498e-07
-1.82291198662e-08
6.28332961987e-07
-1.83053487304e-08
6.1431539786e-07
-1.82879296724e-08
6.00555774024e-07
-1.81985140788e-08
5.85695031793e-07
-1.72307043919e-08
5.65030783817e-07
-1.34894145861e-08
-2.34061905574e-08
5.63600413415e-07
2.35370154439e-06
-6.76506413598e-07
3.29128741723e-07
8.29015112126e-07
7.0641369856e-07
-2.51403443636e-07
6.62193890136e-07
1.38354332908e-08
6.80270712662e-07
-3.01549998043e-08
6.71165652207e-07
-1.01709102649e-08
6.6959034791e-07
-1.50569282177e-08
6.6578819309e-07
-1.34340332013e-08
6.62336843065e-07
-1.38937525585e-08
6.58715561062e-07
-1.399529386e-08
6.55150502601e-07
-1.4279915873e-08
6.51633872767e-07
-1.45841384773e-08
6.48348105887e-07
-1.48729174207e-08
6.45346991492e-07
-1.51426806979e-08
6.42715497835e-07
-1.5424008667e-08
6.42222172642e-07
-1.66142402436e-08
6.50495315498e-07
-2.16536404126e-08
-1.09081977622e-08
6.37952324221e-07
-7.63273191692e-07
6.49371844513e-07
8.49379956361e-07
-7.77918068404e-07
5.02910320505e-07
1.00279304188e-07
5.59312155583e-07
-3.68797348931e-08
5.28190262534e-07
2.23381055406e-09
5.27766720358e-07
-9.03087335621e-09
5.17991302201e-07
-4.63011607991e-09
5.10859683281e-07
-6.00189210495e-09
5.02856566896e-07
-5.71864671203e-09
4.95161578193e-07
-6.10363253686e-09
4.87476488662e-07
-6.36901708081e-09
4.79832559564e-07
-6.77596947181e-09
4.72287187869e-07
-7.20398694282e-09
4.64843570515e-07
-7.58048578982e-09
4.57401690407e-07
-7.86614991335e-09
4.48195467417e-07
-7.27759494283e-09
4.28107040956e-07
-1.57213254906e-09
-1.56786335807e-08
4.32962385422e-07
1.33394010947e-06
-1.92929609893e-07
4.60602150683e-07
1.02048471183e-07
6.06880495037e-07
-3.98751614522e-08
5.74140556866e-07
2.39074398931e-09
5.81468576592e-07
-3.32212234509e-09
5.74828883698e-07
-1.4732469625e-09
5.72950292548e-07
-2.01567873108e-09
5.69339512751e-07
-2.01851153933e-09
5.66049034731e-07
-2.20401716672e-09
5.62516993911e-07
-2.31987742974e-09
5.58902423463e-07
-2.48116734641e-09
5.54981162743e-07
-2.66892020679e-09
5.50766580454e-07
-2.84861784929e-09
5.46120210744e-07
-2.80291610633e-09
5.4067865836e-07
-2.28878758358e-09
5.36136632331e-07
-2.63727247193e-09
5.42861707862e-07
-8.21438479112e-09
9.33531058465e-09
5.17870475506e-07
2.27846173257e-07
3.30379413952e-07
2.91131278751e-07
2.93702601222e-07
2.90476685726e-07
2.8909149287e-07
2.87124078449e-07
2.8513500364e-07
2.82965181912e-07
2.80688957093e-07
2.78239804519e-07
2.75595873818e-07
2.72772175195e-07
2.69995826945e-07
2.67732922729e-07
2.65112911828e-07
2.56904839972e-07
2.66302677177e-07
-1.05852710209e-07
1.09640096694e-07
-1.89172719948e-07
8.15560670691e-08
-2.14094960196e-07
3.54701234119e-08
-2.2222808442e-07
1.125539369e-08
-2.24507336415e-07
1.73165259026e-08
-2.38202997329e-07
1.97422023453e-08
-2.40328042145e-07
1.29906065385e-08
-2.44646478023e-07
1.06383158567e-08
-2.46270170181e-07
9.57372336136e-09
-2.48679392715e-07
8.49095550655e-09
-2.50409005018e-07
7.29029865282e-09
-2.51420562989e-07
6.02729914785e-09
-2.52785093993e-07
4.913543782e-09
-2.53239925402e-07
4.12050179501e-09
-2.54876843451e-07
3.66021675324e-09
-2.5599223931e-07
3.57416250208e-09
-2.58731130535e-07
3.71604016612e-09
-2.61241226932e-07
4.06551118011e-09
-2.65322460102e-07
4.44555988014e-09
-2.6923031628e-07
4.84650792497e-09
-2.74351581204e-07
5.13556391402e-09
-2.79162474581e-07
5.33530786435e-09
-2.84687253158e-07
5.36134913531e-09
-2.89708918274e-07
5.26050064927e-09
-2.94945273495e-07
4.98940371893e-09
-2.99533808332e-07
4.59827220365e-09
-3.03945400577e-07
4.07595899908e-09
-3.07597381773e-07
3.47589197164e-09
-3.10760139845e-07
2.79997383239e-09
-3.13141065901e-07
2.08532568795e-09
-3.14833519651e-07
1.34384352864e-09
-3.15778921164e-07
5.97394129689e-10
-3.15930054031e-07
-1.37332024578e-10
-3.15399391821e-07
-8.55441340779e-10
-3.14060346674e-07
-1.53963257123e-09
-3.12115348495e-07
-2.1980430684e-09
-3.09415021481e-07
-2.81410587779e-09
-3.0617890152e-07
-3.40241413744e-09
-3.02278193493e-07
-3.94892839198e-09
-2.97886970181e-07
-4.4708850866e-09
-2.92936247304e-07
-4.95752003116e-09
-2.8750913543e-07
-5.4236970704e-09
-2.81636230902e-07
-5.86595331587e-09
-2.75274489252e-07
-6.29144335305e-09
-2.68588752957e-07
-6.7075798977e-09
-2.61390887981e-07
-7.10664699962e-09
-2.53967759653e-07
-7.51238347381e-09
-2.4605118008e-07
-7.90241030684e-09
-2.37972425226e-07
-8.30006727101e-09
-2.29431591292e-07
-8.68127542378e-09
-2.20772496945e-07
-9.07624520804e-09
-2.11693861492e-07
-9.43842395961e-09
-2.02457895633e-07
-9.8042982394e-09
-1.92894359639e-07
-1.01475245926e-08
-1.83139836696e-07
-1.04791569534e-08
-1.73110368776e-07
-1.07816082054e-08
-1.62843093296e-07
-1.10646297096e-08
-1.52358632119e-07
-1.1322041944e-08
-1.41589881599e-07
-1.15508919368e-08
-1.30651291818e-07
-1.17623748515e-08
-1.19402722506e-07
-1.1943580812e-08
-1.08010049379e-07
-1.20996988024e-08
-9.64053779158e-08
-1.2125147074e-08
-8.4783655876e-08
-1.21287183077e-08
-7.29856068001e-08
-1.21577018573e-08
-6.1097995403e-08
-1.21826357459e-08
-4.90950634272e-08
-1.22177367995e-08
-3.6965299705e-08
-1.22636303437e-08
-2.47763886623e-08
-1.23318900087e-08
-1.2436687929e-08
-1.23949106008e-08
-1.00441771594e-10
-1.24808839583e-08
1.23862719671e-08
-1.25434695902e-08
2.4800209512e-08
-1.26280326853e-08
3.73444015976e-08
-1.26634619483e-08
4.97765690033e-08
-1.27165962773e-08
6.22991691767e-08
-1.27140983787e-08
7.46650819739e-08
-1.27210715084e-08
8.70693776741e-08
-1.26737859498e-08
9.92605705275e-08
-1.26554729982e-08
1.115145746e-07
-1.25948160097e-08
1.23582037753e-07
-1.25997223672e-08
1.35793349157e-07
-1.26178904937e-08
1.47921184095e-07
-1.27820016759e-08
1.60497906766e-07
-1.30311510096e-08
1.73313582617e-07
-1.35465856929e-08
1.86986731368e-07
-1.42822463127e-08
2.01385878834e-07
-1.54276589552e-08
2.1696743447e-07
-1.69399302481e-08
2.33792716803e-07
-1.88008459976e-08
2.51834570816e-07
-2.12533445355e-08
2.72199725799e-07
-2.395072382e-08
2.95151548123e-07
-2.70455464526e-08
3.21106439859e-07
-3.03350497328e-08
3.49986983705e-07
-3.39153728696e-08
3.82320528248e-07
-3.77265857426e-08
4.18285997439e-07
-4.20926660901e-08
4.58896186121e-07
-4.70464844251e-08
5.0466572422e-07
-5.28888663163e-08
5.56491517806e-07
-5.90824933702e-08
6.13891358727e-07
-6.50285197347e-08
6.764896302e-07
-7.00282331774e-08
7.42189834837e-07
-7.2847088432e-08
8.0519542386e-07
-6.953681719e-08
8.52836167632e-07
-5.3615349699e-08
8.73256875687e-07
-2.58559821368e-08
8.64815163755e-07
3.11608174229e-09
8.30316356315e-07
2.91052153108e-08
8.06995593211e-07
1.70363790777e-08
8.35943441215e-07
-3.68764531812e-08
9.68634518039e-07
-1.43047774114e-07
9.07008202332e-07
4.92935963373e-08
6.61337359671e-07
2.34062605121e-07
5.05416276652e-07
1.48206391811e-07
4.14891341277e-07
8.47973412803e-08
3.56719730911e-07
5.34933482448e-08
3.17063324025e-07
3.56238910059e-08
2.88960702566e-07
2.45884385863e-08
2.685048064e-07
1.74000593115e-08
2.53396026606e-07
1.25196540617e-08
2.42208030277e-07
9.0905464335e-09
2.33876948287e-07
6.59690250462e-09
2.27751579325e-07
4.77006788334e-09
2.23109250865e-07
3.37324240921e-09
2.19579722345e-07
2.35765755915e-09
2.16611615285e-07
1.5977837062e-09
2.14067890879e-07
1.13444357953e-09
2.11502534394e-07
8.4045019279e-10
2.08893176506e-07
7.8801236864e-10
2.0580283588e-07
8.4912097845e-10
2.0228573974e-07
1.0874604688e-09
1.97825637841e-07
1.37439260828e-09
1.92441658181e-07
1.85847014725e-09
1.85448132508e-07
2.3523040573e-09
1.76765762815e-07
3.05600211463e-09
1.65610206968e-07
3.76317708922e-09
1.51992170139e-07
4.37197635977e-09
1.35687824515e-07
4.99041413849e-09
1.17787067245e-07
4.99423962776e-09
9.96022998379e-08
5.19562865815e-09
8.13437063824e-08
5.22307223704e-09
6.32630696715e-08
5.63915703838e-09
4.44392842856e-08
5.82635706452e-09
2.54249392148e-08
6.26332526148e-09
5.694541128e-09
6.22989453365e-09
-1.35633309851e-08
6.60167411767e-09
-3.3238342023e-08
6.41092488712e-09
-5.18878265408e-08
6.78073156253e-09
-7.05728417128e-08
6.47913439625e-09
-8.73239080584e-08
6.93243523336e-09
-1.03352201995e-07
6.55012036327e-09
-1.15985731983e-07
7.18057427722e-09
-1.2680807882e-07
6.70029655277e-09
-1.32170429827e-07
7.58310050026e-09
-1.34282788876e-07
6.95293080628e-09
-1.27999778916e-07
8.13536933497e-09
-1.16296195154e-07
7.20720761601e-09
-9.17785412785e-08
8.60881680182e-09
-5.83743947853e-08
7.09567099748e-09
-5.74058146761e-09
8.57847221622e-09
6.06981435461e-08
6.19609371625e-09
1.5481833027e-07
7.64898700498e-09
2.68831962031e-07
4.09258167189e-09
4.2074121515e-07
5.38402301311e-09
5.99461277473e-07
3.72727782726e-10
8.28100465452e-07
1.26858867437e-09
1.09223437228e-06
-5.93579000688e-09
1.42148158825e-06
-6.3926010302e-09
1.7979055565e-06
-1.6506468171e-08
2.25770709593e-06
-1.85999991423e-08
2.77830552128e-06
-3.05994529996e-08
3.40104856897e-06
-3.26921474197e-08
4.09918764858e-06
-4.43076432266e-08
4.91664338934e-06
-4.34110070738e-08
5.83370742723e-06
-6.08353462335e-08
6.91354633118e-06
-8.26437846094e-08
8.16247779125e-06
-1.47818454304e-07
9.6874660481e-06
-2.61894308142e-07
1.15165655702e-05
-4.48853998736e-07
1.37594625429e-05
-7.03369974241e-07
-9.33332607341e-07
1.63231232893e-05
-4.21790661707e-08
1.55991607705e-07
-6.20733078462e-08
1.0276474845e-07
-6.56278938502e-08
4.32163088894e-08
-6.11098541445e-08
8.59454851011e-09
-3.65674520954e-08
-3.26657163661e-09
-1.09971861242e-08
-3.16831885139e-09
5.78185519254e-09
5.56613127676e-10
1.54103762888e-08
4.57718709513e-09
2.12709619813e-08
7.84490658487e-09
2.34619090119e-08
1.00642479779e-08
2.28714570932e-08
1.13013622368e-08
2.04289483295e-08
1.17364244408e-08
1.61847748551e-08
1.16196976661e-08
1.15957904658e-08
1.11847700087e-08
6.23598651498e-09
1.05828361233e-08
1.57425051939e-09
9.93071721468e-09
-3.09817404188e-09
9.25220998514e-09
-6.54680213811e-09
8.58076550677e-09
-9.59340153151e-09
7.88878654702e-09
-1.12975962081e-08
7.18222442608e-09
-1.24763278905e-08
6.42967474824e-09
-1.24488049099e-08
5.63994807217e-09
-1.19228770681e-08
4.79121632149e-09
-1.04203003509e-08
3.89556029891e-09
-8.50974617225e-09
2.94115007042e-09
-5.87504676841e-09
1.94120369332e-09
-2.90382149613e-09
8.93294781923e-10
6.21438922774e-10
-1.90518803901e-10
4.48019670381e-09
-1.30865741697e-09
8.79709971537e-09
-2.45373501609e-09
1.35064841225e-08
-3.62133176306e-09
1.86562254982e-08
-4.80810291708e-09
2.42979724327e-08
-6.00737094272e-09
3.04208559471e-08
-7.22039089602e-09
3.71413669122e-08
-8.4401189775e-09
4.44119440035e-08
-9.66703856041e-09
5.23639932544e-08
-1.0895842645e-08
6.094390454e-08
-1.21249228194e-08
7.02569521218e-08
-1.3348299669e-08
8.02653590804e-08
-1.45617502951e-08
9.10179465265e-08
-1.57619668481e-08
1.02511034707e-07
-1.69409400639e-08
1.14712006947e-07
-1.80985791862e-08
1.27662008431e-07
-1.92236395849e-08
1.41236887027e-07
-2.03205224637e-08
1.55519575519e-07
-2.13751435644e-08
1.70315075246e-07
-2.23929093507e-08
1.85734525872e-07
-2.33590823886e-08
2.01528637242e-07
-2.42858353673e-08
2.17807926599e-07
-2.51463519512e-08
2.34359046834e-07
-2.59475055978e-08
2.51247811294e-07
-2.66799179125e-08
2.68307051859e-07
-2.73388549005e-08
2.85563263621e-07
-2.79142372503e-08
3.02899533351e-07
-2.84096267164e-08
3.20295016446e-07
-2.88175346904e-08
3.37703995087e-07
-2.913565435e-08
3.55053180159e-07
-2.93675151297e-08
3.72346817828e-07
-2.95099668826e-08
3.89469011863e-07
-2.95703545511e-08
4.06472457219e-07
-2.95419301006e-08
4.23267869535e-07
-2.94743902916e-08
4.40087115971e-07
-2.9418892771e-08
4.56732730435e-07
-2.92038999825e-08
4.73132547396e-07
-2.88796257689e-08
4.89149932849e-07
-2.84804869449e-08
5.04697810872e-07
-2.79696238325e-08
5.1964031352e-07
-2.73674527556e-08
5.3385832286e-07
-2.66841908965e-08
5.47278188097e-07
-2.59255999576e-08
5.59767694526e-07
-2.5101100903e-08
5.71299748455e-07
-2.42051117688e-08
5.81757486689e-07
-2.32536100402e-08
5.91146368562e-07
-2.22462124843e-08
5.99390288765e-07
-2.11982156608e-08
6.06535425881e-07
-2.01059558651e-08
6.12511226885e-07
-1.90037767308e-08
6.17378191178e-07
-1.78814947592e-08
6.21094475612e-07
-1.67673130487e-08
6.23742968842e-07
-1.56513967016e-08
6.25236108994e-07
-1.4573296954e-08
6.25635463642e-07
-1.3514813333e-08
6.24800236218e-07