/*--------------------------------*- C++ -*----------------------------------*\
| =========                 |                                                 |
| \\      /  F ield         | OpenFOAM: The Open Source CFD Toolbox           |
|  \\    /   O peration     | Version:  v1806                                 |
|   \\  /    A nd           | Web:      www.OpenFOAM.com                      |
|    \\/     M anipulation  |                                                 |
\*---------------------------------------------------------------------------*/
FoamFile
{
    version     2.0;
    format      ascii;
    class       volVectorField;
    location    "18";
    object      U;
}
// * * * * * * * * * * * * * * * * * * * * * * * * * * * * * * * * * * * * * //

dimensions      [0 1 -1 0 0 0 0];


internalField   nonuniform List<vector> 
12225
(
(9.73892093362 0.0399433597223 0)
(9.50286536377 0.0407225260205 0)
(9.24710714601 0.0401235264361 0)
(8.99633351631 0.0404245990065 0)
(8.75858004068 0.040371701989 0)
(8.5325829149 0.0399507910236 0)
(8.31667192718 0.0393989474289 0)
(8.1101552756 0.0388287666923 0)
(7.91254849916 0.0382763296653 0)
(7.72317934714 0.037766529464 0)
(7.54121924006 0.0373315919739 0)
(7.36577438824 0.037010063652 0)
(7.19588849063 0.0368476330472 0)
(7.03047313522 0.0369062772973 0)
(6.86816474145 0.0372895782272 0)
(6.70697352782 0.0382244094322 0)
(6.54389159313 0.0404460482786 0)
(6.36286545353 0.0406384009907 0)
(10.016535837 0.0713210947473 0)
(10.0365187464 0.0696411371667 0)
(10.0238742583 0.0669471717287 0)
(9.9959428147 0.0677212466554 0)
(9.96194097933 0.0684697366488 0)
(9.92292392029 0.0688027136967 0)
(9.87899777561 0.0690982483697 0)
(9.83084516737 0.0695057931401 0)
(9.7791807567 0.0700326262859 0)
(9.72443202202 0.070692008801 0)
(9.6667713724 0.0715380255932 0)
(9.60619816374 0.0726563411435 0)
(9.54254776222 0.074163067872 0)
(9.47543152634 0.0762282434519 0)
(9.40411515986 0.0791422743991 0)
(9.32725207575 0.0834934198198 0)
(9.24349714695 0.0907899107236 0)
(9.14166849809 0.106238333298 0)
(10.021220739 0.0580745678138 0)
(10.0533114232 0.0580134252279 0)
(10.0672890298 0.0563410919269 0)
(10.0714114154 0.0589610315717 0)
(10.0728487109 0.0617269173153 0)
(10.0721430115 0.0639272937776 0)
(10.0686883867 0.0660108470366 0)
(10.0624742797 0.0681845862232 0)
(10.053688694 0.0704674222234 0)
(10.0423837554 0.0728921219366 0)
(10.0284674628 0.0755565441383 0)
(10.0117694147 0.0786096562051 0)
(9.99205306208 0.0822499069664 0)
(9.96897748937 0.0867611432159 0)
(9.94204457034 0.0926061439026 0)
(9.91055031986 0.100625545027 0)
(9.87435078369 0.112489117814 0)
(9.82903166255 0.129724218526 0)
(10.0159794347 0.0476357663415 0)
(10.0431834858 0.0550730795612 0)
(10.0590053284 0.0567118294424 0)
(10.0663042702 0.0606560109125 0)
(10.0713474098 0.0643230258751 0)
(10.0752196389 0.0671480026698 0)
(10.077423113 0.0696873918337 0)
(10.0778421825 0.0722676357095 0)
(10.076585683 0.0749797175495 0)
(10.0736703192 0.0779017909538 0)
(10.0689859526 0.0811721676453 0)
(10.062359169 0.0849818841235 0)
(10.0535841245 0.0895759502164 0)
(10.0424166625 0.0952923529242 0)
(10.0285776453 0.102649043411 0)
(10.0118120825 0.11248185974 0)
(9.99246270441 0.126137883394 0)
(9.96907891154 0.14444073688 0)
(10.0116273467 0.0395568771798 0)
(10.0336631649 0.0510205222941 0)
(10.0487247926 0.0539257444652 0)
(10.056350956 0.057627920382 0)
(10.0615338016 0.0612870644316 0)
(10.0656732003 0.0643298841138 0)
(10.0684225183 0.0671664278102 0)
(10.0696237637 0.070121976108 0)
(10.0693633809 0.0733128875482 0)
(10.0676830228 0.0768290946179 0)
(10.0645135339 0.0808162119434 0)
(10.0597281254 0.0854771153912 0)
(10.0531851505 0.091074364247 0)
(10.044744494 0.0979631383039 0)
(10.0342980804 0.106655810217 0)
(10.0218559174 0.117897202924 0)
(10.0079116142 0.132711196746 0)
(9.99219362957 0.151736014301 0)
(10.008458562 0.0331138175028 0)
(10.0261167074 0.0467193092304 0)
(10.0399607334 0.0513069474065 0)
(10.0476748473 0.0556070535435 0)
(10.0528248103 0.0599404531756 0)
(10.0568853562 0.063737452373 0)
(10.0596699734 0.0672519724111 0)
(10.0610061766 0.070822674438 0)
(10.0609547227 0.0746258802237 0)
(10.0595720765 0.0787892184455 0)
(10.0568236506 0.0834779597961 0)
(10.0526242517 0.0889105081327 0)
(10.046887438 0.0953634082048 0)
(10.0395560399 0.103194759146 0)
(10.0306429286 0.112883614922 0)
(10.020311488 0.125058062102 0)
(10.0091041416 0.140469894966 0)
(9.99721613514 0.159600692301 0)
(10.0061305528 0.0279933901361 0)
(10.0201892222 0.0425181579318 0)
(10.0326024184 0.048624863475 0)
(10.0402134556 0.0534756198266 0)
(10.0452935745 0.0581789253285 0)
(10.0492321507 0.0623774388946 0)
(10.0519982346 0.0662679726243 0)
(10.0534306628 0.0702094232525 0)
(10.0535610935 0.0744312468469 0)
(10.0524479978 0.0790903117697 0)
(10.0500835384 0.0843597963454 0)
(10.0464202354 0.0904593741664 0)
(10.0414210207 0.0976624347582 0)
(10.0350967219 0.106308634189 0)
(10.0275471977 0.11682049186 0)
(10.019023948 0.129700039399 0)
(10.0100678932 0.145473837943 0)
(10.0009999864 0.164440729608 0)
(10.0044512934 0.0239200973634 0)
(10.0155997832 0.0385543787149 0)
(10.0265125155 0.0458714003271 0)
(10.033859701 0.0513033463816 0)
(10.0388669192 0.0563945188743 0)
(10.042720108 0.0610605352609 0)
(10.0455025806 0.0654630992282 0)
(10.0470775322 0.0699351981194 0)
(10.0474497829 0.0747222541666 0)
(10.046673971 0.0799949427589 0)
(10.0447663111 0.0859281446976 0)
(10.0417170226 0.0927368145353 0)
(10.0375354295 0.100682227419 0)
(10.0322883461 0.110073727476 0)
(10.0261361085 0.121267619425 0)
(10.0193753126 0.134646062696 0)
(10.0125164619 0.150557113814 0)
(10.0059234393 0.169143624552 0)
(10.0032417772 0.0206648596964 0)
(10.0120741636 0.0349114807338 0)
(10.0215270094 0.0430985345551 0)
(10.0284840899 0.0490980388527 0)
(10.0334001933 0.0545641661029 0)
(10.0371939576 0.0596514628598 0)
(10.040012763 0.0645130635489 0)
(10.0417536402 0.0694475882457 0)
(10.0424053752 0.0747088033625 0)
(10.0420190113 0.080485325324 0)
(10.0406326169 0.0869591220874 0)
(10.0382716387 0.0943398635594 0)
(10.034985725 0.102870135943 0)
(10.03088378 0.112820162558 0)
(10.0261624688 0.12447634062 0)
(10.0211311808 0.13811338507 0)
(10.0162475235 0.153941929171 0)
(10.0118675805 0.171989811287 0)
(10.002374382 0.0180433121105 0)
(10.0093900041 0.0316196774797 0)
(10.0174970368 0.040348027751 0)
(10.0239814123 0.0468489728332 0)
(10.0287831123 0.052668750361 0)
(10.0325437319 0.0581390189424 0)
(10.0354290649 0.0634324682183 0)
(10.0373715384 0.0688188396726 0)
(10.0383539356 0.0745507364143 0)
(10.038423571 0.0808267334718 0)
(10.0376349588 0.0878285312908 0)
(10.036042185 0.095750960666 0)
(10.033726083 0.104807046785 0)
(10.0308232638 0.115219771346 0)
(10.027546466 0.127205880081 0)
(10.0241960191 0.140948357401 0)
(10.0211679127 0.156555919334 0)
(10.0188191789 0.173981962586 0)
(10.0017519365 0.0159124750711 0)
(10.0073611361 0.0286870851677 0)
(10.0142804133 0.0376747799396 0)
(10.0202575509 0.0445717812974 0)
(10.0249272671 0.0507051067945 0)
(10.0286812578 0.0565106867681 0)
(10.031667956 0.0621901363438 0)
(10.0338490524 0.0679881030728 0)
(10.0352083917 0.0741449684509 0)
(10.0357900494 0.080858541146 0)
(10.0356596504 0.0883035624755 0)
(10.034892709 0.0966552090295 0)
(10.0335922261 0.106093781732 0)
(10.031910081 0.116795562882 0)
(10.0300596933 0.128916091232 0)
(10.0283181263 0.142566135411 0)
(10.0270154824 0.157783851538 0)
(10.0265052421 0.174481288803 0)
(10.0013399499 0.0142660144879 0)
(10.005964832 0.0262580534314 0)
(10.0119541438 0.0352924957051 0)
(10.017471175 0.0424545948983 0)
(10.0220140108 0.048833822511 0)
(10.0257876336 0.0549045373027 0)
(10.0289033292 0.0608929227514 0)
(10.0313404587 0.0670249685511 0)
(10.0330874267 0.0735247818805 0)
(10.0341861298 0.080582819798 0)
(10.0347077823 0.0883635696268 0)
(10.0347403486 0.0970220184809 0)
(10.0343983313 0.106707558234 0)
(10.0338372536 0.117555605856 0)
(10.033260358 0.129672293639 0)
(10.032916132 0.143115920835 0)
(10.0330788639 0.157878450625 0)
(10.0341097092 0.173849738096 0)
(10.001035016 0.0128933910382 0)
(10.0048932627 0.0240923953834 0)
(10.0100993396 0.0330016492373 0)
(10.0151867219 0.0403109102481 0)
(10.019604429 0.0468767213185 0)
(10.0234145546 0.0531604071473 0)
(10.0266840677 0.0594020281265 0)
(10.0294020376 0.0658128017675 0)
(10.0315627945 0.0725975495703 0)
(10.0332070603 0.0799334557267 0)
(10.0344085844 0.0879705904706 0)
(10.0352622358 0.0968422895357 0)
(10.035887785 0.106667744841 0)
(10.0364378114 0.117545188885 0)
(10.0370998865 0.129539418412 0)
(10.0380911484 0.142668362763 0)
(10.0396312529 0.156891836313 0)
(10.0420924616 0.172085247074 0)
(10.000785142 0.0115431239152 0)
(10.0039950493 0.0218541897605 0)
(10.0084968504 0.0304801456952 0)
(10.0131701518 0.0378285826309 0)
(10.0174755597 0.0445264803006 0)
(10.0213659644 0.0509849801309 0)
(10.0248586628 0.0574439058916 0)
(10.0279441224 0.0640977934745 0)
(10.0306214855 0.071127609014 0)
(10.0329295362 0.0786900660814 0)
(10.0349404018 0.0869149328054 0)
(10.0367492897 0.0959096839501 0)
(10.0384732061 0.105761325993 0)
(10.040253315 0.116530899098 0)
(10.0422531364 0.128245796758 0)
(10.044652451 0.140890655411 0)
(10.0476151678 0.154403511592 0)
(10.0515316727 0.168658470083 0)
(10.000593649 0.0102116748445 0)
(10.0032977421 0.0195500159158 0)
(10.0072212597 0.0277161702469 0)
(10.0115411601 0.0349420153007 0)
(10.0157740365 0.0416584129936 0)
(10.0198049402 0.0482016250194 0)
(10.023604935 0.0547921337259 0)
(10.0271582026 0.0616022811309 0)
(10.0304654099 0.0687844261727 0)
(10.0335614796 0.0764681864852 0)
(10.0365120893 0.0847569419273 0)
(10.0394051256 0.0937293300772 0)
(10.0423461163 0.10343954121 0)
(10.0454564188 0.113914945634 0)
(10.048868934 0.125151190283 0)
(10.0527226231 0.137109174509 0)
(10.057127043 0.149714012304 0)
(10.062495772 0.162845495973 0)
(10.0004623706 0.00886654394305 0)
(10.0028190612 0.0171321350717 0)
(10.0063369413 0.0246425945315 0)
(10.0104237705 0.0315387514039 0)
(10.0146712033 0.0381014982915 0)
(10.0189339103 0.0445816107582 0)
(10.0231473749 0.0511614833142 0)
(10.0272842428 0.0579827597271 0)
(10.0313417092 0.0651643057629 0)
(10.0353471825 0.0728032178426 0)
(10.0393544842 0.0809721074111 0)
(10.0434363099 0.0897192056637 0)
(10.0476785296 0.0990683186473 0)
(10.0521756814 0.109018414925 0)
(10.0570260335 0.119542052095 0)
(10.062327363 0.130585485223 0)
(10.0681389053 0.142070501456 0)
(10.0749018542 0.153887981073 0)
(10.0003913944 0.00743472790877 0)
(10.0025695041 0.0144781354778 0)
(10.0058953049 0.0210993724153 0)
(10.0099316744 0.0274028152655 0)
(10.0143377365 0.0335637680894 0)
(10.0189626286 0.0397496049203 0)
(10.0237192973 0.0460918846481 0)
(10.0285671302 0.0526929599281 0)
(10.0334943918 0.0596342987129 0)
(10.0385162337 0.0669773602492 0)
(10.0436691321 0.07476271947 0)
(10.0490042971 0.083009411557 0)
(10.0545815951 0.0917159057732 0)
(10.0604647861 0.100860082689 0)
(10.0667164935 0.110400779959 0)
(10.0733963075 0.120278590475 0)
(10.0805196599 0.130419852432 0)
(10.0885576535 0.140731239174 0)
(10.0003798483 0.00578547158324 0)
(10.0025576069 0.0113593067296 0)
(10.0059405875 0.0167919245066 0)
(10.0101670677 0.0221771517946 0)
(10.0149330993 0.0276147898291 0)
(10.0200898997 0.0331959756268 0)
(10.0255381478 0.0389950659656 0)
(10.0312246882 0.0450693239515 0)
(10.0371248011 0.0514600468288 0)
(10.0432372045 0.0581928131898 0)
(10.0495774501 0.0652773200277 0)
(10.0561718899 0.0727075297538 0)
(10.0630522004 0.0804623805399 0)
(10.0702512778 0.0885068443575 0)
(10.0777991616 0.0967935657272 0)
(10.0857231196 0.105264841792 0)
(10.0940040516 0.113855533809 0)
(10.1031425038 0.122489764471 0)
(10.0004435346 0.00366846544633 0)
(10.0028396284 0.0073187480465 0)
(10.0065948445 0.0111182054636 0)
(10.011328347 0.0151502365186 0)
(10.0167240602 0.0194401606739 0)
(10.0226296985 0.0240007562359 0)
(10.0289407085 0.0288459626273 0)
(10.0355938509 0.0339856969912 0)
(10.0425498779 0.0394214067159 0)
(10.0497896082 0.0451449944092 0)
(10.0573076276 0.0511397695935 0)
(10.0651064927 0.0573803291336 0)
(10.073191862 0.0638332238886 0)
(10.0815694393 0.0704574174915 0)
(10.0902420474 0.0772060139426 0)
(10.0992111852 0.0840276546271 0)
(10.1084309616 0.0908688239432 0)
(10.1184267371 0.097671391483 0)
(10.0005920862 0.00136272753234 0)
(10.0034251459 0.00292754210429 0)
(10.0078464877 0.00497232736281 0)
(10.0133288352 0.00754888621487 0)
(10.0194894068 0.0105837454617 0)
(10.0261756014 0.0140067660263 0)
(10.0332944414 0.0177785435336 0)
(10.0407821328 0.0218707774389 0)
(10.048590594 0.0262534230383 0)
(10.0566900775 0.0308944781276 0)
(10.065063721 0.0357606699508 0)
(10.0737008302 0.0408171378116 0)
(10.0825921911 0.0460259594367 0)
(10.0917282971 0.0513465818629 0)
(10.1010977028 0.0567362677002 0)
(10.1106895065 0.0621520457419 0)
(10.1204464087 0.0675515485913 0)
(10.1309008266 0.0728921804827 0)
(10.0007838141 -0.000883275159876 0)
(10.0041812796 -0.00126689456307 0)
(10.0094058561 -0.000741216497457 0)
(10.0156896213 0.000643193170828 0)
(10.0225679518 0.00265957636364 0)
(10.0299179452 0.00515244450686 0)
(10.0376810994 0.0080431553521 0)
(10.0458012699 0.011275251255 0)
(10.0542282747 0.0147937357091 0)
(10.0629309996 0.0185491702098 0)
(10.0718909752 0.022498629301 0)
(10.0810929699 0.026603050987 0)
(10.0905207671 0.0308235539249 0)
(10.1001571088 0.0351213487513 0)
(10.1099838777 0.0394574353217 0)
(10.119985152 0.043794178183 0)
(10.1300998571 0.0480951841007 0)
(10.1408765922 0.0523245099708 0)
(10.0010750421 -0.00333249668866 0)
(10.0052936507 -0.0056756619591 0)
(10.0115652004 -0.00647741931676 0)
(10.0187500706 -0.00605692631584 0)
(10.0263323844 -0.00487845800439 0)
(10.0342846457 -0.00316955037788 0)
(10.0426025216 -0.00102143392553 0)
(10.0512357293 0.00149004029469 0)
(10.0601336084 0.00429094053365 0)
(10.0692714507 0.00732006292888 0)
(10.0786363412 0.0105298968218 0)
(10.0882130212 0.0138794915085 0)
(10.0979820391 0.0173294173457 0)
(10.1079220354 0.0208409209275 0)
(10.1180108383 0.0243773923904 0)
(10.128228471 0.0279042911357 0)
(10.1385090698 0.0313905444237 0)
(10.1493964637 0.0348068928553 0)
(10.0015389003 -0.00613342105759 0)
(10.0069490438 -0.0104266740509 0)
(10.0145422415 -0.0122655049348 0)
(10.0226739955 -0.0125418956873 0)
(10.0308979383 -0.0120252698213 0)
(10.0393817081 -0.0109660958525 0)
(10.0481871912 -0.00945356767215 0)
(10.0572621483 -0.00758873288919 0)
(10.0665596899 -0.0054647967552 0)
(10.0760657407 -0.00314236189138 0)
(10.0857726343 -0.000660992617624 0)
(10.09566419 0.00194477022535 0)
(10.105717347 0.00464053329862 0)
(10.1159090115 0.00739112514354 0)
(10.1262168679 0.0101626881886 0)
(10.1366218883 0.012924100189 0)
(10.1470614068 0.0156454988653 0)
(10.1581001098 0.0182973452165 0)
(10.0022661883 -0.00948254083241 0)
(10.0094016988 -0.015595452033 0)
(10.0185984143 -0.0180253961421 0)
(10.027637521 -0.0187037488066 0)
(10.0363904597 -0.0186631647289 0)
(10.0453118133 -0.0180596933896 0)
(10.0544999273 -0.0169579200365 0)
(10.0638860306 -0.0154932399153 0)
(10.0734398511 -0.0137819163168 0)
(10.0831733635 -0.0118907651321 0)
(10.0930912813 -0.00986000315775 0)
(10.1031775955 -0.00772306949791 0)
(10.1134059184 -0.00551219669034 0)
(10.1237482597 -0.00325673581142 0)
(10.1341771784 -0.000984334104763 0)
(10.1446682066 0.001276523212 0)
(10.1551506213 0.0034957955191 0)
(10.1661669493 0.00564245844028 0)
(10.0034924568 -0.0136649021364 0)
(10.0130795979 -0.0212077579078 0)
(10.0240898196 -0.023654555099 0)
(10.0338920686 -0.0245371069061 0)
(10.04307598 -0.024959001017 0)
(10.0524231771 -0.0248728364137 0)
(10.0619960495 -0.0243151161576 0)
(10.0716885223 -0.0234328942585 0)
(10.0814916958 -0.0223288729847 0)
(10.0914434809 -0.0210515996729 0)
(10.1015582063 -0.0196325791275 0)
(10.1118207905 -0.0181027059523 0)
(10.1222048494 -0.0164911899021 0)
(10.1326834547 -0.0148228398868 0)
(10.1432287914 -0.0131195310385 0)
(10.1538132821 -0.0114049481414 0)
(10.164363991 -0.00971106247855 0)
(10.1754490958 -0.0080850468477 0)
(10.0053646176 -0.0190425552517 0)
(10.0183283164 -0.0271394419767 0)
(10.0311747808 -0.0289043687477 0)
(10.0414171821 -0.0296112723472 0)
(10.050818875 -0.0299893323169 0)
(10.0604374359 -0.0298230353517 0)
(10.070243706 -0.0292447926632 0)
(10.0801119121 -0.0284466674238 0)
(10.0900660181 -0.02750961463 0)
(10.1001613422 -0.0264552105652 0)
(10.1104112517 -0.0253023371866 0)
(10.1207973301 -0.0240765480687 0)
(10.1312937278 -0.0228007456643 0)
(10.141875148 -0.0214895024467 0)
(10.1525116975 -0.0201513447798 0)
(10.1631644307 -0.018795770384 0)
(10.1737337387 -0.0174466351111 0)
(10.1847160481 -0.0161632377938 0)
(10.0085263529 -0.0261035749026 0)
(10.0259701927 -0.0332322418036 0)
(10.0405119714 -0.034427192054 0)
(10.0510376648 -0.0358775628282 0)
(10.0607167138 -0.0370392927113 0)
(10.0706294948 -0.0374551830637 0)
(10.0806104782 -0.0373879223262 0)
(10.0905649044 -0.0370804238025 0)
(10.1005732218 -0.036604392004 0)
(10.1107072544 -0.0359738276351 0)
(10.1209763797 -0.0352125219169 0)
(10.1313604211 -0.0343547247297 0)
(10.1418384617 -0.0334293238075 0)
(10.1523925429 -0.0324518605526 0)
(10.1629976362 -0.0314249142097 0)
(10.1736114579 -0.0303430292994 0)
(10.1841130484 -0.0292091725495 0)
(10.1949507762 -0.0280822121059 0)
(10.0128352669 -0.035334835341 0)
(10.0355092746 -0.0375280488894 0)
(10.0504902259 -0.0357102882904 0)
(10.0603825389 -0.0362265091317 0)
(10.0697168256 -0.0369977561583 0)
(10.0792155004 -0.0372850624606 0)
(10.0885215226 -0.0373191923369 0)
(10.0975948161 -0.0372723990561 0)
(10.1065798617 -0.0371510836564 0)
(10.1155683635 -0.0369292287564 0)
(10.1245747118 -0.0366067226696 0)
(10.1335896102 -0.0362018031696 0)
(10.1426110397 -0.0357319550138 0)
(10.1516439894 -0.0352036117365 0)
(10.1606873475 -0.0346073593378 0)
(10.1697173363 -0.0339103977917 0)
(10.1786019539 -0.0330483300232 0)
(10.1875304108 -0.0319186353874 0)
(10.01631576 -0.0493255667142 0)
(10.0398677533 -0.050816738774 0)
(10.0460867324 -0.0486450345009 0)
(10.0445746313 -0.0486442432912 0)
(10.0415224475 -0.0487240642012 0)
(10.0375276983 -0.0483987558167 0)
(10.0323573651 -0.0479175128906 0)
(10.0262587421 -0.0474231495957 0)
(10.0196192527 -0.0469202730375 0)
(10.012704297 -0.0463883419667 0)
(10.0056634757 -0.0458241075199 0)
(9.99860399975 -0.0452363741165 0)
(9.99162653711 -0.044633222506 0)
(9.98482750759 -0.0440147823438 0)
(9.9782937348 -0.0433677745423 0)
(9.97210486987 -0.0426480172874 0)
(9.96629280707 -0.0417399421042 0)
(9.96081071596 -0.0399598372063 0)
(9.8527844089 -0.0292040384899 0)
(9.72369193952 -0.0315356826611 0)
(9.57952942041 -0.0315920004209 0)
(9.43674231286 -0.0321541415041 0)
(9.30180175636 -0.0324464583051 0)
(9.17426913151 -0.0323831317069 0)
(9.0531546003 -0.0321335096088 0)
(8.93816885348 -0.0317970520699 0)
(8.82922156903 -0.0314045535749 0)
(8.72611610947 -0.0309678955528 0)
(8.62856481476 -0.0304994474955 0)
(8.53627395362 -0.0300121281176 0)
(8.44898217775 -0.0295158174388 0)
(8.36645820842 -0.029015493468 0)
(8.2884931903 -0.0285093201196 0)
(8.21490694436 -0.0279784527254 0)
(8.14578834199 -0.0273560019551 0)
(8.07948029453 -0.025990883536 0)
(0.0299970885604 -0.11461690853 1.94582566804e-19)
(0.0645910132728 -0.113915386945 0)
(0.09492412056 -0.116170365927 0)
(0.0857413794531 -0.0784369329687 0)
(0.0446098521416 0.0203361741176 0)
(-0.0879693337933 0.135516188309 -1.35025194191e-19)
(-0.20270418689 0.150955575428 0)
(-0.328260633976 0.157143000995 0)
(-0.461753516841 0.162590775431 4.51124745164e-20)
(-0.602127318734 0.167215651433 0)
(-0.748515541786 0.170940546284 -3.16199718932e-20)
(-0.900138257431 0.173822950711 0)
(-1.05629090188 0.175955170438 -2.52041242592e-20)
(-1.21634495307 0.177432460411 -2.32631599765e-20)
(-1.37973867904 0.178342822625 0)
(-1.54597386909 0.178765376009 2.08073867383e-20)
(-1.71460805943 0.178769749217 2.0059850803e-20)
(-1.8852506163 0.17841729589 1.9534373386e-20)
(-2.05755649878 0.17776125803 0)
(-2.23122223316 0.176848057399 0)
(-2.40598036014 0.175717263334 0)
(-2.58159538431 0.174402651008 0)
(-2.75785866204 0.172932036348 0)
(-2.93458439873 0.171328213684 0)
(-3.11160470286 0.169608654277 -1.92031215156e-20)
(-3.28876562311 0.167786401012 -1.94148170278e-20)
(-3.46592211306 0.165869769607 0)
(-3.64293414092 0.163863189173 1.99358642021e-20)
(-3.81966186027 0.16176693629 2.02345788683e-20)
(-3.99596187536 0.159578005435 2.05529825445e-20)
(-4.17168253029 0.157289955683 0)
(-4.34666043979 0.154893843009 0)
(-4.52071638096 0.152378167968 -2.15930566937e-20)
(-4.69365255258 0.149729903732 0)
(-4.86524932144 0.146934614382 0)
(-5.03526344476 0.143977583257 -2.27043988447e-20)
(-5.20342631367 0.140844032948 0)
(-5.36944392777 0.137520354785 0)
(-5.5329970799 0.133994397006 0)
(-5.6937434006 0.130256625993 0)
(-5.85131960411 0.126300325239 0)
(-6.00534545953 0.122122598188 4.98224625952e-20)
(-6.15542795564 0.117724462195 0)
(-6.30116729539 0.113111591022 0)
(-6.44216299349 0.108294075499 5.18088738979e-20)
(-6.57802129363 0.103286562101 5.24143381854e-20)
(-6.70836181194 0.098107633322 0)
(-6.83282453416 0.092779480035 0)
(-6.95107530192 0.0873270657137 5.40155899243e-20)
(-7.06281081846 0.0817774598295 0)
(-7.16776158313 0.0761591232939 -5.48763295967e-20)
(-7.26569477923 0.070501106227 0)
(-7.35641576073 0.0648321520431 5.55507611492e-20)
(-7.43977007828 0.0591794410845 0)
(-7.51564509488 0.0535679653552 5.60257384337e-20)
(-7.58397077702 0.0480201525525 5.6185517282e-20)
(-7.64471960095 0.0425555160379 0)
(-7.69790049088 0.0371895902129 0)
(-7.74355133194 0.0319340435734 0)
(-7.78173207799 0.0267988639787 5.6289955576e-20)
(-7.81252394183 0.0217963196763 0)
(-7.83604279574 0.0169359338336 0)
(-7.85243634827 0.0122147760045 0)
(-7.86187898527 0.00762349750998 0)
(-7.86457159461 0.00319453537661 0)
(-7.86082563629 -0.00098073917691 0)
(-7.85101959171 -0.00482997079198 0)
(-7.83558449774 -0.00833414057716 -5.36804266077e-20)
(-7.81497774094 -0.0114954084181 0)
(-7.78965760547 -0.0143293292374 -5.24878320132e-20)
(-7.76006842531 -0.0168616540579 -5.18334940042e-20)
(-7.72662443323 -0.0191262012915 0)
(-7.68969257033 -0.0211651598306 5.04193150313e-20)
(-7.64957361828 -0.0230288364201 0)
(-7.60648302672 -0.0247773879468 -4.88670047034e-20)
(-7.56053072276 -0.026481253698 0)
(-7.51170049956 -0.0282238321875 4.71568860475e-20)
(-7.45982707542 -0.030101769532 -4.62269046666e-20)
(-7.40456902944 -0.0322273374124 0)
(-7.34537483947 -0.0347282240604 0)
(-7.28144357786 -0.0377490457231 0)
(-7.211681912 -0.04144622326 0)
(-7.13466374129 -0.0459822604767 -4.02481213679e-20)
(-7.04860367644 -0.0515117939082 3.86113701573e-20)
(-6.9513692468 -0.0581662356422 -7.34832375121e-20)
(-6.840551334 -0.0660267272736 -6.91807757586e-20)
(-6.71359882087 -0.0750997877659 -6.42115034601e-20)
(-6.56800684504 -0.0852916003763 0)
(-6.40154337776 -0.0963995492962 0)
(-6.21249224014 -0.108112731691 0)
(-5.99986077894 -0.12003432901 -3.56225517817e-20)
(-5.76353658257 -0.131725522076 0)
(-5.50434774145 -0.142747232118 0)
(-5.22403507468 -0.152703538407 -2.6360398188e-21)
(-4.92513259502 -0.161272542445 0)
(-4.61081716242 -0.168225058867 -2.60411954679e-20)
(-4.28469602376 -0.173419497 0)
(-3.95056523171 -0.176779549061 6.12975383186e-20)
(-3.61218918813 -0.178260477644 0)
(-3.27318308768 -0.177795553208 0)
(-2.93675351617 -0.175264340597 0)
(-2.6057078017 -0.170590553832 1.62564730128e-19)
(-2.28225043149 -0.163768836532 0)
(-1.96828285206 -0.155116745088 2.42069108473e-19)
(-1.66525102331 -0.145610491241 2.95830230885e-19)
(-1.37480921361 -0.137569936872 0)
(-1.09696883253 -0.133069003605 0)
(-0.833094866509 -0.134111141329 0)
(-0.584957815536 -0.141522001325 7.88025590741e-19)
(-0.340192987559 -0.15591866706 0)
(-0.117235618166 -0.174637603824 0)
(0.166849097875 -0.170680505479 2.10685896964e-18)
(0.357212535221 -0.145806702619 1.36542510991e-18)
(0.52913192071 -0.122051081576 0)
(0.693163555296 -0.102595250619 -7.64828626855e-19)
(0.846344768012 -0.0869437140934 -6.45510497243e-19)
(0.987303860758 -0.0741374069417 5.65556857077e-19)
(1.11596374689 -0.0634350538008 0)
(1.23270177963 -0.0543323551218 0)
(1.33805322503 -0.0464753640631 0)
(1.43261629641 -0.0396205054536 -4.05500609689e-19)
(1.51699986591 -0.0335865088569 0)
(1.59180733857 -0.0282433095819 -3.6677510262e-19)
(1.65762375926 -0.0234854994554 0)
(1.71502255413 -0.0192358854698 0)
(1.76455758087 -0.0154259106108 0)
(1.80676727863 -0.0120048810547 3.2275377508e-19)
(1.84216168526 -0.00892603216442 3.16125768546e-19)
(1.87122874382 -0.00615872314958 0)
(1.89442821585 -0.0036777072384 0)
(1.91220380972 -0.00147797920966 0)
(1.92498243742 0.000429319084432 0)
(1.93320443251 0.00201005145198 0)
(1.93758669793 0.00325589247264 0)
(1.93895203409 0.00423201823923 5.92280282299e-19)
(1.9374969228 0.00503797926979 0)
(1.93342781557 0.00572080685403 0)
(1.92695283072 0.00629789430238 0)
(1.9182884578 0.00677910412305 -5.92279198199e-19)
(1.90764595736 0.00717593692295 -5.94302718514e-19)
(1.89522567628 0.00749791397736 5.97013795297e-19)
(1.88121196266 0.00775426068196 6.00364392402e-19)
(1.865772721 0.00795246949005 0)
(1.84905953106 0.00809876086122 0)
(1.83121049426 0.00819826393952 0)
(1.81235314822 0.00825610656528 6.19404106661e-19)
(1.79260539236 0.00827662039522 0)
(1.77207631191 0.00826464530397 0)
(1.75086735945 0.00822389917938 -6.38867926978e-19)
(1.72907165354 0.00815719662026 0)
(1.70677401092 0.00806666304686 -6.540239877e-19)
(1.68405281581 0.00795527798081 0)
(1.66098091646 0.00782575272886 -6.70796059648e-19)
(1.63762575908 0.00767998969528 0)
(1.6140490141 0.00751898340748 0)
(1.5903054143 0.00734431636477 0)
(1.56644394363 0.00715959390165 0)
(1.5425111077 0.00696776279018 0)
(1.51854909031 0.00676745073398 0)
(1.49459102365 0.00655805510184 0)
(1.47066362502 0.00634348863707 0)
(1.44679377999 0.00612931113742 -7.64512564447e-19)
(1.42300354752 0.00591624424396 0)
(1.39930449094 0.00570483245215 0)
(1.37570040603 0.00549685807169 -8.02183033363e-19)
(1.35219028072 0.00529442005281 0)
(1.32876561193 0.0050969313928 0)
(1.30540264466 0.00490663551569 -8.43428866738e-19)
(1.28206194818 0.00473217869971 0)
(1.25869130519 0.00458076878024 0)
(1.235217487 0.00445268308672 -8.89188840245e-19)
(1.21153183339 0.00435210111182 9.05785161946e-19)
(1.18748089442 0.00429225685374 -9.23273878492e-19)
(1.16286086484 0.00429738499726 0)
(1.13739016434 0.00439662471981 0)
(1.11064504751 0.00463482747799 -1.96756422151e-18)
(1.08199687274 0.00509124411835 0)
(1.04994806924 0.00597443037231 2.07321725266e-18)
(1.01652364431 0.00745930780993 2.1422946903e-18)
(0.936743750212 0.0144474991405 0)
(-0.00419598897201 -0.127109372936 -5.99013716934e-19)
(-0.0462593540014 -0.0207383247456 0)
(-0.14934500771 0.129128317951 2.09518117843e-19)
(-0.243965414035 0.206620304223 -1.32824945983e-19)
(-0.338020724792 0.268886314773 -9.6633132645e-20)
(-0.436689105998 0.320874311081 3.83759378918e-20)
(-0.545407680907 0.354216579585 6.54594844162e-20)
(-0.665713964663 0.379541694617 0)
(-0.795866787561 0.399962024667 -2.47853434391e-20)
(-0.933847412334 0.416609254959 4.5197409609e-20)
(-1.07820401369 0.430169903714 6.18207518925e-20)
(-1.22785920016 0.441131691686 -3.85931002721e-20)
(-1.38195519917 0.449868747045 5.43569711123e-20)
(-1.53978271077 0.456684970387 1.71064052873e-20)
(-1.70074021391 0.461835771728 0)
(-1.86431175269 0.465541284923 -1.61529457841e-20)
(-2.03005069811 0.467993050604 -1.59084802496e-20)
(-2.19756953884 0.469359205067 -1.57811253701e-20)
(-2.36653082592 0.469786806716 3.21309920814e-20)
(-2.53664070599 0.469404549365 0)
(-2.70764246929 0.468323642831 3.24292065821e-20)
(-2.87931132806 0.466639608902 0)
(-3.05144901299 0.464432540709 -3.3172730048e-20)
(-3.2238793308 0.46176858542 0)
(-3.39644317969 0.458699941337 5.10776324544e-20)
(-3.56899431266 0.455266134864 -1.76871080094e-20)
(-3.74139450696 0.451493949513 -3.55157743959e-20)
(-3.91350948446 0.44739862909 -5.4084440959e-20)
(-4.08520422401 0.442983820095 -1.82389921486e-20)
(-4.25633895103 0.438242878658 -1.86289000638e-20)
(-4.42676450965 0.433159044295 0)
(-4.59631860406 0.427706975138 -3.93322492816e-20)
(-4.76482166409 0.421853261381 1.9857366655e-20)
(-4.93207365914 0.415558385634 0)
(-5.09785075237 0.408777759832 0)
(-5.26190315571 0.401464141557 2.11334845506e-20)
(-5.42395325655 0.393569177817 0)
(-5.58369526788 0.385046323435 0)
(-5.74079555921 0.375852725523 0)
(-5.8948946658 0.365952208874 0)
(-6.04560989355 0.35531706087 0)
(-6.19253938497 0.343930698217 4.81431180723e-20)
(-6.33526683841 0.331789100173 9.70383051561e-20)
(-6.47336802842 0.31890277713 0)
(-6.60641794787 0.305297134799 5.04577673922e-20)
(-6.73399920688 0.291012751284 -5.03460258367e-20)
(-6.85570951721 0.276104197828 0)
(-6.97116931579 0.26063882718 0)
(-7.08002824455 0.244694586375 -1.57758669066e-19)
(-7.18196986506 0.228357833626 -1.06594505473e-19)
(-7.27671757723 0.211721102029 5.34425906986e-20)
(-7.36403598668 0.194880309879 1.08642747282e-19)
(-7.44373422785 0.177931905328 5.51355079073e-20)
(-7.51566801881 0.160969643205 0)
(-7.57973639278 0.144083078328 -1.66170553279e-19)
(-7.63589650985 0.127356193312 -5.54646085454e-20)
(-7.6841464724 0.110864594081 0)
(-7.72452481954 0.0946735859468 1.12479654785e-19)
(-7.75709708011 0.0788410482788 -1.12758673515e-19)
(-7.78191896355 0.0634265925477 -5.61732748427e-20)
(-7.79913128366 0.0484935816825 0)
(-7.80887816849 0.0340924661987 0)
(-7.8113376314 0.0202572263315 0)
(-7.80663830679 0.007060352792 1.12306237664e-19)
(-7.79560341893 -0.00531480349296 0)
(-7.77860638399 -0.0167225443005 -1.10800909346e-19)
(-7.75600651149 -0.0271314843676 0)
(-7.72823556778 -0.036543895437 -5.46018678605e-20)
(-7.69570922014 -0.0449823173242 0)
(-7.65884227726 -0.0524871485959 -5.34361113405e-20)
(-7.61804309871 -0.0591167998675 -5.28002895816e-20)
(-7.57370213247 -0.0649483955386 0)
(-7.52617560927 -0.0700819760959 -5.12248394436e-20)
(-7.47576511467 -0.0746442952487 0)