/*--------------------------------*- C++ -*----------------------------------*\
| =========                 |                                                 |
| \\      /  F ield         | OpenFOAM: The Open Source CFD Toolbox           |
|  \\    /   O peration     | Version:  v1806                                 |
|   \\  /    A nd           | Web:      www.OpenFOAM.com                      |
|    \\/     M anipulation  |                                                 |
\*---------------------------------------------------------------------------*/
FoamFile
{
    version     2.0;
    format      ascii;
    class       volVectorField;
    location    "18";
    object      Ua;
}
// * * * * * * * * * * * * * * * * * * * * * * * * * * * * * * * * * * * * * //

dimensions      [0 1 -1 0 0 0 0];


internalField   nonuniform List<vector> 
12225
(
(0.0601387739105 51.838333507 0)
(0.986182955513 12.4313323946 0)
(0.73494833825 12.1582322208 0)
(0.845509581187 11.9965858006 0)
(0.829399671821 11.8142202459 0)
(0.858974636231 11.7120064705 0)
(0.87256960495 11.644487246 0)
(0.90177975012 11.6286834565 0)
(0.945156983443 11.6227064044 0)
(1.01191315558 11.5756025157 0)
(1.09969756082 11.4209244199 0)
(1.19350365059 11.1016184938 0)
(1.26418717272 10.6066197862 0)
(1.29728950822 10.0135469004 0)
(1.36756390255 9.45489995228 0)
(1.71063830404 8.87859705207 0)
(2.52510711578 7.56759625211 0)
(3.10797305876 4.01823299429 0)
(2.59780868146 -45.4070453935 0)
(1.07022747419 -8.10609736757 0)
(1.21965629666 -8.16451711495 0)
(1.20657822921 -8.01358925726 0)
(1.25021495283 -7.9304950298 0)
(1.28594963788 -7.82971788196 0)
(1.33340604638 -7.70375097609 0)
(1.39208974387 -7.53890624652 0)
(1.46590011556 -7.32263427988 0)
(1.55396677611 -7.05356183153 0)
(1.65116303657 -6.73573891192 0)
(1.74319932427 -6.38027724564 0)
(1.81221796447 -6.00000346966 0)
(1.86187773956 -5.59489412899 0)
(1.96262687741 -5.12850508175 0)
(2.25625441891 -4.53124028586 0)
(2.74276469252 -3.79813243993 0)
(2.80994364831 -3.14256164247 0)
(-1.00648529296 33.6856098467 0)
(1.25454105897 4.04130309499 0)
(0.840212824346 4.08302833061 0)
(0.977843045905 3.90285974382 0)
(0.930383297999 3.7682907852 0)
(0.951851507836 3.61153487869 0)
(0.959158544199 3.44019114287 0)
(0.985261430402 3.25649111552 0)
(1.02213997961 3.05647665284 0)
(1.07192040229 2.8375069765 0)
(1.12715114245 2.59241189044 0)
(1.17497415654 2.31156626774 0)
(1.20232203266 1.98953206986 0)
(1.22094817152 1.63326470004 0)
(1.29974615181 1.2592086563 0)
(1.54278554789 0.845888614447 0)
(1.90302987142 0.243242550413 0)
(1.96526717346 -0.71716665136 0)
(2.78402154552 -23.9261493059 0)
(0.771420034235 -2.28011415649 0)
(1.11902473701 -1.87097473613 0)
(1.02850628295 -1.86936303469 0)
(1.06575243463 -1.70901009391 0)
(1.07281273484 -1.59087445841 0)
(1.09532442281 -1.44736655082 0)
(1.12643967458 -1.30312339314 0)
(1.16930642184 -1.15342372522 0)
(1.22123446377 -1.00436520406 0)
(1.27428020416 -0.858953139194 0)
(1.31503894744 -0.720690510384 0)
(1.33278570741 -0.585257635912 0)
(1.3396291076 -0.438605210488 0)
(1.38823287726 -0.274107302529 0)
(1.53343927101 -0.15364627193 0)
(1.69974293739 -0.261133363958 0)
(1.64322175466 -0.718615302804 0)
(-0.763833044689 16.4499609121 0)
(1.13293321316 1.33923707538 0)
(0.879305930444 0.702914712334 0)
(0.975636295267 0.778135095053 0)
(0.953685222313 0.661843990223 0)
(0.973615887104 0.6011713564 0)
(0.9897001125 0.526207201586 0)
(1.02016806474 0.451329753279 0)
(1.06146242093 0.367129883641 0)
(1.11332178936 0.270327048391 0)
(1.16857158848 0.158474014557 0)
(1.21698240945 0.03487327565 0)
(1.2526665167 -0.0857406374339 0)
(1.28877415201 -0.177666011247 0)
(1.36054187381 -0.224995820566 0)
(1.48120906178 -0.271474955284 0)
(1.56597343726 -0.43046768411 0)
(1.47847579352 -0.726359540512 0)
(1.66260633342 -8.71900821913 0)
(1.04449058941 -0.70265775963 0)
(0.982797411923 -0.390567389933 0)
(1.01254565657 -0.419177217359 0)
(1.01012690019 -0.341288074084 0)
(1.02349096942 -0.283954107386 0)
(1.03705290863 -0.215841195115 0)
(1.06013275233 -0.152411206225 0)
(1.09048034858 -0.0983979604729 0)
(1.1272211701 -0.0633077662594 0)
(1.16467057303 -0.0542909412183 0)
(1.19644802156 -0.0735813190304 0)
(1.22213112497 -0.113027571656 0)
(1.25603865913 -0.157201234011 0)
(1.32036997234 -0.201975975891 0)
(1.40680541538 -0.282013023246 0)
(1.44422522445 -0.448616525046 0)
(1.36201182719 -0.664690281577 0)
(0.578563775761 3.46395500123 0)
(1.00227442723 0.104672359582 0)
(0.957159993152 0.0513529265901 0)
(0.990162975481 0.0100222210466 0)
(0.99264273064 -0.0158027123888 0)
(1.00972979501 -0.0372999376878 0)
(1.0278357929 -0.0480075001458 0)
(1.05353776351 -0.0542367177408 0)
(1.08442185916 -0.0588407092321 0)
(1.11858978523 -0.0678788574309 0)
(1.15100780059 -0.0860050203006 0)
(1.1775520888 -0.11457439708 0)
(1.20034386209 -0.148781785135 0)
(1.23141396977 -0.183077870037 0)
(1.28191685277 -0.225450910901 0)
(1.33560016702 -0.306294585761 0)
(1.34313473612 -0.446311116414 0)
(1.27257016536 -0.601046558512 0)
(0.942673236584 -0.805825083592 0)
(1.03189446204 -0.0810339447758 0)
(0.962004523307 -0.0581438967599 0)
(0.996312969854 -0.0673265645426 0)
(0.996800787243 -0.0614393793186 0)
(1.01246330132 -0.0597638385658 0)
(1.02880915086 -0.0560276685155 0)
(1.05185944243 -0.0554153253248 0)
(1.07892625122 -0.0597057009779 0)
(1.10795761781 -0.0723114525299 0)
(1.13481732548 -0.0947649182959 0)
(1.15715829947 -0.125608960903 0)
(1.17783970407 -0.159942240122 0)
(1.20496996138 -0.195546285892 0)
(1.24145649056 -0.242032726688 0)
(1.2703470558 -0.319243874187 0)
(1.26116245038 -0.430681747222 0)
(1.20173428096 -0.541772162867 0)
(0.897851624493 0.228551551604 0)
(1.01337738751 -0.0842819429628 0)
(0.972328080913 -0.0449658888043 0)
(0.997057266364 -0.0676482296223 0)
(1.0009230681 -0.0640366756973 0)
(1.01498106213 -0.0664523467303 0)
(1.03049716285 -0.065384488768 0)
(1.05086358986 -0.0673951350577 0)
(1.07401700946 -0.0739932717843 0)
(1.09789354733 -0.0881577607037 0)
(1.11950866973 -0.110604779104 0)
(1.13784109218 -0.139674518852 0)
(1.15555964203 -0.17208015926 0)
(1.17708810173 -0.208087287665 0)
(1.20067665917 -0.255769835232 0)
(1.21230794562 -0.325358962716 0)
(1.19476953156 -0.412516749672 0)
(1.1447685867 -0.493970447166 0)
(0.92499039781 0.0759579024794 0)
(1.00957189304 -0.0691277607483 0)
(0.979740678849 -0.044396021994 0)
(0.999362939539 -0.0618146479942 0)
(1.00469487583 -0.0607166436933 0)
(1.01715958872 -0.0648175851756 0)
(1.03140406629 -0.0670176589036 0)
(1.04898110766 -0.072426565352 0)
(1.06831669314 -0.0822046754979 0)
(1.08751470727 -0.0983782746201 0)
(1.10456622014 -0.12104390782 0)
(1.11918944069 -0.148771503901 0)
(1.13329578687 -0.179810453217 0)
(1.14852889964 -0.215618075745 0)
(1.16130581121 -0.261745333069 0)
(1.16156330599 -0.322057381969 0)
(1.14039751548 -0.390208541859 0)
(1.09795686777 -0.451601016782 0)
(0.94411976512 0.0898640127782 0)
(1.00432259594 -0.0687319352746 0)
(0.987998867575 -0.045848208239 0)
(1.0016079714 -0.0613217911472 0)
(1.00826363276 -0.0614190678638 0)
(1.01873355819 -0.0667220520541 0)
(1.03140333278 -0.0712390773803 0)
(1.04604383031 -0.0790686475071 0)
(1.06168264782 -0.0909734704725 0)
(1.07663814114 -0.108215064837 0)
(1.08965192385 -0.130546391075 0)
(1.10071388834 -0.156913281724 0)
(1.11084827175 -0.186586963757 0)
(1.11996845007 -0.221151896851 0)
(1.12435359446 -0.263688311548 0)
(1.1174737354 -0.314580296892 0)
(1.09519075014 -0.368037455494 0)
(1.05878007061 -0.415202661555 0)
(0.958134118353 0.0905567416466 0)
(1.00021837931 -0.0638490784439 0)
(0.993250536078 -0.0469082053419 0)
(1.00202980734 -0.0595524573888 0)
(1.00928154749 -0.06139358598 0)
(1.01781934655 -0.0676139982641 0)
(1.02880353499 -0.0740385373804 0)
(1.04075526879 -0.083618987268 0)
(1.05320250535 -0.0969119523311 0)
(1.06468239521 -0.114636049823 0)
(1.0744011736 -0.136443458165 0)
(1.08234275141 -0.161650038065 0)
(1.08883614591 -0.190063799611 0)
(1.09304857341 -0.222845451818 0)
(1.09187684888 -0.261326086713 0)
(1.08122612138 -0.304360878785 0)
(1.05928277538 -0.347398556684 0)
(1.02742239516 -0.384959057884 0)
(0.973122119019 0.0968432166141 0)
(0.997766180712 -0.0592424472605 0)
(0.997877149195 -0.0473053511145 0)
(1.00246495278 -0.0577920922497 0)
(1.00987193126 -0.061156016674 0)
(1.01654420008 -0.0681204305303 0)
(1.02576214046 -0.0759439508835 0)
(1.03514818005 -0.0866668393355 0)
(1.04464320815 -0.10067591055 0)
(1.05299155006 -0.118350590361 0)
(1.05968827681 -0.139386751653 0)
(1.06460488873 -0.16338292303 0)
(1.06763010798 -0.190272800739 0)
(1.06767838098 -0.220673097278 0)
(1.06243231628 -0.254801670746 0)
(1.04949833777 -0.291113194609 0)
(1.0283198706 -0.326278420884 0)
(1.00017108574 -0.356820612743 0)
(0.987680091102 0.0870061083592 0)
(0.995517582786 -0.0589479333579 0)
(1.00174219383 -0.0516491220042 0)
(1.00222696124 -0.0604922263451 0)
(1.00932773471 -0.0652400565798 0)
(1.0139385392 -0.072755872398 0)
(1.02110716307 -0.0815757727241 0)
(1.02776690507 -0.0928685451057 0)
(1.034227393 -0.106937132855 0)
(1.03939715521 -0.123910611144 0)
(1.04295353654 -0.14358491417 0)
(1.04468365812 -0.165722790945 0)
(1.04421514717 -0.190215343634 0)
(1.04055675769 -0.217174507254 0)
(1.03218441221 -0.24617765694 0)
(1.01788210974 -0.275787382556 0)
(0.997797799853 -0.303768669826 0)
(0.973013734351 -0.328035018317 0)
(1.0023842165 0.0977992649287 0)
(0.993230000821 -0.0555467710763 0)
(1.00501557943 -0.0530079815958 0)
(1.00143535492 -0.0607371954989 0)
(1.00770031988 -0.0668232491567 0)
(1.01003708685 -0.0748947561033 0)
(1.01484065665 -0.0844581958782 0)
(1.01864472953 -0.0960394178806 0)
(1.02199089891 -0.109854552805 0)
(1.02396476681 -0.125889408757 0)
(1.02434053764 -0.143997214668 0)
(1.02285791093 -0.163994745948 0)
(1.01913540507 -0.185682246543 0)
(1.01245340297 -0.208809704104 0)
(1.00193348438 -0.232766354343 0)
(0.987078643742 -0.256387925659 0)
(0.968331996704 -0.27828406835 0)
(0.946580494832 -0.297246163328 0)
(1.01675214641 0.0880279201765 0)
(0.992548898708 -0.0535372316857 0)
(1.00759775489 -0.0556875704219 0)
(1.00057929187 -0.0623171916044 0)
(1.00537759276 -0.0693098737715 0)
(1.00534908061 -0.0776101528641 0)
(1.0075915527 -0.0873593483636 0)
(1.00850425989 -0.0986923280537 0)
(1.00879392211 -0.111709955213 0)
(1.00766629416 -0.1263444534 0)
(1.00498038569 -0.142447170969 0)
(1.00051867456 -0.159844786682 0)
(0.994020232393 -0.178231823013 0)
(0.985065102309 -0.197263069806 0)
(0.973230104738 -0.216356329509 0)
(0.958394391458 -0.234709461865 0)
(0.941067100688 -0.251488263541 0)
(0.921972439252 -0.266025026631 0)
(1.02442922701 0.0909682140879 0)
(0.992962936895 -0.0477511558834 0)
(1.00797169532 -0.0532647552142 0)
(0.998548637519 -0.0592605459833 0)
(1.00121581982 -0.0669009115807 0)
(0.998842693807 -0.0752419298711 0)
(0.998425417666 -0.0848856776122 0)
(0.996551186219 -0.0956409014147 0)
(0.993950241363 -0.10758176732 0)
(0.989981069648 -0.120580193328 0)
(0.98458122626 -0.134483162099 0)
(0.977623478398 -0.149108865985 0)
(0.969003580538 -0.164135033683 0)
(0.958534586369 -0.17924355521 0)
(0.946056726474 -0.193996646244 0)
(0.931612222017 -0.207906663809 0)
(0.915678910466 -0.220493537195 0)
(0.898823099087 -0.231403383583 0)
(1.02755960788 0.0439255268601 0)
(0.992760985315 -0.0580145867857 0)
(1.00625372436 -0.0643092040767 0)
(0.994986411489 -0.0694903556554 0)
(0.995116957153 -0.0767835587482 0)
(0.990534505664 -0.0843706825034 0)
(0.987546214199 -0.092982638649 0)
(0.983152637234 -0.102294294164 0)
(0.978021810726 -0.112362102874 0)
(0.97167787028 -0.123032664994 0)
(0.964132511749 -0.134180444844 0)
(0.955359622428 -0.145613541589 0)
(0.945371171184 -0.157077040136 0)
(0.934129981124 -0.168337234339 0)
(0.92159024068 -0.179118458046 0)
(0.907852886271 -0.189143116793 0)
(0.893343692978 -0.198155063577 0)
(0.878565223817 -0.205974893473 0)
(1.03909926631 0.211204073128 0)
(0.996865753129 0.0288345477835 0)
(1.00273415603 0.0186457345735 0)
(0.989822957728 0.0100065471853 0)
(0.987184879833 0.000689773172715 0)
(0.980626872422 -0.00860100392962 0)
(0.975299350663 -0.0183334458937 0)
(0.968711408831 -0.0282848889417 0)
(0.961413938524 -0.0385154663629 0)
(0.953080686532 -0.0489096870069 0)
(0.943774174522 -0.0593970400524 0)
(0.933571891616 -0.0699102691927 0)
(0.922566282114 -0.0802522710763 0)
(0.910780635615 -0.0902310262836 0)
(0.898194065912 -0.0997260851374 0)
(0.884900507605 -0.108585032728 0)
(0.871237877702 -0.116719074507 0)
(0.857675325343 -0.124024643445 0)
(0.986090504828 -0.464209246664 0)
(0.979220955741 -0.217784971206 0)
(1.00073666207 -0.217665441969 0)
(0.988355757935 -0.216124529217 0)
(0.985457811204 -0.216119561554 0)
(0.978050631492 -0.215979108654 0)
(0.971825528549 -0.216220196284 0)
(0.964404938061 -0.216776354815 0)
(0.956360244591 -0.217662733533 0)
(0.947477747362 -0.218821849404 0)
(0.93789391913 -0.220173295963 0)
(0.927638297926 -0.221573506232 0)
(0.916857572649 -0.222933780783 0)
(0.905591088332 -0.224219973559 0)
(0.893845189912 -0.225318242402 0)
(0.881683281071 -0.226146637975 0)
(0.869451342734 -0.226620132141 0)
(0.857405196115 -0.226702076224 0)
(1.1632865735 1.61456852537 0)
(1.02325979558 0.459236255591 0)
(0.996899765284 0.436559209042 0)
(0.982965361773 0.411187388101 0)
(0.977759686702 0.390282430666 0)
(0.969679745188 0.368036185915 0)
(0.962281943969 0.346223768323 0)
(0.953647799391 0.324289800643 0)
(0.944342491434 0.302625953294 0)
(0.934200333967 0.281248527409 0)
(0.923309164825 0.260304602086 0)
(0.911953041414 0.239808125682 0)
(0.900282399845 0.220028953022 0)
(0.88834564289 0.201079557404 0)
(0.876115894398 0.183022145254 0)
(0.863669447708 0.165899684775 0)
(0.851273788874 0.149793769053 0)
(0.84020742753 0.134730267829 0)
(0.650761025826 -3.93320163164 0)
(0.933434983888 -0.958601193706 0)
(1.01230968777 -0.918747680001 0)
(0.999959713943 -0.888650129096 0)
(0.998473503076 -0.859696132975 0)
(0.988939454106 -0.828996843855 0)
(0.981354244999 -0.798951249219 0)
(0.972190623861 -0.769229611335 0)
(0.962800763985 -0.740062276356 0)
(0.95277573358 -0.71141498637 0)
(0.942385887923 -0.683499764074 0)
(0.931479044459 -0.656709942728 0)
(0.920212010691 -0.63123506596 0)
(0.908576519112 -0.606984453793 0)
(0.896522407974 -0.584035423827 0)
(0.88406429942 -0.562465216522 0)
(0.871394449081 -0.542431958537 0)
(0.856877227639 -0.524043067025 0)
(1.93542820715 8.27365279348 0)
(1.06728186194 1.3579836416 0)
(0.999173105407 1.23756935863 0)
(0.978500111801 1.19398499621 0)
(0.974664364164 1.14230953084 0)
(0.967751067911 1.09053892188 0)
(0.960394788506 1.03989000827 0)
(0.952312064684 0.989091523549 0)
(0.94384594487 0.938943546255 0)
(0.935138590715 0.889538616864 0)
(0.926330417769 0.841500143734 0)
(0.917534823484 0.795582832573 0)
(0.908852268364 0.752120845215 0)
(0.90040259561 0.710835087155 0)
(0.892178658007 0.67205962314 0)
(0.884187607941 0.636173197905 0)
(0.876683825309 0.603449331147 0)
(0.87343970488 0.574178081693 0)
(-0.805283807154 -15.0957986419 0)
(0.969743347228 -1.72095304308 0)
(1.00078798436 -1.44965954015 0)
(1.02733864849 -1.44827716142 0)
(1.0165265819 -1.38034503225 0)
(1.00447158399 -1.32864435415 0)
(0.993415320245 -1.27722593104 0)
(0.979875165012 -1.22885871554 0)
(0.965972995297 -1.18314328573 0)
(0.950967600916 -1.13984118651 0)
(0.935145604409 -1.09892074571 0)
(0.918682091571 -1.06049917876 0)
(0.901728563294 -1.024391657 0)
(0.884205210839 -0.990228691697 0)
(0.866179670969 -0.958311372277 0)
(0.848002852858 -0.928869397701 0)
(0.830256980425 -0.90191682376 0)
(0.809837995267 -0.877583450089 0)
(4.21623426927 25.230387796 0)
(0.879731778468 2.17539129116 0)
(1.09192668298 1.56471241109 0)
(0.971510170748 1.6540792599 0)
(1.00235465144 1.55604578529 0)
(0.990529914316 1.51091293675 0)
(0.987315005413 1.45715860455 0)
(0.982284332072 1.41007835207 0)
(0.978103009134 1.36627966724 0)
(0.974535804648 1.32632905168 0)
(0.97153028916 1.28988229083 0)
(0.968720880287 1.25604925378 0)
(0.966052512716 1.22397327696 0)
(0.963309905628 1.19280205906 0)
(0.960249403835 1.16169207936 0)
(0.956523708962 1.12998792192 0)
(0.951732986624 1.09743773626 0)
(0.949717610147 1.06435982512 0)
(-3.74181911837 -37.5452780271 0)
(1.43505064419 -3.02500563579 0)
(0.830365063948 -2.08172062397 0)
(1.07495822135 -2.26950885184 0)
(0.991695933334 -2.12203908622 0)
(0.994682543361 -2.08429981577 0)
(0.974492108768 -2.02308422741 0)
(0.958759291152 -1.97522996638 0)
(0.941457655363 -1.92955850646 0)
(0.924004300991 -1.88809433768 0)
(0.906209958306 -1.84942244544 0)
(0.887831764925 -1.81286035908 0)
(0.868787883819 -1.77788759752 0)
(0.849145716452 -1.74387125212 0)
(0.829209177558 -1.70978933559 0)
(0.809831529249 -1.67428034091 0)
(0.792414267038 -1.63587025566 0)
(0.773577711958 -1.59396132377 0)
(6.25318774656 48.5917361998 0)
(0.229412917203 3.64968570445 0)
(1.36124834659 2.98124421676 0)
(0.967276158454 3.08161015387 0)
(1.09141670548 2.92956229714 0)
(1.04865665138 2.86791237223 0)
(1.05465071497 2.78305664258 0)
(1.04597873007 2.71158058663 0)
(1.04134916807 2.64086765413 0)
(1.0356593703 2.57414462861 0)
(1.0302612588 2.51002290035 0)
(1.02461874964 2.44872990645 0)
(1.01885720322 2.39029176983 0)
(1.01322292314 2.33492301735 0)
(1.00827183819 2.28286937201 0)
(1.0046029888 2.23406978616 0)
(1.00197301398 2.18765384782 0)
(1.00381620679 2.14170714865 0)
(-3.43347556356 -57.4386727124 0)
(1.7636705429 -4.63262756693 0)
(0.734442048087 -4.68389420965 0)
(1.06758855824 -4.433187868 0)
(0.944335732591 -4.29991252023 0)
(0.963823575993 -4.15365311132 0)
(0.939593736519 -4.01932239567 0)
(0.928478744429 -3.89114171548 0)
(0.913281747091 -3.76874934826 0)
(0.899422852399 -3.65255496356 0)
(0.885325393918 -3.54202344265 0)
(0.871265948588 -3.43714254417 0)
(0.857177128688 -3.33763712945 0)
(0.843185688203 -3.24351720172 0)
(0.829312575518 -3.15548202248 0)
(0.815484877118 -3.07519003245 0)
(0.801392403492 -3.00510103064 0)
(0.781128660435 -2.9483872659 0)
(4.08655686837 64.702889029 0)
(0.758274615278 7.02099109642 0)
(1.37447371926 7.44035424856 0)
(1.15668997077 6.91570415742 0)
(1.21844782759 6.7128233632 0)
(1.19065187339 6.42975788418 0)
(1.19114465535 6.1889685301 0)
(1.18231156582 5.95028357074 0)
(1.17581177952 5.72488348762 0)
(1.16817886983 5.50807475077 0)
(1.16063932187 5.30023631013 0)
(1.15265366954 5.10072695943 0)
(1.14430648813 4.90976716018 0)
(1.13532908884 4.72737827464 0)
(1.12518192425 4.55356058966 0)
(1.11304994579 4.38791349304 0)
(1.09725448485 4.23092006943 0)
(1.08394554575 4.08727457917 0)
(-0.0701911869874 -65.0703004976 0)
(0.945629893065 -9.83267271773 0)
(0.640886742486 -9.86061885852 0)
(0.716539192922 -9.27326428939 0)
(0.689261323022 -8.94563452497 0)
(0.691736537892 -8.55967841318 0)
(0.686209896156 -8.21336629744 0)
(0.681727972595 -7.87405036353 0)
(0.676238425917 -7.55216518887 0)
(0.670182302499 -7.24431698038 0)
(0.663663992931 -6.95098333971 0)
(0.656820589117 -6.67045380448 0)
(0.650077017213 -6.40134731449 0)
(0.643433653893 -6.14084025442 0)
(0.636466914428 -5.88649517012 0)
(0.629296227924 -5.63708631492 0)
(0.625234873327 -5.38886547625 0)
(0.625837155813 -5.12316709232 0)
(-0.192924572574 0.0158324110314 -5.2814283147e-18)
(-0.222298202843 -0.0322712906289 0)
(-0.300689175985 -0.0770974602802 0)
(-0.333798609604 -0.102406998823 0)
(-0.336345836626 -0.112278781764 0)
(-0.329841682314 -0.0931778348526 3.61714374945e-18)
(-0.330102139725 -0.0781810647149 0)
(-0.317876504552 -0.0527360942312 0)
(-0.299460255012 -0.0218287617366 -1.16472733018e-18)
(-0.27799996976 0.0104689741392 0)
(-0.257285987397 0.0417902735006 7.7244463762e-19)
(-0.239539997315 0.0709920434103 0)
(-0.226230062833 0.0979863035554 5.68743632585e-19)
(-0.21745592292 0.123191858883 5.00590591641e-19)
(-0.212968462678 0.147202902364 0)
(-0.211980047864 0.170600752136 -4.02139546185e-19)
(-0.213770410503 0.1937468209 -3.65655837399e-19)
(-0.217558965771 0.216899174578 -3.35073249875e-19)
(-0.222715169515 0.240048691047 0)
(-0.228725612491 0.263174119735 0)
(-0.235182134114 0.286086708362 0)
(-0.241794126274 0.308666396718 0)
(-0.248296153091 0.330682048404 0)
(-0.25453869576 0.352016871372 0)
(-0.260336381599 0.372473517323 2.10862503359e-19)
(-0.265622501434 0.391954962969 2.00313498239e-19)
(-0.270292667283 0.410319036617 0)
(-0.274326117199 0.42749867784 -1.82179784919e-19)
(-0.277641893234 0.443375116318 -1.74338592832e-19)
(-0.280249759877 0.457873116932 -1.67180004315e-19)
(-0.282116426116 0.470889671337 0)
(-0.283275914148 0.482343911656 0)
(-0.283724227765 0.492140730358 1.4904870692e-19)
(-0.283505384209 0.500191693903 0)
(-0.282643064316 0.506416651837 0)
(-0.281177840585 0.510724968352 1.34802262047e-19)
(-0.279152183769 0.513050129537 0)
(-0.276598230824 0.513313247407 0)
(-0.273556576478 0.511456024084 0)
(-0.270046222201 0.507405864792 0)
(-0.266106672497 0.501112003196 0)
(-0.261741538492 0.492509983145 -2.286994569e-19)
(-0.256985188268 0.481548449456 0)
(-0.251830923785 0.46816905732 0)
(-0.246309718282 0.45231400154 -2.14142681401e-19)
(-0.240415527601 0.433933847854 -2.09989412231e-19)
(-0.234167646628 0.412958307874 0)
(-0.227573190757 0.389341790898 0)
(-0.220646633795 0.363011948204 -1.99363960398e-19)
(-0.213399055916 0.333921692537 0)
(-0.205840057301 0.301984550566 1.93660125921e-19)
(-0.197992255017 0.267156101958 0)
(-0.189842675464 0.229337759752 -1.88939143384e-19)
(-0.181417385896 0.188457434438 0)
(-0.172714334963 0.144413601889 -1.85112871462e-19)
(-0.16375260147 0.0971142809984 -1.83511429633e-19)
(-0.154524318936 0.0464355339787 0)
(-0.145048000612 -0.00774578409434 0)
(-0.135318069798 -0.0655722406998 0)
(-0.125346950865 -0.127198550545 -1.7899263364e-19)
(-0.115135541607 -0.192790302327 0)
(-0.104697340801 -0.262526069307 0)
(-0.0940640856928 -0.336542770014 0)
(-0.0833874318873 -0.414792051938 0)
(-0.0726011584246 -0.496364196997 0)
(-0.0617028718164 -0.580341892985 0)
(-0.0506567693863 -0.66598197747 0)
(-0.0394323135105 -0.752603835909 1.77127906617e-19)
(-0.0280356019263 -0.839550209919 0)
(-0.0164813712837 -0.926171369817 1.77881289566e-19)
(-0.00480080623722 -1.01182088383 1.78431170691e-19)
(0.00697837738061 -1.09585429331 0)
(0.0188212314833 -1.17763988978 -1.79853334437e-19)
(0.0306986042692 -1.25655294351 0)
(0.042582535447 -1.33199391272 1.81689468872e-19)
(0.0544507536955 -1.40338011137 0)
(0.0662827518905 -1.47015517227 -1.8394729431e-19)
(0.0780736384702 -1.53179123338 1.85248784811e-19)
(0.0898250619921 -1.58781005258 0)
(0.101559774084 -1.6377700278 0)
(0.113308395989 -1.68129168988 0)
(0.125130790532 -1.71804793808 0)
(0.137107384791 -1.74780903868 1.94209662022e-19)
(0.149380260981 -1.77044036128 -1.96742569788e-19)
(0.162121875845 -1.78596642814 3.99310891799e-19)
(0.175548665772 -1.79455214709 4.06067630886e-19)
(0.18993798876 -1.79658580946 4.13958050756e-19)
(0.205529515476 -1.79264253736 0)
(0.222632503389 -1.78346830836 0)
(0.241425134475 -1.77012739918 0)
(0.262105011713 -1.75371154913 4.62430361892e-19)
(0.284933391758 -1.73562316761 0)
(0.31000220228 -1.71728248117 0)
(0.337270869268 -1.70003317462 5.27725335517e-19)
(0.366699410367 -1.68493116627 0)
(0.398432814889 -1.67284957443 -5.93804964567e-19)
(0.432877623964 -1.66442875291 0)
(0.470554332092 -1.66012210304 6.86642621745e-19)
(0.511788934764 -1.65986011131 0)
(0.556606209544 -1.66279135718 0)
(0.604274108547 -1.66572400301 0)
(0.654595901938 -1.66288777051 1.0104294816e-18)
(0.706903975092 -1.64890010523 0)
(0.753829371169 -1.61760166782 1.30470907648e-18)
(0.786016082485 -1.55874395401 1.51623090016e-18)
(0.809292700443 -1.4697813958 0)
(0.82022880813 -1.38145073595 0)
(0.792583363627 -1.32992178485 0)
(0.83738739167 -1.21248011619 3.61755961552e-18)
(1.02866149197 -0.985913970753 0)
(1.02654284261 -0.754754166405 0)
(0.62040326441 -0.0544360153807 9.37418826625e-18)
(0.480251006204 0.454184842062 6.04935310359e-18)
(0.405723548716 0.75108544454 0)
(0.356467236871 0.991181802189 -3.38398993909e-18)
(0.325043823092 1.19559243047 -2.86334999454e-18)
(0.302771123105 1.37234920454 2.51914679113e-18)
(0.286582668449 1.52654261123 0)
(0.274647345685 1.66145015727 0)
(0.265972967218 1.77944014932 0)
(0.259893131041 1.88205588197 -1.85260575765e-18)
(0.255841197267 1.97039572501 0)
(0.253277209426 2.04513810457 -1.70095877623e-18)
(0.251774740165 2.106894035 0)
(0.251026228931 2.15611291948 0)
(0.250831603238 2.1932845344 0)
(0.251012193786 2.21873261528 1.54182599954e-18)
(0.251375109844 2.23296089068 1.52069635001e-18)
(0.251743840025 2.23615314156 0)
(0.251976799646 2.2289101197 0)
(0.251955617641 2.21188573586 0)
(0.251578855412 2.18605749934 0)
(0.250753925113 2.15253204427 0)
(0.249409470619 2.11268260671 0)
(0.247484465472 2.0692548897 2.97079647772e-18)
(0.244775208059 2.0258764493 0)
(0.241192000218 1.98321853494 0)
(0.236675915294 1.94177854705 0)
(0.231463330334 1.90180517049 -3.03001665378e-18)
(0.225948706389 1.86360026523 -3.05468725326e-18)
(0.220546496181 1.82758506803 3.08294356559e-18)
(0.21542224413 1.79410699743 3.11463408013e-18)
(0.210559408276 1.76345420523 0)
(0.205824585701 1.73575063943 0)
(0.201140483886 1.71120519009 0)
(0.196403299091 1.68993697473 3.27379067333e-18)
(0.191525011653 1.67220100019 0)
(0.186369138695 1.65807577096 0)
(0.180819145626 1.64775710934 -3.42499791154e-18)
(0.174714445166 1.64115246657 0)
(0.167954664609 1.63829131366 -3.53989226296e-18)
(0.160379187057 1.63882126273 0)
(0.151901264939 1.64258145746 -3.66519584224e-18)
(0.142304150511 1.64891062072 0)
(0.13146681939 1.65743688958 0)
(0.119110638845 1.66717738328 0)
(0.105126730473 1.67765175335 0)
(0.0892194469882 1.68767144235 0)
(0.0712988775773 1.69686895098 0)
(0.0510455596875 1.70406689163 0)
(0.0285267369375 1.70937713501 0)
(0.00350220202479 1.71206061613 -4.31033983786e-18)
(-0.0239571919913 1.71295200255 0)
(-0.0542167102899 1.71138250314 0)
(-0.0873207009891 1.70830530171 -4.5125134891e-18)
(-0.123148256154 1.70218673518 0)
(-0.161471900951 1.69404948222 0)
(-0.20310841135 1.6796329119 -4.66262705942e-18)
(-0.247782792114 1.65585030861 0)
(-0.294421129668 1.61821370626 0)
(-0.342885886575 1.57368384848 -4.70947072686e-18)
(-0.393239589529 1.52387153416 4.68982601945e-18)
(-0.460775395662 1.48421727719 -4.6475512705e-18)
(-0.532518747247 1.45666371381 0)
(-0.602403397969 1.50473207565 0)
(-0.684265680763 1.67517010876 -8.70050158722e-18)
(-0.81283018796 1.97452184861 0)
(-0.951920037556 2.15197385652 7.92349469158e-18)
(-1.07216952132 2.25515500415 7.37847671334e-18)
(-0.801482547728 2.04230462706 0)
(-0.196365305503 0.218261930258 1.63770543665e-17)
(-0.130040436237 0.165281920239 0)
(-0.152696197855 0.0385364008476 -5.69818422211e-18)
(-0.150927003968 -0.0489088294816 3.58836441543e-18)
(-0.131779608856 -0.0929473438306 2.594547647e-18)
(-0.104864385142 -0.109508696434 -1.02790486645e-18)
(-0.0778766707304 -0.113526449343 -1.72949888931e-18)
(-0.0522303798221 -0.112567552584 0)
(-0.0284375343223 -0.110036094192 6.39916899557e-19)
(-0.00812431991616 -0.108198712374 -1.12122834404e-18)
(0.00724882744582 -0.108463110655 -1.49261803866e-18)
(0.0173712775811 -0.111531563192 8.91311016691e-19)
(0.0225773188348 -0.117519009925 -1.20974771674e-18)
(0.0238755263229 -0.126089314181 -3.68105325453e-19)
(0.0223210973481 -0.136794584467 0)
(0.0190159713822 -0.149052895416 3.12184024946e-19)
(0.0148270747416 -0.16245450457 2.89983940742e-19)
(0.0104565607751 -0.176555925163 2.70693660755e-19)
(0.00638911509337 -0.191135024432 -5.05630914539e-19)
(0.00294484075056 -0.205919767017 0)
(0.000313593950984 -0.220814434202 -4.4920862287e-19)
(-0.00144631948869 -0.23563990862 0)
(-0.00230969373015 -0.250346328306 4.0423687977e-19)
(-0.00233133887485 -0.264794191745 0)
(-0.00155888518991 -0.278933730149 -5.52628580777e-19)
(-9.75221189202e-05 -0.292644576013 1.74741061618e-19)
(0.00199176763838 -0.305862027095 3.37360692265e-19)
(0.00461943077513 -0.318470804332 4.87345525103e-19)
(0.00775266586871 -0.330392000768 1.57144867428e-19)
(0.0113341001609 -0.341525431061 1.51529261942e-19)
(0.0153579385894 -0.351784608169 0)
(0.0197998193939 -0.361083434342 2.80709783179e-19)
(0.0246754475866 -0.369332998333 -1.3706791152e-19)
(0.0299927222924 -0.376463340207 0)
(0.035776112211 -0.382392287859 0)
(0.0420472508161 -0.387063322117 -1.2547529154e-19)
(0.0488331775168 -0.390405143358 0)
(0.0561652581094 -0.392370598452 0)
(0.0640646122951 -0.392900582513 0)
(0.0725629715148 -0.39195313266 0)
(0.0816716924028 -0.389480012602 0)
(0.0914136551511 -0.385438274134 -2.12475473925e-19)
(0.101785446868 -0.379788546012 -4.20953655353e-19)
(0.112794838721 -0.372480599305 0)
(0.124422108693 -0.363480723086 -2.00396254138e-19)
(0.136653492948 -0.352724980358 2.01703050402e-19)
(0.149454840401 -0.340179123639 0)
(0.16279390257 -0.325763949568 0)
(0.176625751069 -0.309435315581 5.74505957464e-19)
(0.190893030008 -0.291096463166 3.76662743392e-19)
(0.205552257607 -0.270686124171 -1.8860043182e-19)
(0.220546827901 -0.248090825628 -3.68560985487e-19)
(0.235830931167 -0.223225186916 -1.80164754425e-19)
(0.251345037869 -0.19596615038 0)
(0.267043448223 -0.166200906698 5.41872402468e-19)
(0.282865948106 -0.133792329744 1.81156824712e-19)
(0.298772477967 -0.0986029385118 0)
(0.31471297542 -0.0604816103659 -3.54207732552e-19)
(0.330649722102 -0.0192594658906 3.53122331205e-19)
(0.346538248048 0.0252349231298 1.78621613689e-19)
(0.362345505736 0.0732040492833 0)
(0.37805617516 0.124837435087 0)
(0.393750551166 0.180365368756 0)
(0.409521099033 0.239271806837 -3.52120417547e-19)
(0.425195752194 0.30059798819 0)
(0.440598283683 0.363626063252 3.52256139546e-19)
(0.455568018129 0.427734419241 0)
(0.470011176705 0.492262075986 1.74376459969e-19)
(0.483845109609 0.556558843111 0)
(0.496994453807 0.619993878037 1.75503891571e-19)
(0.509381425079 0.68197902913 1.76239237245e-19)
(0.520936019148 0.741966634605 0)
(0.531596807093 0.799450267308 1.82726750717e-19)
(0.541314976221 0.85395992496 0)
(0.550052136082 0.905049203769 -1.84966379029e-19)
(0.557785640252 0.95229069462 0)