/*--------------------------------*- C++ -*----------------------------------*\
| =========                 |                                                 |
| \\      /  F ield         | OpenFOAM: The Open Source CFD Toolbox           |
|  \\    /   O peration     | Version:  v1806                                 |
|   \\  /    A nd           | Web:      www.OpenFOAM.com                      |
|    \\/     M anipulation  |                                                 |
\*---------------------------------------------------------------------------*/
FoamFile
{
    version     2.0;
    format      ascii;
    class       volScalarField;
    location    "4";
    object      rho;
}
// * * * * * * * * * * * * * * * * * * * * * * * * * * * * * * * * * * * * * //

dimensions      [0 0 0 0 0 0 0];


internalField   nonuniform List<scalar> 
12225
(
0.605453908693
0.607249274846
0.605395131592
0.602738478097
0.591206958463
0.586003664937
0.579081358507
0.573717369437
0.570196263333
0.569759354529
0.573660579106
0.580589379893
0.585308100125
0.593247211742
0.609649614328
0.627945512363
0.649450136229
0.674679074597
0.646143160634
0.652167818992
0.62088659053
0.625992703569
0.617401109422
0.614535829478
0.610132337957
0.606663997389
0.603871529118
0.60224226573
0.602770877059
0.60528985458
0.607001796762
0.610074493787
0.617924718299
0.627306865646
0.638228692872
0.643386756067
0.616318283148
0.6398020228
0.620721863768
0.623837675046
0.614713746102
0.611491838638
0.606876256568
0.603386595651
0.600590115991
0.598797627745
0.598460256605
0.599563260921
0.60128954104
0.604613989153
0.610909032133
0.617936971253
0.624310375771
0.622312255637
0.609866921906
0.643414875829
0.620475552032
0.626147783873
0.618007468338
0.616148692086
0.612764302328
0.610334474162
0.60835296683
0.607084232785
0.606740191813
0.607355966926
0.608781966436
0.611494680467
0.615839181776
0.620181609318
0.622648608295
0.618002071516
0.604174177389
0.644154455928
0.620791546974
0.627772673499
0.620290977923
0.619364902181
0.616872702327
0.615369898544
0.614321880229
0.613904444282
0.614179933527
0.615114112316
0.616708949743
0.619117115058
0.622138290433
0.62445044638
0.62431933252
0.618902841792
0.600872772023
0.645214603687
0.621565575014
0.62968010384
0.622776009956
0.622612478087
0.620795828925
0.619960763771
0.619558759663
0.619704888761
0.620396331459
0.621545774128
0.623146278102
0.625155653661
0.627131846902
0.627961297651
0.626317497619
0.620872014777
0.599003384322
0.645973675975
0.622432832514
0.631438230012
0.625056021605
0.625512484023
0.624218660151
0.623875272256
0.62391280721
0.624407958149
0.62532400514
0.626544552309
0.62800152995
0.629545857328
0.630666261557
0.630459636287
0.627998913033
0.622736944044
0.598044940186
0.646434636195
0.623256936586
0.632939798709
0.627036652653
0.627998023425
0.627112746863
0.627127820284
0.627433771265
0.628099207878
0.62908313927
0.63024929503
0.631472724371
0.632551118248
0.632977318682
0.632057721352
0.629163349848
0.624194436044
0.597614059691
0.646586282279
0.62393735078
0.634112266367
0.628650179423
0.630035422533
0.629478625024
0.629742660089
0.6301869475
0.630898282491
0.631841757747
0.632859132795
0.633788713878
0.634407045658
0.634270173234
0.632837246241
0.629735333062
0.625043872937
0.597371867747
0.646411794459
0.624315630399
0.634821069045
0.629732713732
0.631458106939
0.631138022456
0.631551392489
0.632054906347
0.632753366848
0.633594333046
0.634396064509
0.634982607152
0.635150855562
0.634539248817
0.632745429224
0.629565182557
0.625202691804
0.596548114561
0.646105968817
0.624120573165
0.634908133201
0.630016708426
0.631916352048
0.6316672165
0.632119208443
0.632614188624
0.633238248316
0.633916796668
0.634483149889
0.634779081729
0.634638196515
0.633768737985
0.631879479591
0.628887495268
0.624997430022
0.592817026351
0.645691164014
0.622570070001
0.633797330326
0.628838980186
0.630792317576
0.630556039079
0.631018275714
0.631455155261
0.631986243206
0.632609791567
0.633149857295
0.633443783283
0.633317674049
0.632537074985
0.630883731025
0.628300974246
0.624996202685
0.590178668476
0.644894302301
0.621250438281
0.63276337116
0.627993833896
0.630089305757
0.629954897016
0.630506076321
0.631069564498
0.631748436671
0.632486750286
0.633113262546
0.633426054738
0.633306786252
0.632541885854
0.630991743386
0.628664837297
0.625739654606
0.586990610854
0.643999662546
0.619885522166
0.631795415513
0.627288109394
0.629720619464
0.629913013708
0.63071189239
0.631436949726
0.632193494972
0.632929156206
0.633458171612
0.633604288116
0.63328731731
0.632400682666
0.630845798986
0.628719586178
0.626096827604
0.582798046114
0.643018062826
0.618158882213
0.630621253117
0.626405457118
0.62924362574
0.629814331835
0.630906490464
0.631815264456
0.632612923832
0.633284329076
0.633629974092
0.633522742683
0.63298124748
0.631951454481
0.630407373234
0.628450200194
0.626160725325
0.578404351614
0.64203501323
0.616205423513
0.629212116965
0.625193469442
0.628385777743
0.62925337888
0.63057646543
0.631599256298
0.632424384935
0.632992696146
0.633185486399
0.632876368451
0.632190633128
0.631093106459
0.629617131285
0.627845210247
0.625824123474
0.57438754166
0.641230709685
0.614261634205
0.627709442932
0.623745418218
0.627158104978
0.628183023408
0.629614032486
0.630675495757
0.631456981639
0.631954803094
0.632029430069
0.631619804276
0.630866697302
0.629793466965
0.628407114815
0.626829549797
0.625015037345
0.570751397108
0.640697245126
0.612477947922
0.626278655278
0.622225776268
0.625721688607
0.626760987668
0.628203975043
0.629239036676
0.629967182202
0.630397868437
0.63040193186
0.629944530168
0.629190820566
0.628170985422
0.626887283504
0.625463507513
0.623831180058
0.568863226465
0.640836691139
0.611659054321
0.625615455483
0.621345125864
0.624734588377
0.625604797484
0.626896215955
0.627771672177
0.628344779804
0.628635846808
0.628532218497
0.628007899153
0.627239386273
0.626249475392
0.625030836534
0.623702923022
0.622193824792
0.573265375531
0.641784097684
0.613088241195
0.62643356197
0.621669055784
0.624465420818
0.624739805026
0.625428573292
0.625757182838
0.625842279351
0.625730389556
0.625324202731
0.624591979391
0.623695577309
0.622652910469
0.621449904886
0.620192626908
0.618823217692
0.57661590991
0.642935212546
0.614676797632
0.627580568579
0.622429435561
0.624750265289
0.624549247011
0.624798531576
0.624704259112
0.624438720256
0.624040753409
0.623435444588
0.622556731537
0.621590100947
0.620516716527
0.619341433811
0.618131129162
0.616855984577
0.579287067817
0.644061349149
0.616164412472
0.628682652574
0.623208320105
0.625105720287
0.624514015372
0.6243783219
0.623947796743
0.623397536103
0.622762531506
0.621991235043
0.621004353508
0.619966511914
0.618870618127
0.617699115739
0.616527095499
0.615289982451
0.582018023991
0.645266041878
0.617600874035
0.629762833996
0.62397022418
0.625456573995
0.624487238475
0.6239927078
0.623251624849
0.622422551394
0.621586556601
0.620647054631
0.61954492315
0.618420239962
0.617292445714
0.616099313938
0.614938995625
0.613742912145
0.584838375383
0.646507156348
0.619055065788
0.630787049003
0.624654815238
0.625747500939
0.624417608421
0.623583118394
0.622551534769
0.62148884388
0.620447319055
0.619358947063
0.618142288779
0.61694468163
0.61574232658
0.614509576024
0.613313016584
0.612128540927
0.587888348262
0.647712290803
0.620525198659
0.631747458123
0.625345371631
0.626042786339
0.624377213583
0.623246329343
0.621953027795
0.620658923859
0.61942715535
0.618202570107
0.616873968943
0.615583214046
0.614316255752
0.613015409224
0.611753494934
0.610545841271
0.591801225405
0.648806005897
0.622340979869
0.632860974967
0.626240012138
0.626591689325
0.624659475029
0.623264548521
0.621739877301
0.620233086816
0.618818423283
0.617458213913
0.616042031936
0.614661304506
0.613305213076
0.61192899368
0.61057892909
0.609346684836
0.598982314405
0.65064086035
0.624732652006
0.634420367071
0.627718444946
0.627739995213
0.625568508655
0.623953343534
0.622210451607
0.620472315657
0.618812978904
0.61729940773
0.615754960495
0.614221345742
0.612740070648
0.611219475412
0.609720983906
0.608170812035
0.604262229599
0.649096078588
0.630333011357
0.637754091942
0.631153206268
0.630814639779
0.628492756157
0.626776936484
0.624993192504
0.62322105472
0.621614756554
0.620173797712
0.618699275789
0.617267089285
0.615899342528
0.614481841244
0.613052863283
0.612300470388
0.656911007111
0.669229995836
0.634751464111
0.644198250528
0.637949975843
0.637389665558
0.634912485189
0.632738670196
0.630241485388
0.627489513237
0.6245847457
0.621892540398
0.619191765626
0.61634746251
0.613420372608
0.61040125108
0.607310412723
0.603918981515
0.632467955499
0.627825016192
0.631360604755
0.63381212016
0.6265051934
0.626238290894
0.624215431861
0.622797989983
0.621432793587
0.620358904879
0.619751063274
0.619267950751
0.61873529657
0.618570208137
0.618750533221
0.618963203213
0.619190200163
0.618851982057
0.500143513987
0.499804060988
0.499590044783
0.499599956813
0.499787176396
0.500094708829
0.500459967941
0.500851634221
0.501248943355
0.501638061277
0.502010045563
0.502359734569
0.502684389233
0.502983272462
0.503256714625
0.503506285179
0.503733724116
0.503941846586
0.504132966619
0.50430953193
0.50447395956
0.504628129037
0.50477459854
0.504913654922
0.505046759096
0.505173139794
0.505293960315
0.505408627259
0.505517572153
0.505619585722
0.505714653691
0.505801969197
0.505881791352
0.50595285304
0.506015193145
0.50606874886
0.506114302482
0.506150856366
0.506179434838
0.506199820461
0.506213103807
0.506219612849
0.506220561567
0.506216913176
0.5062100333
0.506201485208
0.506192854106
0.506186018431
0.506182962148
0.506185393057
0.506195129462
0.506212532999
0.506239515357
0.506278346993
0.506332320083
0.506404270438
0.506497029321
0.506612900737
0.506753718995
0.50691945474
0.507109625822
0.507324189983
0.50756360677
0.507827938036
0.508117017483
0.508429035665
0.508762430179
0.50911518569
0.509484463552
0.509867961146
0.510262404316
0.510665042639
0.511072795773
0.511483038795
0.51189283469
0.512300006566
0.512702194793
0.513096600625
0.513481287493
0.513855081578
0.514217117295
0.514565784655
0.514900385494
0.515219271944
0.515524438246
0.515815310329
0.516093812105
0.516365867998
0.51662911176
0.516894973859
0.517165657402
0.517436300332
0.517707563237
0.517957509489
0.518168485119
0.518366976152
0.51859350672
0.518861776518
0.519169822463
0.51948848955
0.519864626909
0.520279193483
0.520030478083
0.519806541027
0.51977414472
0.519885520447
0.520039548694
0.520098621521
0.520223780841
0.520356924441
0.520478127554
0.520587714085
0.520688294452
0.520781969445
0.520870495331
0.520955082066
0.521037360972
0.521119375572
0.521201093767
0.521280838246
0.521354853694
0.52142149497
0.521481600408
0.521535832442
0.521586715176
0.521635242164
0.52168196013
0.521727084027
0.521770826799
0.521813349469
0.521854949198
0.521895820872
0.521936155251
0.521975846318
0.522014861838
0.522053038355
0.522090334303
0.522127086797
0.522162888602
0.522197688121
0.522229888039
0.522260912068
0.522290169287
0.522316554488
0.52233900133
0.522356510425
0.522368955472
0.522376559069
0.522379685854
0.522378768821
0.522373838736
0.522364473142
0.522349929928
0.522329215137
0.522300766407
0.522262550792
0.522211824681
0.522145197575
0.522058013128
0.521944775624
0.52179765299
0.521608109048
0.521364717671
0.521053045852
0.520654312679
0.520148467457
0.519512032581
0.518725160562
0.517771440783
0.516626230062
0.515276346149
0.513726891808
0.512001802632
0.510152091593
0.508236345939
0.506224373989
0.504196158009
0.502251654238
0.500509525253
0.499305702948
0.500081480571
0.499786561398
0.499802641474
0.50003244871
0.500357039723
0.500715383587
0.501082962685
0.501447494438
0.501803701808
0.502148781304
0.502481316135
0.502799707508
0.503103591531
0.503392336792
0.503666132662
0.503925170516
0.504170184526
0.504402158441
0.504622529731
0.504832115259
0.505032571415
0.505224641513
0.50541000069
0.505588504231
0.505761079164
0.50592669788
0.506086245325
0.506238945103
0.506384765437
0.506522581737
0.506652624086
0.506774113246
0.506886782552
0.506989772252
0.507083709194
0.507168050622
0.507243352968
0.50730949674
0.507367127697
0.507416219891
0.507457776489
0.507492414177
0.507521333559
0.507545758671
0.507567223649
0.507587516037
0.50760876414
0.507633148829
0.507663553643
0.507702986778
0.507756387438
0.507826218068
0.507913422712
0.508018827074
0.508143937839
0.50828995871
0.508457965102
0.508650015722
0.508867004215
0.509106710218
0.509367244977
0.509646792373
0.509944437816
0.510259378487
0.510591085114
0.510938984456
0.511302003386
0.511678944351
0.512068261657
0.512468417513
0.512877465986
0.513293578884
0.513714350207
0.514137795703
0.514561921503
0.514984485638
0.515403385885
0.515816602769
0.516222059066
0.516618760249
0.517006422374
0.517383819735
0.51774928757
0.518102858212
0.518447617905
0.518780318186
0.51909660335
0.519407127174
0.519735318037
0.520068403143
0.520382976713
0.52071355746
0.521098473618
0.521517730821
0.521887814036
0.52219572322
0.522553017986
0.522773279517
0.523007774724
0.52330084702
0.523647744334
0.524063426626
0.524083433542
0.524160185645
0.524253908382
0.524356979073
0.524428295538
0.524454766252
0.52450732216
0.524580708028
0.524675309398
0.524781024163
0.524893291107
0.525009728401
0.525129278456
0.525251469269
0.525376983202
0.525506894695
0.525641216318
0.525776907938
0.525909980291
0.526038351704
0.526161443712
0.526280375775
0.526396572733
0.526510656075
0.52662303434
0.526733862438
0.526843270813
0.526951324614
0.527058139987
0.527163797633
0.527268338489
0.527371724225
0.527474060835
0.527575522466
0.527676619615
0.527778079453
0.527880491324
0.52798342201
0.528086394348
0.528190179879
0.528294570134
0.528398671111
0.528501003496
0.528600473482
0.528696833239
0.528790353948
0.528881486603
0.528970646239
0.52905840416
0.529145628028
0.529233466695
0.52932320088
0.529416134692
0.529513776172
0.529617609152
0.529729267067
0.529849992167
0.529981471181
0.530124157612
0.530277877804
0.530441925791
0.530615329476
0.530795838931
0.53097973755
0.531168698149
0.531350715322
0.531520791949
0.531672573833
0.531796512731
0.531879497735
0.531907032895
0.531895487648
0.531765069804
0.531611727095
0.531430365242
0.53123926325
0.531064722911
0.530808186626
0.500235916808
0.500059051876
0.50010866744
0.500284679435
0.500510550678
0.50074603413
0.50098756697
0.501235055771
0.501489522545
0.501749962291
0.502014983228
0.502282330436
0.502549710902
0.502814859576
0.503075943001
0.503331511262
0.503580669825
0.503822872478
0.504058204871
0.504286897934
0.504509475863
0.504725916389
0.504937522496
0.505143842958
0.505345286498
0.505541264755
0.505732101506
0.505916820004
0.506095350927
0.506266682182
0.506430615063
0.506586079906
0.506733098355
0.506870808771
0.506999138594
0.507117726769
0.50722700407
0.507326327287
0.507416164305
0.507496475705
0.50756775824
0.507630380951
0.50768508952
0.507732694386
0.507774253242
0.507810947616
0.50784436588
0.507876241714
0.507908615836
0.507943721612
0.507985353964
0.508037014302
0.508102773725
0.508184996732
0.508285613342
0.508406110538
0.508547631862
0.508709928682
0.508893424923
0.509100523495
0.509332850386
0.509590190275
0.509871836285
0.510177088806
0.510505208089
0.51085490164
0.511224747697
0.511613033093
0.512017451414
0.512435702743
0.51286495573
0.513302365223
0.513745066292
0.514190187923
0.514635040124
0.515077163929
0.515514398089
0.51594466076
0.516366285977
0.516777640186
0.517179377744
0.517571087701
0.517951131186
0.518319140085
0.518680087457
0.519036662058
0.519378063698
0.519704432386
0.520039242946
0.52039819112
0.520757272732
0.521090033046
0.521466656282
0.521862604143
0.522244899195
0.522638321505
0.523017096801
0.523243629473
0.523468819987
0.523710884674
0.523919293242
0.523962458617
0.523927184893
0.524014410644
0.524075073322
0.524128359075
0.524217213262
0.524368521625
0.524544322488
0.524705121958
0.524856912246
0.525002682816
0.52514432776
0.525283051859
0.525419724955
0.525555124691
0.525690493739
0.525826853043
0.525963990551
0.526099148227
0.526229665791
0.526354627657
0.526474836871
0.5265919173
0.526706478318
0.526818800224
0.526929049512
0.52703744296
0.527144224313
0.527249681776
0.527354139558
0.527457897824
0.527561139248
0.527663988102
0.527766578356
0.52786915213
0.52797208697
0.528075549471
0.528179505867
0.528282826216
0.528385463831
0.528488273908
0.528592305361
0.528697178889
0.528801529151
0.528904388369
0.529005368684
0.529104641391
0.529202407219
0.529298898116
0.529394162888
0.529488288985
0.529581044419
0.529672148858
0.529761261538
0.529847998627
0.529931783813
0.530012078876
0.530088185899
0.530159590484
0.530225787495
0.53028647223
0.530341818148
0.530392888112
0.530441345538
0.530490059191
0.530544799496
0.530610549831
0.530689684838
0.530786365896
0.530903755408
0.531041794764
0.531198375127
0.531367114795
0.531530864467
0.531673329206
0.531790041349
0.531879012221
0.531947393866
0.532038835506
0.500281207003
0.500266356309
0.500305337751
0.500399320261
0.500528963209
0.500667493968
0.500823405133
0.500999119303
0.501195386017
0.501410966325
0.501643077439
0.501887898977
0.502141945439
0.502401720833
0.502664364239
0.502927422349
0.503189082556
0.503448032825
0.503703599542
0.503954889858
0.504202226985
0.504445305511
0.504684285196
0.50491877756
0.505149197126
0.505374427905
0.505594508439
0.505808551451
0.506016190506
0.50621627951
0.506408481955
0.506591886338
0.506766049481
0.50693005665
0.507084213996
0.507227685851
0.507360661284
0.50748289195
0.507594713192
0.507695987305
0.507787343994
0.507869208604
0.507942502084
0.508008250188
0.508067786395
0.508122687128
0.508174981201
0.508226787391
0.50828089562
0.508340340075
0.508408202751
0.508486585574
0.508579459339
0.508690091491
0.508821747617
0.508976852665
0.509157350096
0.509363327235
0.509592361073
0.50984178177
0.510111780528
0.510402364057
0.510713347881
0.511043797851
0.511392827489
0.51175969121
0.51214319463
0.512541885234
0.512954039445
0.513377547641
0.513810168791
0.514249287298
0.514691968631
0.515135806256
0.515578468486
0.516016983463
0.516449355241
0.516874910315
0.517291090175
0.51769554334
0.518089668923
0.518476878782
0.518852315402
0.519210770262
0.519562035535
0.519915612616
0.520263239349
0.520576278778
0.520901596317
0.521254139078
0.521607629687
0.521938093181
0.522262549493
0.522617860215
0.522975972649
0.523328325097
0.523618656566
0.523815983191
0.523977655828
0.524072078302
0.524093279968
0.524078187981
0.52414719681
0.524307877935
0.524452977435
0.524595332711
0.524765246684
0.524971135622
0.525183306486
0.525375992365
0.525550630836
0.525711621836
0.52586276884
0.526006797697
0.526145581653
0.526280635379
0.526413338123
0.52654477441
0.526674324949
0.526799863076
0.526919566518
0.527033651568
0.527144109607
0.527252179048
0.527358104799
0.527461760213
0.527563123721
0.527662325835
0.52775963781
0.527855431443
0.52795014013
0.528044153639
0.528137751005
0.528231127164
0.52832447365
0.528418070247
0.528512062626
0.52860620494
0.528699590777
0.528790962023
0.528880105596
0.528968628464
0.52905827149
0.529148961046
0.529239603466
0.529329235361
0.52941748722
0.529504446729
0.529590310526
0.529675300281
0.529759555142
0.529843230857
0.529926320749
0.530008786885
0.530090573687
0.530171606639
0.53025170317
0.530330680121
0.530408206413
0.530483963347
0.530557919441
0.530630047028
0.530700350804
0.530769332592
0.53083778087
0.530907076803
0.530980275575
0.531059665288
0.531146404104
0.531243144753
0.531351738464
0.531472532165
0.531606529895
0.531753641358
0.531906344215
0.532058886593
0.532212160454
0.532373968352
0.532570204434
0.53286394686
0.500287719294
0.500407342396
0.500405102079
0.500433024539
0.5005086441
0.500600318048
0.500718818913
0.500865452146
0.501040668837
0.501241660597
0.501465155958
0.501707099613
0.501963559752
0.502230637716
0.50250512958
0.502784047721
0.503065271035
0.503346682412
0.503627180654
0.503905772413
0.504181904385
0.50445467112
0.504724449337
0.504990252417
0.505251892295
0.50550870492
0.505760379151
0.506005726203
0.506244322575
0.50647506302
0.50669741258
0.50691017524
0.507113170696
0.507305507692
0.507486927924
0.507656865643
0.507815585302
0.507962373806
0.50809758875
0.50822111528
0.508333446904
0.50843491873
0.50852642809
0.508608917241
0.508683759674
0.508752396779
0.508816902611
0.508879565773
0.508943044148
0.509010595719
0.509086829428
0.50917446337
0.509277225538
0.50939874238
0.509541802279
0.509708587028
0.509901127237
0.510119482977
0.510360703888
0.510623495013
0.510906765841
0.511209982293
0.511532892949
0.511875194378
0.512236492663
0.512615913663
0.513012285896
0.513424073735
0.513848845406
0.514284215384
0.514727469791
0.515175838955
0.515625537923
0.516074835542
0.516521672067
0.516962789223
0.517395101365
0.517820149502
0.518238547887
0.518642434392
0.519030371728
0.519414600773
0.519792010397
0.520149715406
0.520502092817
0.52086487998
0.52122319247
0.521559814005
0.521863709341
0.522180079195
0.522529509931
0.522867354437
0.523226314759
0.523570038368
0.523853757561
0.524074355254
0.52422153602
0.524331269093
0.524430017096
0.524489858765
0.524525200645
0.52458185025
0.524706535268
0.524879614534
0.525050126347
0.525221432495
0.525405479522
0.525602880308
0.525798715044
0.525980163588
0.526146240169
0.526299269633
0.52644217102
0.526577335652
0.526706615438
0.526831514204
0.52695330515
0.527072637076
0.527188649092
0.527299625572
0.527404570281
0.527504728434
0.527602310729
0.527698292237
0.527792613841
0.527884938878
0.527975098031
0.528063146346
0.528149341634
0.528234099093
0.528317914867
0.528401237401
0.528484423027
0.52856769834
0.528651335568
0.528735601779
0.528820415765
0.528905068164
0.528987884541
0.529067560001
0.529143948288
0.52921941147
0.529296020293
0.529373981508
0.529452425736
0.52953045116
0.529607730732
0.529684233885
0.529760091217
0.52983538065
0.529910180527
0.529984521621
0.530058388841
0.530131714796
0.530204439283
0.530276455608
0.530347613142
0.530417753774
0.530486642728
0.530554096578
0.530620225034
0.530685190108
0.530749350752
0.53081360268
0.530879054942
0.530947310606
0.531021344951
0.531103452603
0.531195134142
0.531299167688
0.531416944167
0.531548719424
0.53169581154
0.531858196329
0.532029837271
0.532208734538
0.532398443538
0.532610018769
0.532875603513
0.533252797664
0.50033961616
0.500508150226
0.500450483645
0.500450166558
0.500513955984
0.500591473353
0.500696889006
0.500831057269
0.500994752003
0.50118627585
0.50140298349
0.501640736009
0.501896130541
0.502165224158
0.502445027364
0.50273236505
0.50302501498
0.503320745635
0.503618203552
0.503915571661
0.504212461096
0.504507813458
0.504801001562
0.505091236364
0.505378379961
0.505661045169
0.50593881557
0.506210588969
0.506475687039
0.506732854315
0.506981471327
0.507220489958
0.507449312523
0.507666939881
0.507873420155
0.508067814315
0.508250094031
0.508419825146
0.508577200918
0.508721939083
0.508854613366
0.50897550451
0.509085600448
0.509185868684
0.509277795935
0.509362884207
0.509443296543
0.509521220556
0.509599604487
0.509681847681
0.509772656708
0.509874982962
0.509993097073
0.510130808625
0.510291419679
0.51047737896
0.510690195573
0.510927029639
0.511184883461
0.511462406272
0.511758514506
0.512072638506
0.512405033148
0.512755997961
0.513125738162
0.513513880982
0.513919826337
0.514342170532
0.514778100138
0.515223765806
0.515677344985
0.516135217671
0.516592547814
0.517046218573
0.517497655321
0.517942946831
0.518375107157
0.518794857425
0.519209847807
0.51961607545
0.519995535576
0.520386559803
0.520773828725
0.521148507442
0.521501395269
0.521829252572
0.522160325427
0.522487362178
0.52280915401
0.523150442205
0.523487924323
0.52380908369
0.524115861391
0.524371293149
0.524560677535
0.524694345422
0.524785846006
0.524868694173
0.524954881523
0.52503271747
0.525112553529
0.525216491511
0.525357636745
0.525521719351
0.525687572015
0.525854972734
0.526027623963
0.526204408162
0.526378015291
0.52654185097
0.526694214803
0.526835862731
0.526968467528
0.527093707069
0.527213049317
0.527327770811
0.527438970214
0.527546859103
0.52765059476
0.527748741745
0.527841039288
0.527929352975
0.528015658576
0.528100769709
0.528184528493
0.528266557138
0.528346608517
0.528424695427
0.528501059752
0.528576137859
0.52865044121
0.528724458057
0.528798557437
0.528873025757
0.528948172001
0.529024233942
0.52910091451
0.529176908523
0.529250318157
0.52931955727
0.529385082041
0.529449515234
0.529514980591
0.529581930786
0.52964965685
0.529717442678
0.529784958954
0.529852161946
0.529919092976
0.529985759033
0.530052153106
0.530118243255
0.530183985787
0.530249318313
0.530314188565
0.530378516295
0.530442195621
0.530505134536
0.530567200024
0.530628350463
0.530688814443
0.530748876516
0.530809056737
0.530870400496
0.530934166415
0.53100202037
0.531076722369
0.531160424674
0.531254675897
0.53136218357
0.531484125188
0.53162080873
0.531773847607
0.53194371712
0.532126164586
0.532321444956
0.532534635211
0.532778391932
0.533084878274
0.533500366522
0.500454201736
0.500570658017
0.500489351134
0.500515359012
0.500598403026
0.500679897652
0.500783233623
0.500912355801
0.501071004693
0.501257627006
0.501470447988
0.501705840548
0.501960784488
0.502231513893
0.50251533393
0.50280904567
0.503110599161
0.503417408134
0.503728118029
0.504041138559
0.504355385624
0.504669424382
0.504983068098
0.505294883216
0.505604215805
0.505910094935
0.506211812845
0.506507948901
0.506797817117
0.507080105034
0.507354066709
0.507618376068
0.507872621342
0.508115791729
0.508347402175
0.508566733845
0.508773776506
0.508967718778
0.509148768199
0.509316718838
0.50947207216
0.509615135123
0.509746937747
0.509868460817
0.509981234124
0.510086580568
0.510186588449
0.510283263134
0.510379009429
0.510476820643
0.510582426577
0.510698153703
0.51082870711
0.510979410537
0.51115445067
0.511357097798
0.511587527135
0.511840363095
0.512112606178
0.512401960549
0.512707476638
0.513028482488
0.513365633564
0.513720501347
0.514094966946
0.51448849897
0.514901419622
0.51533310387
0.515779635744
0.516235493648
0.516697960994
0.517166208533
0.517632204916
0.518088764189
0.518539468996
0.518984105016
0.519415739413
0.519836210237
0.520259358169
0.520671287595
0.521069391614
0.521443408523
0.521790372712
0.52214238711
0.522487723168
0.522816562752
0.523135565104
0.523450444897
0.523770199315
0.524088473884
0.524384591165
0.52465172734
0.524882954016
0.525063006841
0.525197567061
0.525299994691
0.525385633851
0.525472869718
0.52556655812
0.525662296634
0.525765377222
0.525883996592
0.526021256834
0.526169508512
0.526320180012
0.526472333461
0.526626721111
0.526782057105
0.526934411648
0.527080049824
0.527217266395
0.527346020969
0.527467037161
0.527581363448
0.527690030655
0.527794167993
0.52789454372
0.527991166257
0.528083126341
0.528169365431
0.528250247483
0.528327582079
0.528403151369
0.528477627157
0.528550905832
0.528622645408
0.528692622152
0.528760829912
0.528827506693
0.528893073701
0.528958039882
0.529022894193
0.529088007683
0.529153722619
0.529220383836
0.529288186583
0.529356578493
0.529423875391
0.529487954973
0.529547300321
0.529602861866
0.529657219471
0.529712518153
0.529769242143
0.529826868318
0.529884878485
0.529943017547
0.530001282198
0.530059639592
0.53011805828
0.530176431503
0.530234697131
0.530292761489
0.530350581606
0.530408099315
0.530465277303
0.530522045548
0.530578384987
0.530634257413
0.530689743552
0.530745191848
0.530801011558
0.530857877271
0.530916946125
0.530979610468
0.531047539687
0.531123353818
0.531209042234
0.531306152605
0.531417199381
0.531543304152
0.531684708381
0.531843257844
0.532019883117
0.532211898536
0.532420955016
0.532653162578
0.532921871981
0.533256820832
0.533693606333
0.500633990797
0.500616082952
0.500593060942
0.500695769272
0.500810869116
0.500901681217
0.501007774659
0.501136673253
0.501293988032
0.50147939274
0.501691600726
0.501926748881
0.502182447617
0.502454997772
0.502742133516
0.503040709434
0.503348837323
0.503664106396
0.503985173765
0.504309889125
0.50463761231
0.504966858618
0.505296656441
0.505625884071
0.505954031242
0.506279439058
0.506601462328
0.506918785466
0.507230545023
0.507535317889
0.507832338156
0.508120412377
0.508398784052
0.508666352613
0.508922889291
0.50916734586
0.509399472518
0.509618730959
0.509825163246
0.510018474902
0.510199246413
0.510367794989
0.510525141094
0.510672239549
0.510810454418
0.510940932178
0.511064969932
0.511183805571
0.511299078222
0.511412674137
0.51152922993
0.511653342054
0.511790104874
0.511947334877
0.512132180475
0.512350102594
0.512597810892
0.512867297192
0.5131544248
0.513456024855
0.513770263918
0.514096255524
0.514434464875
0.514789641346
0.51516542512
0.515562528562
0.515980539864
0.516420136014
0.516878344074
0.517344763002
0.517812691039
0.51828469428
0.518755870293
0.5192103251
0.519671004753
0.520129230838
0.520569363991
0.520992305325
0.521391163429
0.521763664376
0.522137910835
0.522503451793
0.522845167063
0.52317133285
0.523486566211
0.523796147887
0.524099678816
0.524397678277
0.524684827031
0.52495185012
0.525191111121
0.525400674418
0.525577050547
0.525718467196
0.525833405068
0.525931661661
0.526023427921
0.526117590824
0.526216340217
0.526318641281
0.526426756717
0.526543663064
0.526669605676
0.526801019709
0.526934334744
0.527068848074
0.52720438739
0.5273398307
0.52747283022
0.52760101126
0.527722929264
0.527838143762
0.527946844613
0.528049570574
0.528147091416
0.528240331853
0.528329837186
0.528415445863
0.528496263298
0.528571535114
0.528641861458
0.528708905721
0.528774157326
0.528838249974
0.528901186776
0.528962730739
0.52902271342
0.529081142021
0.529138246556
0.529194418306
0.529250141406
0.529305859993
0.529361960764
0.529418806868
0.529476826146
0.529536123488
0.529595880115
0.529654234846
0.529708944234
0.529758893886
0.529805229119
0.529850403118
0.529896352516
0.529943551468
0.529991694049
0.530040407078
0.530089574388
0.530139206322
0.53018927922
0.530239708885
0.530290346994
0.530341081394
0.530391796779
0.530442444946
0.530492979859
0.530543393593