/*--------------------------------*- C++ -*----------------------------------*\
| =========                 |                                                 |
| \\      /  F ield         | OpenFOAM: The Open Source CFD Toolbox           |
|  \\    /   O peration     | Version:  v1806                                 |
|   \\  /    A nd           | Web:      www.OpenFOAM.com                      |
|    \\/     M anipulation  |                                                 |
\*---------------------------------------------------------------------------*/
FoamFile
{
    version     2.0;
    format      ascii;
    class       volVectorField;
    location    "4";
    object      Ua;
}
// * * * * * * * * * * * * * * * * * * * * * * * * * * * * * * * * * * * * * //

dimensions      [0 1 -1 0 0 0 0];


internalField   nonuniform List<vector> 
12225
(
(-0.213809105004 40.5344234737 0)
(0.47966811135 11.2888517155 0)
(0.54489124376 10.2311451677 0)
(0.455817243246 9.15464427724 0)
(0.419129996198 8.11286448516 0)
(0.385688498496 7.23140837743 0)
(0.356502752078 6.46762500555 0)
(0.337452194726 5.87800840291 0)
(0.338047593648 5.45063708036 0)
(0.384515039557 5.24139322967 0)
(0.480745584697 5.26855709323 0)
(0.620091487011 5.46831635621 0)
(0.801619478995 5.75144396901 0)
(1.00869665366 5.94875274979 0)
(1.29641331702 5.96061647933 0)
(1.70156750271 5.65171235248 0)
(2.1338617957 4.5936695858 0)
(2.3462813688 2.21690027072 0)
(1.84192351167 -27.9872572495 0)
(1.17891374806 -8.81230971516 0)
(0.866530188912 -8.32948337236 0)
(0.8792891655 -7.60843153665 0)
(0.811391866337 -6.9724968724 0)
(0.78172108784 -6.36073766726 0)
(0.761177820242 -5.779770113 0)
(0.760806837452 -5.22672857409 0)
(0.78444443805 -4.68543362308 0)
(0.839098951842 -4.18117193287 0)
(0.922572692645 -3.74041613831 0)
(1.02736013177 -3.36213309829 0)
(1.14868455128 -3.05132535352 0)
(1.2810757444 -2.80250695127 0)
(1.45079557587 -2.51553843697 0)
(1.65446654438 -2.29285636882 0)
(1.82662675252 -2.11033713819 0)
(1.77550766394 -1.97321428869 0)
(0.769157861367 10.0244761231 0)
(0.769436573177 3.47507347065 0)
(0.800192799129 3.37713112137 0)
(0.747227732259 3.058447235 0)
(0.706128287147 2.78783442362 0)
(0.684899776791 2.53979982193 0)
(0.668059246692 2.29230570065 0)
(0.666577146691 2.05222440589 0)
(0.678656763339 1.8070583849 0)
(0.711468423356 1.54528826291 0)
(0.765296996042 1.26234743808 0)
(0.839723236249 0.961769141604 0)
(0.936801745696 0.651609471325 0)
(1.05297653713 0.348163469193 0)
(1.19765182023 0.0625014006623 0)
(1.35862616534 -0.258497058003 0)
(1.4738140005 -0.621885368934 0)
(1.40158257791 -1.06392146163 0)
(0.964799760372 -1.61500037 0)
(0.969743457113 -0.435321158186 0)
(0.876881236083 -0.491035032946 0)
(0.864249400825 -0.369986977973 0)
(0.822324604271 -0.300042096421 0)
(0.804867526274 -0.232591785777 0)
(0.787863257138 -0.184088750818 0)
(0.785199018439 -0.147959793143 0)
(0.792775918698 -0.125225016418 0)
(0.817040246678 -0.116572630387 0)
(0.858094296081 -0.121809657475 0)
(0.91631439598 -0.140738354213 0)
(0.994054573004 -0.175339399546 0)
(1.08712608683 -0.229649165105 0)
(1.19495206736 -0.310823778905 0)
(1.30145606161 -0.453328159759 0)
(1.35349930612 -0.670897000269 0)
(1.26282851965 -0.95721742616 0)
(0.935551462957 0.476499801407 0)
(0.984039747809 0.286030641806 0)
(0.902181573478 0.215146229153 0)
(0.901079532518 0.188804374004 0)
(0.867423986264 0.146133513969 0)
(0.859782635036 0.110894170982 0)
(0.850863052096 0.0731625188044 0)
(0.855382711889 0.0364800436335 0)
(0.867553932864 -0.000769995983468 0)
(0.89324292776 -0.0394654489185 0)
(0.931958514291 -0.080594105121 0)
(0.983552241209 -0.125964786614 0)
(1.04914040826 -0.179705423303 0)
(1.1242779279 -0.249465767625 0)
(1.20377559123 -0.342382845881 0)
(1.26999130523 -0.477720195902 0)
(1.28142828619 -0.661645163176 0)
(1.19090498638 -0.866262536225 0)
(0.946400126238 0.152403995658 0)
(1.02026165775 0.162744973141 0)
(0.935557703848 0.120609059289 0)
(0.945973937262 0.12097140815 0)
(0.917174660481 0.105628047222 0)
(0.915804984428 0.0923101489005 0)
(0.91155274686 0.0734881773097 0)
(0.919909189213 0.0509687066909 0)
(0.934004847267 0.0235941063079 0)
(0.959141385916 -0.00932585788633 0)
(0.99414496833 -0.0490087146288 0)
(1.0383625348 -0.0971569231387 0)
(1.09187781517 -0.156743888169 0)
(1.14990405727 -0.233578465737 0)
(1.20500408037 -0.332558443778 0)
(1.24055902505 -0.462782078922 0)
(1.22782612572 -0.620945687659 0)
(1.1451815398 -0.774002792994 0)
(0.957065108042 0.136949870179 0)
(1.04424313373 0.156620051052 0)
(0.962604596189 0.12406461917 0)
(0.982383574782 0.121157759621 0)
(0.958113618707 0.10874938447 0)
(0.962156356157 0.0975738187466 0)
(0.961888312201 0.0821833232852 0)
(0.973220300551 0.0628244002854 0)
(0.988470135986 0.0380428507852 0)
(1.01239978355 0.00653439072854 0)
(1.04328889494 -0.0333754794362 0)
(1.08018407185 -0.0833112308395 0)
(1.12232413067 -0.145534291762 0)
(1.1647274492 -0.224310892142 0)
(1.19950447539 -0.322431656851 0)
(1.21286253075 -0.442357094464 0)
(1.18683378155 -0.575483476756 0)
(1.11367931858 -0.693432441781 0)
(0.966867199214 0.106420389058 0)
(1.06145960403 0.148036536065 0)
(0.984668465646 0.123759564596 0)
(1.0119466032 0.119737494393 0)
(0.991489066918 0.109922402583 0)
(0.999699263987 0.0999524457471 0)
(1.00238177214 0.0860844600273 0)
(1.01564108032 0.0676969791559 0)
(1.03117168816 0.0433058067102 0)
(1.05329344321 0.0114436563855 0)
(1.07992779248 -0.0294573240743 0)
(1.10990701212 -0.0805907428469 0)
(1.14185747656 -0.14354398393 0)
(1.17083950464 -0.221071193103 0)
(1.18959813396 -0.314058490172 0)
(1.18775788296 -0.421007416605 0)
(1.15545256498 -0.531783368309 0)
(1.0914343336 -0.625285170193 0)
(0.974351978976 0.0798956574254 0)
(1.07331966298 0.142459182636 0)
(1.00199465871 0.122974236611 0)
(1.03525821533 0.117272166265 0)
(1.0179816969 0.107949882456 0)
(1.02937997874 0.0975819653466 0)
(1.0341934288 0.0836404607734 0)
(1.04851023783 0.064948850622 0)
(1.06360154887 0.0400014846282 0)
(1.08347827369 0.007460399485 0)
(1.10586119116 -0.0339380572952 0)
(1.12946296642 -0.0849615704805 0)
(1.15248099187 -0.146660915627 0)
(1.17030375346 -0.220519385472 0)
(1.17693676635 -0.305924826077 0)
(1.16530169067 -0.399313237663 0)
(1.13074189919 -0.491241038654 0)
(1.074743821 -0.567244720916 0)
(0.977924772346 0.0716761900932 0)
(1.08082794312 0.149826753072 0)
(1.01423720209 0.131238379489 0)
(1.05240382842 0.123934761681 0)
(1.03784866041 0.113454567649 0)
(1.05180880511 0.101282180943 0)
(1.0582218756 0.0854659326685 0)
(1.07301547724 0.0647900461119 0)
(1.08722811393 0.0380563963853 0)
(1.10471489097 0.00431024567397 0)
(1.12308264482 -0.0374173198674 0)
(1.14094407128 -0.0877224837625 0)
(1.15628842586 -0.147174332468 0)
(1.16510180783 -0.216175018016 0)
(1.162917495 -0.293055671294 0)
(1.14531696074 -0.373608639235 0)
(1.11085297528 -0.450036448625 0)
(1.06204072933 -0.512828590434 0)
(0.976212359189 0.0554726757905 0)
(1.08586303508 0.156274287957 0)
(1.02045310173 0.132679340114 0)
(1.06309237657 0.128073264342 0)
(1.05054899885 0.117155958379 0)
(1.06642827669 0.104500378181 0)
(1.07391519443 0.0872747338005 0)
(1.08890239154 0.06523145861 0)
(1.10227887811 0.0374961313134 0)
(1.11767659052 0.00328013779036 0)
(1.13247088915 -0.0382229294829 0)
(1.14529810822 -0.0872678049709 0)
(1.15428969384 -0.143744285515 0)
(1.15622691346 -0.207208952574 0)
(1.14803772165 -0.275574359276 0)
(1.12727733802 -0.344758755586 0)
(1.09414832503 -0.408927441875 0)
(1.05120386259 -0.461822609223 0)
(0.952605819912 0.0281652566206 0)
(1.09031163019 0.14625211662 0)
(1.01702212726 0.120106547571 0)
(1.06534419407 0.115660722252 0)
(1.0531217809 0.10424017379 0)
(1.07004484343 0.0919473080034 0)
(1.07773014688 0.0752588397485 0)
(1.09254791609 0.0539225054227 0)
(1.10487016011 0.0271768946885 0)
(1.11815655576 -0.00553889939089 0)
(1.12983358176 -0.0447897707505 0)
(1.13879437086 -0.0904955926279 0)
(1.1433466707 -0.142325585875 0)
(1.14082358731 -0.199394828611 0)
(1.12926762624 -0.259363957842 0)
(1.10736250369 -0.318944812041 0)
(1.07617411224 -0.373449454 0)
(1.03817693992 -0.418805593677 0)
(0.928184278819 0.0232186758795 0)
(1.08752872531 0.139231369021 0)
(1.00835129332 0.114994667149 0)
(1.06051991204 0.107911263139 0)
(1.04890787697 0.0950917367093 0)
(1.06672405531 0.0816624748839 0)
(1.07422295169 0.0647429694077 0)
(1.08821013104 0.0436778046971 0)
(1.09915918088 0.0177836250136 0)
(1.11050202186 -0.013467531151 0)
(1.11961115072 -0.0503435512693 0)
(1.12544049094 -0.0925308657553 0)
(1.12653841512 -0.13967706213 0)
(1.12107322564 -0.190617823549 0)
(1.10774715657 -0.24315614227 0)
(1.08618691394 -0.294475780392 0)
(1.05779222519 -0.340972167611 0)
(1.02431987294 -0.379849286037 0)
(0.90052734673 0.0133538323824 0)
(1.08567786563 0.134800059233 0)
(0.998644218777 0.109953318278 0)
(1.05480736458 0.103192075099 0)
(1.04267146769 0.0895024196305 0)
(1.06069588203 0.074971839366 0)
(1.06746038183 0.0570491832944 0)
(1.08015062309 0.0355900504245 0)
(1.0889695883 0.00995318283451 0)
(1.09744996151 -0.0204056107879 0)
(1.10332587697 -0.0554872445147 0)
(1.10578616238 -0.0947459414297 0)
(1.10368465902 -0.137593138575 0)
(1.09574480359 -0.182646711351 0)
(1.08149583842 -0.228308739759 0)
(1.06105629553 -0.271916557956 0)
(1.03591462041 -0.311303573389 0)
(1.0072573293 -0.34421802125 0)
(0.866779816061 0.00628457557446 0)
(1.08377317945 0.121943960516 0)
(0.985874521504 0.0973167858923 0)
(1.04706721561 0.0899946336753 0)
(1.03417138584 0.0756492498586 0)
(1.05251340869 0.0605794587385 0)
(1.05846893454 0.0423763086892 0)
(1.06974641856 0.0210681655154 0)
(1.07638642943 -0.0037474322172 0)
(1.08216397217 -0.0321927766604 0)
(1.08506488783 -0.0640907729574 0)
(1.08448453545 -0.0989473512784 0)
(1.07973930059 -0.135970886122 0)
(1.07003068626 -0.174220166348 0)
(1.055507169 -0.212029520426 0)
(1.0366260088 -0.247878039872 0)
(1.01482152753 -0.279894634915 0)
(0.990632158195 -0.307133206676 0)
(0.833440095621 0.00763639657903 0)
(1.08157679616 0.105050059117 0)
(0.971344758569 0.0835329239271 0)
(1.03734802413 0.0759932038815 0)
(1.02310128636 0.0618650786542 0)
(1.0414171492 0.046881122249 0)
(1.04621792417 0.029026828616 0)
(1.05594767586 0.00848720863644 0)
(1.0605792506 -0.0148280980598 0)
(1.06405171132 -0.040798079942 0)
(1.06449592836 -0.0691289464961 0)
(1.06175108674 -0.0992657519048 0)
(1.05519458038 -0.130499763356 0)
(1.04470804849 -0.162054829793 0)
(1.03067103819 -0.192685240195 0)
(1.01376481761 -0.221382166316 0)
(0.995046674849 -0.246996447943 0)
(0.974827289273 -0.269072817492 0)
(0.806228011483 0.0241593992708 0)
(1.0797789552 0.0838614218949 0)
(0.956743976288 0.0660580107842 0)
(1.0266088701 0.0585468645337 0)
(1.01039260932 0.0453855088264 0)
(1.02819541996 0.0314382372968 0)
(1.03146201758 0.015031351532 0)
(1.03947274103 -0.00350778319777 0)
(1.04214435223 -0.0241564279583 0)
(1.04361223215 -0.0466304988554 0)
(1.04222974042 -0.0706290196758 0)
(1.03792133572 -0.0955428670409 0)
(1.03046251459 -0.120948258235 0)
(1.01990336514 -0.145989960841 0)
(1.00692650239 -0.170124722487 0)
(0.99209962502 -0.19241156914 0)
(0.97624260705 -0.212508017108 0)
(0.959431401718 -0.229836239195 0)
(0.781452402049 0.0385906662835 0)
(1.07773788289 0.0580858450986 0)
(0.943225740598 0.045108839066 0)
(1.01581259355 0.0381811930892 0)
(0.997252711097 0.027047384337 0)
(1.01417253342 0.015161890203 0)
(1.01566505166 0.00128827394925 0)
(1.02193221495 -0.0142238609574 0)
(1.02288299623 -0.0313022840277 0)
(1.02279146883 -0.0496093072304 0)
(1.02011830348 -0.068872839858 0)
(1.01496770841 -0.0885856134214 0)
(1.00727679159 -0.108337141246 0)
(0.997229462092 -0.127616376343 0)
(0.98555309507 -0.145960532746 0)
(0.972705182547 -0.162912279241 0)
(0.959287113359 -0.178162762265 0)
(0.945149019132 -0.191472673731 0)
(0.773045625689 0.0926578602478 0)
(1.07791940635 0.0280110941518 0)
(0.937378901102 0.0238514855956 0)
(1.01037817858 0.0163763049702 0)
(0.98927919515 0.00804183438506 0)
(1.00461173763 -0.00140788606584 0)
(1.00391389526 -0.0121675561129 0)
(1.00812471261 -0.0240159943078 0)
(1.00716323357 -0.0369377505495 0)
(1.00546466905 -0.0506180231779 0)
(1.00156133154 -0.0649214242949 0)
(0.995708182761 -0.079352343069 0)
(0.987899785749 -0.0937092257769 0)
(0.978370837554 -0.107577143763 0)
(0.967812513033 -0.120754713351 0)
(0.956575813021 -0.132875387512 0)
(0.94510132255 -0.143835385891 0)
(0.933189213617 -0.153398875091 0)
(0.812832010179 0.137377673562 0)
(1.08050861128 0.00519597788423 0)
(0.949666875527 0.00723180178369 0)
(1.01596002407 -0.000374299292779 0)
(0.993806827159 -0.0062937975301 0)
(1.00650438564 -0.0135780703735 0)
(1.00372752699 -0.0215742548507 0)
(1.00595516641 -0.0303040165304 0)
(1.00324343427 -0.0396495634965 0)
(1.00002143916 -0.049620837814 0)
(0.994988911833 -0.059877791058 0)
(0.988412294702 -0.0703055915294 0)
(0.980280602664 -0.0805217105632 0)
(0.970777151225 -0.0904934636097 0)
(0.960593713953 -0.0998373662933 0)
(0.949995436991 -0.108568897907 0)
(0.939371866065 -0.116341723105 0)
(0.928422470691 -0.123266374766 0)
(0.843778755461 0.144697962338 0)
(1.08455509685 -0.00551685157811 0)
(0.963032641883 -0.00295070988526 0)
(1.02472372847 -0.00916325190705 0)
(1.00188227877 -0.0136007284266 0)
(1.01271382344 -0.0190120001065 0)
(1.00844755799 -0.0249277643117 0)
(1.00932179436 -0.0313301917443 0)
(1.00523635578 -0.0382107941295 0)
(1.00089916898 -0.0455672386622 0)
(0.994923949224 -0.0531844964953 0)
(0.987693911304 -0.060989356024 0)
(0.97914196987 -0.0686049286223 0)
(0.969523261891 -0.0760691318533 0)
(0.959395730646 -0.0830403614201 0)
(0.949108953604 -0.0895497656257 0)
(0.938908434201 -0.0952977764245 0)
(0.928495795573 -0.100448251346 0)
(0.868110781025 0.164152202424 0)
(1.08870590878 -0.0123240960431 0)
(0.975675866562 -0.00852200532625 0)
(1.03353674071 -0.013789651097 0)
(1.01031600722 -0.017039399173 0)
(1.0197812191 -0.021093825253 0)
(1.01442153452 -0.0254801132602 0)
(1.01423554606 -0.0302423736456 0)
(1.00920415909 -0.035414696884 0)
(1.00398708421 -0.0409138748715 0)
(0.997257318234 -0.0467288261147 0)
(0.989549339243 -0.0525076716622 0)
(0.980739478337 -0.0582737183624 0)
(0.970997069711 -0.0637678333198 0)
(0.960944236506 -0.068987659351 0)
(0.950863417804 -0.0736495376762 0)
(0.940904557995 -0.0779601232282 0)
(0.930897442385 -0.0815800425906 0)
(0.895887562674 0.166165363333 0)
(1.09416415414 -0.0186718477172 0)
(0.988834415979 -0.0117484032106 0)
(1.04311788252 -0.0159911606074 0)
(1.01963468221 -0.01774279465 0)
(1.02790688854 -0.0204615825093 0)
(1.0216096928 -0.0234881732371 0)
(1.02053508381 -0.026946618936 0)
(1.01468072035 -0.030786958555 0)
(1.00874493506 -0.0349425709642 0)
(1.00158119418 -0.0392470759338 0)
(0.993557111264 -0.0435753424306 0)
(0.984557869499 -0.0478392225035 0)
(0.97481009748 -0.0518700996246 0)
(0.96491888322 -0.0555924122069 0)
(0.954933600069 -0.0589715465425 0)
(0.945240633148 -0.0619919542876 0)
(0.935461492925 -0.06465385604 0)
(0.925339219602 0.152071076158 0)
(1.10001647083 -0.0290114404788 0)
(1.00244649923 -0.0170328066026 0)
(1.05277616215 -0.0206259445284 0)
(1.02922255125 -0.0203724275403 0)
(1.03637101015 -0.0216881897039 0)
(1.02924114905 -0.0234941110382 0)
(1.02738483143 -0.0257911596048 0)
(1.02091252517 -0.0284997281947 0)
(1.01456771586 -0.0315151651319 0)
(1.00704924148 -0.0347324772578 0)
(0.998806089129 -0.0379188342729 0)
(0.98980106615 -0.0409398097324 0)
(0.98015729324 -0.0438373452075 0)
(0.970329489479 -0.0464066226531 0)
(0.960506147839 -0.0487481990831 0)
(0.950846013637 -0.0507875876458 0)
(0.94119891099 -0.0527144537225 0)
(0.955379619752 0.186412507621 0)
(1.10637146816 -0.011039487903 0)
(1.01652280499 0.00832458837804 0)
(1.06246742393 0.00197413204661 0)
(1.03919787409 0.00276579588095 0)
(1.04499351388 0.00102311361699 0)
(1.03705421999 -0.000518159435244 0)
(1.03453205252 -0.00247469550973 0)
(1.02750442494 -0.00466007454498 0)
(1.02066793746 -0.00712905755004 0)
(1.0129265532 -0.00974253661428 0)
(1.00468635676 -0.0123631536979 0)
(0.995655635969 -0.0148607078395 0)
(0.986071254967 -0.0172384921283 0)
(0.976408393197 -0.019461465094 0)
(0.966624927361 -0.0214440278945 0)
(0.956976668129 -0.0233466692657 0)
(0.947107041138 -0.02504230154 0)
(0.980678447357 -0.307282739752 0)
(1.10432508893 -0.249432446437 0)
(1.03178521135 -0.214406894578 0)
(1.07121488283 -0.207279001452 0)
(1.0489737864 -0.192013462242 0)
(1.05373798487 -0.183576978603 0)
(1.04559581972 -0.176161772039 0)
(1.04266788549 -0.170942618261 0)
(1.03535301781 -0.167222088336 0)
(1.02834629772 -0.16476850591 0)
(1.02053729217 -0.163393970808 0)
(1.01232637727 -0.162303616793 0)
(1.00350021247 -0.160772597288 0)
(0.994109662584 -0.159185043091 0)
(0.984693098905 -0.157290895518 0)
(0.975240583754 -0.154985153605 0)
(0.966023563342 -0.152224082731 0)
(0.958280581961 -0.149280889367 0)
(1.08580220557 2.53200141352 0)
(1.14209895322 0.940433431354 0)
(1.05327883887 1.02443870373 0)
(1.08892290507 0.945786419101 0)
(1.06518205516 0.907624810847 0)
(1.06613475761 0.864094688955 0)
(1.05565259593 0.826406596136 0)
(1.05034941222 0.792057557651 0)
(1.04104192147 0.761322898061 0)
(1.03212460181 0.733347654967 0)
(1.02252185734 0.707909982778 0)
(1.01333105161 0.684532683378 0)
(1.00380342688 0.662537896238 0)
(0.99363634475 0.641974431054 0)
(0.983403729197 0.622681709195 0)
(0.972914116966 0.604233809086 0)
(0.96205038399 0.585731498312 0)
(0.947387853145 0.567117069325 0)
(0.804003490173 -11.0792249185 0)
(0.969849011403 -4.24745731393 0)
(1.09456287275 -4.15046958671 0)
(1.08431253646 -3.91902596063 0)
(1.07295175291 -3.71483618094 0)
(1.07522385582 -3.52766040554 0)
(1.06907071408 -3.34743996517 0)
(1.06792892416 -3.18087974299 0)
(1.06292201493 -3.02487981833 0)
(1.05853264849 -2.88032931132 0)
(1.05498860662 -2.74820910246 0)
(1.05126306656 -2.62577217564 0)
(1.04637152376 -2.51150762051 0)
(1.04119865527 -2.40711879617 0)
(1.0366423997 -2.31376094315 0)
(1.03208900832 -2.23101334519 0)
(1.02814255563 -2.15647502919 0)
(1.03307070997 -2.08613862636 0)
(2.37960498621 29.5892099962 0)
(1.43101656278 10.3394884498 0)
(1.1353466057 10.0691708719 0)
(1.20061942116 9.50312979311 0)
(1.16275711422 9.03157921523 0)
(1.1554646024 8.57746120608 0)
(1.13777419551 8.14095246394 0)
(1.12325190955 7.73080129484 0)
(1.10460513162 7.34014241169 0)
(1.08408295796 6.96922674619 0)
(1.06043510765 6.61906025173 0)
(1.03857405705 6.28642847975 0)
(1.01699248567 5.96937100534 0)
(0.992761409386 5.66887750228 0)
(0.966291367593 5.38724046278 0)
(0.939677285871 5.12599126708 0)
(0.915492475329 4.88541872506 0)
(0.902330590056 4.66200673865 0)
(0.405393432342 -41.5244267168 0)
(0.821486284249 -13.9345110851 0)
(1.03906607346 -13.3987010668 0)
(0.978096179149 -12.766571918 0)
(0.9910469949 -12.1094722484 0)
(0.995779170273 -11.5271481581 0)
(0.994677726752 -10.9415609932 0)
(0.999640423529 -10.4030568067 0)
(0.999445781982 -9.8885064482 0)
(1.0016691268 -9.40506093628 0)
(1.0049908243 -8.9519274697 0)
(1.00628228932 -8.52786350131 0)
(1.00601810782 -8.12624716611 0)
(1.00715395215 -7.74080287054 0)
(1.01085432236 -7.36846666375 0)
(1.01552918077 -7.00407853879 0)
(1.01884556802 -6.63765078013 0)
(1.00410700739 -6.24864742209 0)
(0.112742471545 -0.0984489639883 7.06060805521e-20)
(-0.0288134320023 -0.128041533133 0)
(-0.0915906452097 -0.189525751672 0)
(-0.082188608735 -0.209772450984 0)
(-0.0727046621279 -0.216658417478 0)
(-0.0640324055155 -0.21894025518 -1.41219470031e-20)
(-0.0534066747776 -0.22021657834 0)
(-0.0408626998797 -0.22266399062 0)
(-0.0265723507611 -0.226903990706 7.72963963632e-21)
(-0.0109696702419 -0.233463549995 0)
(0.00567732990209 -0.242208155563 -5.92397464444e-21)
(0.0230271633078 -0.253172072424 0)
(0.0408633244703 -0.265956625229 -4.90542171506e-21)
(0.0589885596628 -0.280449404938 -4.57443996029e-21)
(0.0772392216611 -0.296226161892 0)
(0.0954846473363 -0.313155128706 4.12081940909e-21)
(0.113589487274 -0.330854523494 3.96649740866e-21)
(0.131465693256 -0.349209168443 3.85374586955e-21)
(0.148969737685 -0.367890234033 0)
(0.166000047049 -0.386814497576 0)
(0.182417716392 -0.405690555492 0)
(0.198185796363 -0.42448664436 0)
(0.213142369062 -0.442972155106 0)
(0.227257331319 -0.461125139002 0)
(0.240461787222 -0.478802985646 -3.46655902849e-21)
(0.252777909621 -0.496053050817 -3.42832988912e-21)
(0.26421259458 -0.512781100398 0)
(0.274835791391 -0.529056614609 3.34399022166e-21)
(0.284684122344 -0.544831912642 3.29767885365e-21)
(0.293827700564 -0.560188105383 3.25180168275e-21)
(0.302339152572 -0.57509582413 0)
(0.31030962711 -0.589646664309 0)
(0.317781481276 -0.603820502494 -3.10221343562e-21)
(0.324816347783 -0.617695135523 0)
(0.331486686882 -0.631246112373 0)
(0.337867410345 -0.644562591505 -2.95048568386e-21)
(0.343958342238 -0.657600846197 0)
(0.349814546242 -0.670421592609 0)
(0.355449241793 -0.68299366909 0)
(0.360904216354 -0.695372085218 0)
(0.366184769352 -0.707526395193 0)
(0.37132373734 -0.719504358853 5.31189896388e-21)
(0.376321240026 -0.731282777763 0)
(0.381199785761 -0.742904965846 0)
(0.385953737693 -0.754355213784 5.03854932912e-21)
(0.390596248402 -0.765670996706 4.95267525339e-21)
(0.395122841695 -0.77684403552 0)
(0.399537695068 -0.787908627897 0)
(0.403830856135 -0.798851590975 4.70945746588e-21)
(0.40801702547 -0.809712497814 0)
(0.412106122364 -0.820512151724 -4.56230637462e-21)
(0.416157886755 -0.831429566972 0)
(0.420226743106 -0.842710712536 4.42981562432e-21)
(0.424310075141 -0.854576542461 0)
(0.42836421195 -0.867134308594 4.3200272166e-21)
(0.43231882592 -0.880435950629 4.27460324037e-21)
(0.436098986522 -0.894453093163 0)
(0.439616208875 -0.909141791154 0)
(0.442797197757 -0.924490123331 0)
(0.445690294592 -0.940103885348 4.13923606036e-21)
(0.448417769866 -0.954956869264 0)
(0.450991522435 -0.969328351323 0)
(0.453364750065 -0.983429571009 0)
(0.455532654929 -0.997416986275 0)
(0.457474914207 -1.01135066099 0)
(0.459207222833 -1.02530409857 0)
(0.46076093788 -1.03933885559 0)
(0.462161309815 -1.05354545519 -4.08311990415e-21)
(0.463448135408 -1.06801356742 0)
(0.464640262626 -1.08287033983 -4.20073415185e-21)
(0.46576466174 -1.09822979259 -4.28982828857e-21)
(0.466842917378 -1.11425944847 0)
(0.467888511799 -1.13110477348 4.54109375932e-21)
(0.468896886432 -1.14894622767 0)
(0.469889354064 -1.16794134934 -4.90575653826e-21)
(0.470868821366 -1.18831569598 0)
(0.471806973021 -1.21022615397 5.40540808124e-21)
(0.472702284772 -1.23392476631 -5.71313546963e-21)
(0.473562762719 -1.25962442445 0)
(0.4743884888 -1.28761196022 0)
(0.475148471722 -1.31809475287 0)
(0.475852707548 -1.35139794851 0)
(0.476450453699 -1.38781028436 -7.94007480924e-21)
(0.477012445464 -1.4276948607 8.54356049595e-21)
(0.477516219804 -1.47133228766 -1.84106231765e-20)
(0.477964526701 -1.51923215862 -1.98563086741e-20)
(0.478555876071 -1.57224193454 -2.14419272852e-20)
(0.479277464632 -1.63086492666 0)
(0.480785442904 -1.69462165939 0)
(0.482680204035 -1.76470165053 0)
(0.483901827367 -1.8428055877 -2.93766928624e-20)
(0.485122544796 -1.93004295047 0)
(0.487292135428 -2.02408877473 0)
(0.490601906982 -2.12794074689 -3.8087222342e-20)
(0.496679491279 -2.25509972484 0)
(0.512092630918 -2.42050875228 4.72996727279e-20)
(0.54259255198 -2.60547272171 0)
(0.583235792387 -2.79115222975 -6.18295000732e-20)
(0.628638907038 -2.99378533563 0)
(0.682548943261 -3.24590730935 0)
(0.722259441092 -3.57624978144 0)
(0.719201207639 -3.91786679678 -1.2590508998e-19)
(0.745580784166 -4.15494854167 0)
(0.878584552737 -4.31909889811 -2.1054561811e-19)
(1.11224225743 -4.57156341219 -2.98690413395e-19)
(1.38377492571 -5.06520073686 0)
(1.13521896857 -5.57337994209 0)
(0.836613221853 -4.73006293199 0)
(0.792827082611 -3.83282445953 -3.32677809446e-19)
(0.756881110255 -3.16195223993 0)
(0.717825786385 -2.65377772779 0)
(0.683543169598 -2.24938359656 -2.14166447541e-19)
(0.65470018191 -1.91464059889 -1.94026213202e-19)
(0.630598966107 -1.62940014462 0)
(0.610396767737 -1.38049422702 1.65035668245e-19)
(0.593292924836 -1.15926949586 1.54126047815e-19)
(0.578700954045 -0.959374265637 -1.44813012499e-19)
(0.566156140122 -0.77647390888 0)
(0.555284530008 -0.60720929834 0)
(0.545744378717 -0.449246541462 0)
(0.537232902843 -0.300642618695 1.1763913985e-19)
(0.529584630886 -0.159893274845 0)
(0.522740290958 -0.0257228020195 1.07880365116e-19)
(0.516687291566 0.102819903312 0)
(0.511345539879 0.226536240857 0)
(0.506574579648 0.345939261585 0)
(0.502228157323 0.461497974537 -9.27280995529e-20)
(0.498193625966 0.573531264477 -8.961937664e-20)
(0.494386793383 0.682353242777 0)
(0.490758032291 0.788169485546 0)
(0.487272124166 0.891181009013 0)
(0.483914994403 0.991509028836 0)
(0.480680273827 1.08927311992 0)
(0.477575934475 1.18452898212 0)
(0.474614472921 1.27733208878 -1.46063407497e-19)
(0.471801746752 1.36768752476 0)
(0.469144054837 1.45561831082 0)
(0.46662715194 1.54108272139 0)
(0.464194491232 1.62400743642 1.32789718651e-19)
(0.461767562085 1.70427611877 1.29947975247e-19)
(0.459268147754 1.78176277652 -1.27290701402e-19)
(0.456728691338 1.85647477185 -1.24798943488e-19)
(0.454151446358 1.92827845423 0)
(0.451557869605 1.99716558823 0)
(0.448937117445 2.063028347 0)
(0.446266981466 2.12589515069 -1.16349243714e-19)
(0.443520409255 2.18569249124 0)
(0.440662339488 2.24244711685 0)
(0.437636014472 2.2960455481 1.11502079849e-19)
(0.434366960956 2.3464259679 0)
(0.430741000054 2.39331444463 1.08917727383e-19)
(0.426610789682 2.43644350037 0)
(0.421792614991 2.47528555499 1.06807955484e-19)
(0.416071028982 2.50916881004 0)
(0.409176560366 2.53704125962 0)
(0.400820325147 2.55772386677 0)
(0.390701208564 2.56962930453 0)
(0.378539348064 2.57105217711 0)
(0.364088969727 2.55992155447 0)
(0.347186472121 2.53415817231 0)
(0.327765028347 2.49156118559 0)
(0.305833445194 2.43006380166 1.02862184114e-19)
(0.281570829824 2.34759076679 0)
(0.255307735502 2.24277068756 0)
(0.227471550525 2.11491767097 1.040125524e-19)
(0.198646661813 1.96453548915 0)
(0.169563832132 1.79348422757 0)
(0.140826491943 1.60579539624 1.06923336029e-19)
(0.113154638902 1.40631366748 0)
(0.0876656033404 1.20217535167 0)
(0.0650370649272 1.00230983315 1.11796759219e-19)
(0.0459747388238 0.817218518212 -1.13972257076e-19)
(0.0307884607863 0.659190691206 1.16498074608e-19)
(0.01792961127 0.542788986708 0)
(0.00629213718421 0.479726054653 0)
(-0.0032430877903 0.48450485383 2.52686055526e-19)
(-0.0105004878881 0.579915824554 0)
(-0.0189240793724 0.789440759287 -2.68965355216e-19)
(-0.0310243859809 1.14832926664 -2.76497668208e-19)
(-0.0565002515339 1.71217936437 0)
(-0.361967864095 -0.199151609972 -1.07427001995e-19)
(-0.287005724495 -0.160887692239 0)
(-0.207984901839 -0.13707986442 3.31064572934e-20)
(-0.151499165889 -0.125797263996 -2.7002696599e-20)
(-0.115247964149 -0.121346703773 -2.27217212214e-20)
(-0.0907564879119 -0.119042720507 8.2439840664e-21)
(-0.0720897678539 -0.116344492818 1.68151692168e-20)
(-0.0559845110685 -0.112617133399 0)
(-0.0406645145404 -0.107624145961 -5.49222751195e-21)
(-0.0254525401081 -0.10176637621 1.20249269781e-20)
(-0.0100607170982 -0.095153245983 1.56074490485e-20)
(0.00559725809956 -0.0882348343856 -1.0387291099e-20)
(0.0214974992246 -0.0810996809505 1.3780073762e-20)
(0.0375830998421 -0.0741030983298 3.73734309523e-21)
(0.0537660996838 -0.0672710590096 0)
(0.0699722891764 -0.060870370603 -3.47523581559e-21)
(0.086113394815 -0.0548746112949 -3.38926299023e-21)
(0.102126959353 -0.0494871434804 -3.33158380833e-21)
(0.117903178208 -0.0446424418305 8.76296459114e-21)
(0.13339696055 -0.0404807749591 0)
(0.148494668886 -0.0369118574355 8.79290297461e-21)
(0.1631426006 -0.0340306346442 0)
(0.177254401571 -0.0317252877037 -8.88227276096e-21)
(0.190792284887 -0.0300497136163 0)
(0.203678350037 -0.0288848542498 1.21537348096e-20)
(0.21594252193 -0.028252654099 -5.88222832082e-21)
(0.227590218133 -0.0280378250718 -9.07379881914e-21)
(0.23864220613 -0.0282623844918 -1.2215249147e-20)
(0.249120619465 -0.0288220493027 -3.0750821578e-21)
(0.259086076375 -0.0297367051637 -3.0449055222e-21)
(0.26858612981 -0.0309084420343 0)
(0.27765828129 -0.0323711266634 -9.1873859129e-21)
(0.286336926046 -0.0340393607705 2.93691911809e-21)
(0.294688630531 -0.0359451452246 0)
(0.302740048868 -0.0380121128794 0)
(0.310532094197 -0.0402862712347 2.81912626139e-21)
(0.318085216816 -0.0427071192952 0)
(0.325428049263 -0.0453151956342 0)
(0.332563248552 -0.048062837575 0)
(0.339519101749 -0.0509902063767 0)
(0.346299635862 -0.0540647554275 0)
(0.352922006611 -0.0573279025867 1.30585812039e-20)
(0.359384414729 -0.0607623955695 1.81732479454e-20)
(0.365693552646 -0.064414349269 0)
(0.371841661258 -0.0682824962124 1.31889685702e-20)
(0.377828107421 -0.0724202569608 -4.8412392848e-21)
(0.383636731269 -0.0768413410159 0)
(0.389263412997 -0.0816095944003 0)
(0.394683709686 -0.0867567914616 -2.2635500123e-20)
(0.399882270375 -0.092362902909 -1.7993646784e-20)
(0.404804969416 -0.0984827280337 4.507368721e-21)
(0.409374448799 -0.10498837601 1.79936985532e-20)
(0.413566585134 -0.111652152487 1.36042620783e-20)
(0.417404400938 -0.118339470686 0)
(0.420927496669 -0.124978200159 -2.23739994138e-20)
(0.424165086712 -0.131598932319 -4.28641150406e-21)
(0.427145573808 -0.138248529868 0)
(0.429794435768 -0.145018249069 1.82778210607e-20)
(0.432026013535 -0.151432722257 -1.84040798847e-20)
(0.433930529525 -0.156465009218 -4.20668644153e-21)
(0.435621559462 -0.160894416051 0)
(0.437260218873 -0.16464959807 0)
(0.438971001779 -0.16787880095 0)
(0.440805227376 -0.170810509465 1.88077132205e-20)
(0.442782335624 -0.173638274205 0)
(0.444902591508 -0.176566903879 -1.91257955234e-20)
(0.447156151585 -0.179748571534 0)
(0.449533359469 -0.183337586994 -1.54405992934e-20)
(0.452023635722 -0.187424781227 0)
(0.454612117543 -0.192115879379 -1.59812924074e-20)
(0.457283115017 -0.197443675745 -1.63075999185e-20)
(0.460004294853 -0.203477242016 0)
(0.462761043018 -0.21020984481 -4.62209447587e-21)
(0.465538355245 -0.217692871649 0)