/*--------------------------------*- C++ -*----------------------------------*\
| =========                 |                                                 |
| \\      /  F ield         | OpenFOAM: The Open Source CFD Toolbox           |
|  \\    /   O peration     | Version:  v1806                                 |
|   \\  /    A nd           | Web:      www.OpenFOAM.com                      |
|    \\/     M anipulation  |                                                 |
\*---------------------------------------------------------------------------*/
FoamFile
{
    version     2.0;
    format      ascii;
    class       volScalarField;
    location    "7";
    object      p;
}
// * * * * * * * * * * * * * * * * * * * * * * * * * * * * * * * * * * * * * //

dimensions      [0 2 -2 0 0 0 0];


internalField   nonuniform List<scalar> 
12225
(
-2.1149386458
-2.82666394465
-3.12721132471
-3.22811639344
-3.28097527922
-3.33194366216
-3.3852824738
-3.43510818173
-3.47588370572
-3.50444868222
-3.51951071507
-3.52063045179
-3.50745071314
-3.47913278674
-3.43393942416
-3.36878830684
-3.27766414028
-3.15240903474
-2.28219302987
-2.84790011509
-3.13101776909
-3.23295612332
-3.28683576097
-3.33777061769
-3.39055914117
-3.43973889231
-3.47998731204
-3.50822424768
-3.52316782392
-3.52436972191
-3.51146896281
-3.4836543457
-3.43928869408
-3.37562498594
-3.28861393398
-3.18954527085
-2.42287942869
-2.84560284567
-3.11243222884
-3.22430707776
-3.28543392426
-3.33954643911
-3.39329715193
-3.44258196331
-3.48280373003
-3.51121114642
-3.52664688513
-3.52871887035
-3.51713051239
-3.49121653132
-3.44968069346
-3.39059020041
-3.31171462573
-3.22064140358
-2.54551770759
-2.86205332092
-3.1097280151
-3.23009754066
-3.29723857825
-3.35262571694
-3.40534218896
-3.45307681403
-3.49210216817
-3.51998284019
-3.53561823584
-3.53860769387
-3.52868577528
-3.50534568124
-3.46768341083
-3.41453589861
-3.34493017993
-3.26329886987
-2.65451790999
-2.89131639536
-3.11282570759
-3.23540503703
-3.30588117135
-3.36136684111
-3.41264474647
-3.45895124501
-3.49725956896
-3.52531474206
-3.54198207287
-3.54680669945
-3.53955102757
-3.51989270874
-3.48734236283
-3.4414376903
-3.38218361321
-3.31268561622
-2.75186942875
-2.92908679063
-3.12202421889
-3.24289522458
-3.31605962036
-3.37234047309
-3.42310802346
-3.46882865959
-3.50711553695
-3.5359124648
-3.55409733896
-3.56121998497
-3.55713100029
-3.5417434826
-3.51499568314
-3.47705924065
-3.42874670814
-3.37308717984
-2.83939717081
-2.97255174858
-3.13743278216
-3.25334466951
-3.32793379475
-3.38489043294
-3.43521233242
-3.48032903505
-3.51850925302
-3.54796973766
-3.56767332818
-3.57722651775
-3.57660160103
-3.56595244973
-3.54560489244
-3.51624887841
-3.47927791623
-3.43777581164
-2.91870449381
-3.01953223803
-3.15855676862
-3.26710239038
-3.34171512839
-3.39910797757
-3.44913969723
-3.49387994652
-3.53221065518
-3.56265402046
-3.5842935897
-3.59681115586
-3.60030057331
-3.59512909305
-3.58193934907
-3.56180363546
-3.53647927438
-3.5090007218
-2.99114416793
-3.06839396534
-3.18465225159
-3.28436763682
-3.35768884163
-3.41518885278
-3.46506498051
-3.50967515859
-3.54841844903
-3.58012964733
-3.60403684924
-3.61991283016
-3.6279677869
-3.62874974011
-3.62314085083
-3.61246518616
-3.59865081767
-3.58449677019
-3.05784626346
-3.11796570755
-3.21487262342
-3.30516324539
-3.37609963449
-3.43332450939
-3.48313656753
-3.5278635318
-3.56729908729
-3.6005780765
-3.62709028416
-3.6467086439
-3.65974860656
-3.66689548413
-3.66918896081
-3.66807959957
-3.66551075709
-3.66393728096
-3.11971219455
-3.1674028412
-3.24831091773
-3.32929465412
-3.39707620399
-3.45366962677
-3.50349118754
-3.54858944248
-3.58901870652
-3.62417978337
-3.65362812916
-3.67733665374
-3.6957063972
-3.70950989837
-3.71986350298
-3.72823738395
-3.73647718342
-3.74661712399
-3.17270865349
-3.21217393387
-3.28120563683
-3.35419189491
-3.41866177899
-3.47440622983
-3.52429128523
-3.56995901354
-3.61157915443
-3.64875112881
-3.68117052282
-3.70889426082
-3.73237565686
-3.75242613355
-3.77016297339
-3.78700232174
-3.80463503525
-3.82472655044
-3.22243769249
-3.255743944
-3.31512396044
-3.38091012039
-3.44199611135
-3.49675345492
-3.5467483084
-3.59316251086
-3.63619268868
-3.67558731645
-3.71116303648
-3.74304433983
-3.7717207246
-3.79799478535
-3.8229532993
-3.84789913656
-3.87434805836
-3.90357779031
-3.2757804918
-3.30397749053
-3.35479036792
-3.41357259639
-3.47099115803
-3.52457929311
-3.57478665991
-3.62227887325
-3.6672007212
-3.70940703678
-3.74881757985
-3.78561045697
-3.82027629488
-3.85358090085
-3.88650943241
-3.9202120689
-3.95595628689
-3.99463868488
-3.33205347475
-3.35627324877
-3.3999895895
-3.4524849194
-3.50631293599
-3.55872875035
-3.60934724766
-3.65834139774
-3.70572800692
-3.75141567885
-3.79537824744
-3.83782727371
-3.879204935
-3.92019709009
-3.9616300069
-4.00445076023
-4.04965353918
-4.097734018
-3.39007103633
-3.41144310469
-3.44981283465
-3.49728717656
-3.54813589709
-3.59972628164
-3.65117198018
-3.70222599671
-3.7527528122
-3.80262967489
-3.85186086087
-3.90060706765
-3.94925584713
-3.99832503551
-4.04847821183
-4.10039014841
-4.15480767831
-4.21182205529
-3.447695364
-3.46731493218
-3.50228887435
-3.54653951478
-3.59563464975
-3.64723542651
-3.70021687775
-3.75405287641
-3.80844247917
-3.86320481757
-3.91828432617
-3.97378011922
-4.02993441433
-4.08710981601
-4.145730458
-4.2062463803
-4.26911298655
-4.33412483539
-3.50092896958
-3.51988289428
-3.55361218226
-3.59695630187
-3.64619571794
-3.6992250628
-3.7548439847
-3.81237763542
-3.8714005433
-3.93164501519
-3.99296175223
-4.0553373058
-4.11885586118
-4.18370124674
-4.25008301307
-4.31823888087
-4.38840024332
-4.46012510311
-3.54208227528
-3.56167859687
-3.59684296112
-3.64235875421
-3.6944527867
-3.75101888934
-3.81086059015
-3.87328523535
-3.93780795488
-4.00407469909
-4.07181664247
-4.14088541984
-4.21120402037
-4.28279163005
-4.35567486345
-4.42991950544
-4.50558086322
-4.58204086893
-3.55237030653
-3.57422960596
-3.6140442313
-3.66512957197
-3.72264403486
-3.78426459737
-3.84897105788
-3.91630323746
-3.98582611231
-4.05717738725
-4.12996970342
-4.20398855963
-4.27903138252
-4.35506488786
-4.43199849233
-4.50985547817
-4.58858768826
-4.66753807653
-3.54060528906
-3.56582010527
-3.61232943287
-3.67070713594
-3.73443619833
-3.80106856452
-3.87012770277
-3.94151555662
-4.01499427315
-4.09012613583
-4.16652774802
-4.24386086172
-4.32196390605
-4.40069732303
-4.48004157941
-4.55991292447
-4.64034814136
-4.72058156165
-3.51194481539
-3.54264539761
-3.59910531268
-3.66698112458
-3.73761743996
-3.80913428638
-3.88213166872
-3.95713569914
-4.03402178203
-4.1123304938
-4.19158028217
-4.2714244376
-4.35166960818
-4.43221210605
-4.5130130207
-4.59402129577
-4.67523702076
-4.75592779165
-3.46891903867
-3.50848045125
-3.57911104958
-3.6583852535
-3.73584488492
-3.81156098688
-3.88790364258
-3.96605595336
-4.04592762334
-4.12694050846
-4.20853480047
-4.29037211009
-4.3722673844
-4.45419090266
-4.53608945961
-4.61798061253
-4.69982563155
-4.7809779876
-3.41281932288
-3.46676047193
-3.55680244956
-3.64857843473
-3.7318333953
-3.81066844181
-3.88970722365
-3.97058235249
-4.05301569472
-4.13621830782
-4.21955747865
-4.30270344837
-4.38555625497
-4.46811482914
-4.55040954426
-4.63241029864
-4.71409574284
-4.79469551073
-3.3438841824
-3.42106958681
-3.53624705538
-3.64008878652
-3.7271567497
-3.80789595358
-3.88916664721
-3.97262833094
-4.05759560637
-4.14302217101
-4.22820893557
-4.31286161098
-4.3969485343
-4.48052758628
-4.56364327027
-4.64626001428
-4.72833141003
-4.80909382228
-3.26147323619
-3.37563688088
-3.52089214479
-3.6342332095
-3.72238646736
-3.80358017136
-3.88612621887
-3.97116111433
-4.05748072571
-4.14385713476
-4.22962841889
-4.31462910784
-4.39895647786
-4.48275187173
-4.56608566445
-4.64887799205
-4.73089561384
-4.81099989037
-3.1642825089
-3.33564331227
-3.51302622071
-3.63169854997
-3.71949460706
-3.80194114306
-3.88717755672
-3.97506802529
-4.06366990861
-4.15155574432
-4.23816193618
-4.32351332634
-4.40793496936
-4.49171926197
-4.57504818209
-4.65789136706
-4.73993017106
-4.81969358608
-3.0506873954
-3.3074502316
-3.51136594994
-3.62580602841
-3.70809785009
-3.78931015214
-3.87607857503
-3.96646263561
-4.05749437336
-4.14733821809
-4.23535514859
-4.32168142656
-4.40677348929
-4.49107498464
-4.57490141299
-4.65835353457
-4.74112082527
-4.82112620817
-2.91838955981
-3.30396506157
-3.53294708081
-3.64028990808
-3.71518923866
-3.79272037865
-3.87830044588
-3.96868181831
-4.0601040026
-4.15034596499
-4.23863774663
-4.32510997089
-4.41026511685
-4.49462434109
-4.5786200364
-4.66259144479
-4.74674037257
-4.83008298184
-2.75322988663
-3.2754636897
-3.52738004501
-3.63548365392
-3.7097450512
-3.78741250438
-3.87366428902
-3.96489382668
-4.05711673576
-4.14801371587
-4.23680225098
-4.32363615403
-4.4090509001
-4.49361499877
-4.57782425381
-4.66216617949
-4.74729435811
-4.83759445219
-2.29117881183
-2.29323756753
-2.2969958697
-2.30576785071
-2.32376197482
-2.35428663407
-2.39958324946
-2.46133488804
-2.54075812749
-2.63868132302
-2.7555684185
-2.89160545492
-3.04670681336
-3.22060762938
-3.41285889045
-3.62292217691
-3.85015336501
-4.09389689281
-4.35345509916
-4.6281785325
-4.91742391891
-5.22063983104
-5.53730800805
-5.86702514989
-6.2094318407
-6.56428964951
-6.93139771939
-7.3106673986
-7.702022413
-8.10547299181
-8.52100664193
-8.94866387555
-9.38841251116
-9.84022845042
-10.3039665772
-10.7794462474
-11.2663093439
-11.7641186171
-12.2722072297
-12.7897816888
-13.3157632659
-13.8488976337
-14.3875877494
-14.9299892644
-15.4738217354
-16.016451464
-16.5547324586
-17.0851446923
-17.6036522102
-18.1057607477
-18.586340506
-19.039769078
-19.4599470867
-19.8405545434
-20.1752243982
-20.4578336337
-20.6824941351
-20.8434311957
-20.9346544626
-20.9496650114
-20.8813325886
-20.7222804177
-20.4653150909
-20.1036628111
-19.6312197652
-19.0426054579
-18.3329850383
-17.4983251226
-16.5359376361
-15.4451150319
-14.2278554518
-12.8894581704
-11.4390056163
-9.88950748172
-8.2577839208
-6.56388075789
-4.83028571775
-3.08083731045
-1.33960138869
0.370377052872
2.02797023648
3.61481735137
5.11597772979
6.52033045317
7.82007587232
9.01055542055
10.0907134899
11.0628843413
11.9308503612
12.6990361816
13.3738005396
13.9636308957
14.4769237744
14.9204591923
15.3008911716
15.6252976621
15.9006470342
16.1336821284
16.3292374394
16.4917786297
16.6253756305
16.7338599755
16.8226853127
16.8931641918
16.9452135994
16.9852783875
17.0149479515
17.0299208396
17.0306918009
17.0217193547
17.0061063971
16.9854080782
16.9605488048
16.9323154092
16.9014574034
16.8686975592
16.83468334
16.7999913578
16.7651032325
16.7304276193
16.6962871889
16.6629502893
16.6306308326
16.5995195134
16.5697676325
16.5415098256
16.5148432253
16.4898580623
16.4666168108
16.4451807549
16.4255848035
16.4078623821
16.3920207598
16.3780665491
16.365981769
16.3557486139
16.3473260156
16.3406732452
16.335728988
16.3324295549
16.3306889173
16.3304144423
16.3315011837
16.3338449879
16.3373373767
16.3418703452
16.3473298706
16.3536077593
16.3605965531
16.3681915387
16.3762886924
16.3847945085
16.3936168275
16.4026698748
16.4118673776
16.4211312096
16.4303852255
16.4395629332
16.4486004269
16.457446055
16.4660527513
16.4743858507
16.4824147962
16.4901210473
16.4974978469
16.5045556133
16.5113115054
16.5178161033
16.5241571442
16.5304848911
16.5370387893
16.5442315949
16.5526217667
16.5630597972
16.576686219
16.5949092473
16.6196950988
16.6538418918
16.7027886563
16.7499356231
-2.26339273139
-2.27512848687
-2.28708796441
-2.29791084992
-2.31650739982
-2.34791974985
-2.39460223
-2.45823490181
-2.53994006059
-2.64043618774
-2.76008324281
-2.89896474923
-3.0569092349
-3.23357024273
-3.42843769145
-3.64091615515
-3.87032656433
-4.11598034335
-4.37716994207
-4.65323585548
-4.94354617626
-5.24755701148
-5.5647801006
-5.8948339977
-6.2374010267
-6.59227445412
-6.95930443689
-7.33843661105
-7.72964784063
-8.13298339256
-8.54848350567
-8.97621604848
-9.41619662501
-9.86842288525
-10.3327904485
-10.8091286128
-11.2971152787
-11.7963181215
-12.3061056019
-12.8256865629
-13.3540231537
-13.8898756621
-14.4317096348
-14.9777141039
-15.5256679733
-16.0729261246
-16.6163688921
-17.1524915569
-17.6773153021
-18.186279119
-18.6741442153
-19.1350908682
-19.5628078523
-19.9507647855
-20.2925645747
-20.5822241488
-20.8140839389
-20.9824587242
-21.0812582185
-21.1035762575
-21.0418757488
-20.8888954606
-20.6377810366
-20.2819731777
-19.8158820222
-19.2346201641
-18.533279602
-17.7074638241
-16.7538855359
-15.6710894265
-14.4602579342
-13.1259347568
-11.6765783998
-10.1248206901
-8.48739483786
-6.78458337544
-5.03932486739
-3.27610933287
-1.51976764557
0.20591140333
1.8792538217
3.48131986439
4.99660950723
6.4138091118
7.72539665406
8.92670713238
10.0163355933
10.9967143143
11.8722789255
12.6475725311
13.3283365342
13.9229476946
14.4400047558
14.8860752559
15.2680846513
15.5935856482
15.8701507294
16.1041378243
16.3004916641
16.4649844812
16.601086643
16.7116936911
16.8037018894
16.8784541126
16.9349752133
16.9765730728
17.005362529
17.0203263049
17.0221876345
17.0143327796
16.9996048659
16.9796217212
16.9553849216
16.9277055353
16.8973480706
16.8650293195
16.831403801
16.7970437577
16.7624410069
16.72800347
16.6940643575
16.6608935045
16.6287160723
16.5977231674
16.568076893
16.5399092655
16.513326691
16.4884160578
16.4652478509
16.4438789427
16.4243505716
16.4066908787
16.3909122259
16.377015638
16.3649874373
16.3548044328
16.3464294021
16.3398170613
16.3349095838
16.3316394796
16.3299228897
16.3296652911
16.3307630927
16.3331119989
16.336605036
16.3411336702
16.3465864658
16.3528531023
16.3598243688
16.3673980951
16.3754750833
16.3839618372
16.3927663707
16.4018015614
16.4109815948
16.4202276546
16.4294649428
16.4386269574
16.4476499296
16.4564805714
16.4650713287
16.4733855789
16.4813918733
16.4890721657
16.4964159065
16.5034302305
16.5101384717
16.5165956499
16.522896529
16.5292058265
16.5357814469
16.5430101906
16.5514630751
16.5619371801
16.5754493813
16.5933567599
16.6175605847
16.6507808935
16.6979513594
16.7466925929
-2.23896850242
-2.25446468048
-2.27813843049
-2.30764485551
-2.34541908763
-2.39411756096
-2.45614435079
-2.53336592476
-2.62707848217
-2.73812808629
-2.86696370434
-3.01373436737
-3.1783242933
-3.36043987021
-3.55962777217
-3.77535438344
-4.00701080806
-4.25398476003
-4.5156539093
-4.79144891957
-5.08083529597
-5.38336856756
-5.69866485733
-6.02644630103
-6.36650210705
-6.71872680063
-7.08307098488
-7.45957267171
-7.84829811815
-8.24936909127
-8.66289623937
-9.089003293
-9.52775541461
-9.97918364641
-10.4432113383
-10.9196813714
-11.4082855707
-11.9085977362
-12.4200006509
-12.94171644
-13.472741527
-14.0118841462
-14.5576911343
-15.1084442344
-15.6620124132
-16.2157940854
-16.7667132893
-17.3113172886
-17.8456835108
-18.3651448466
-18.8642450611
-19.3368283647
-19.7761631511
-20.1753807169
-20.5279718288
-20.8279663121
-21.0696195409
-21.2470434582
-21.3538171471
-21.3829579431
-21.3274850686
-21.1806865429
-20.9358564359
-20.5872498083
-20.1300953185
-19.559481176
-18.8702248777
-18.0572556249
-17.1162401141
-16.0444013329
-14.8414988336
-13.510778669
-12.0596967083
-10.5003258268
-8.84941229019
-7.12785721227
-5.35960408304
-3.57035892161
-1.78636824396
-0.0327964218528
1.66774445175
3.29561753877
4.83448194976
6.2725007517
7.60250214929
8.82011920594
9.9234042716
10.9144172326
11.7981728704
12.5794894329
13.2640975738
13.8609022749
14.3793295458
14.8264721701
15.2102354966
15.537850231
15.8170899287
16.0550563655
16.2550841514
16.4242682964
16.5670293127
16.6848161967
16.7803791877
16.8560230365
16.913813683
16.9564045273
16.9855270746
17.0014186728
17.005119307
16.9991160147
16.985868698
16.967062329
16.9438324517
16.9170589385
16.8875345615
16.8559771876
16.8230444546
16.7893066663
16.7552618074
16.721319344
16.6878224664
16.6550451293
16.6232246006
16.59255529
16.563209207
16.5353179463
16.5089964438
16.4843300876
16.4613966029
16.4402493507
16.4209349889
16.4034766675
16.3878911647
16.3741739352
16.3623152128
16.3522863697
16.3440539298
16.3375685469
16.3327751454
16.3296028629
16.3279696772
16.3277794896
16.32893078
16.3313195008
16.3348405684
16.3393857268
16.3448457925
16.3511119221
16.3580790767
16.3656466792
16.3737172187
16.3821957746
16.3909905115
16.4000134397
16.4091801356
16.4184111964
16.4276313159
16.4367721038
16.4457716142
16.4545750852
16.463134194
16.4714094671
16.4793674506
16.4869849732
16.4942481023
16.5011589453
16.5077371396
16.5140302394
16.5201244431
16.5261689562
16.5323929972
16.5391450304
16.5469350649
16.5564711666
16.568667738
16.5846772071
16.6060216807
16.634729593
16.6743886403
16.7179296691
-2.27622852318
-2.29637395163
-2.32735904761
-2.36860842117
-2.42076094636
-2.48475629661
-2.56183535199
-2.65316270168
-2.75967491328
-2.88204819314
-3.02066756745
-3.17567954867
-3.34700238483
-3.53440115119
-3.73749851793
-3.95585104397
-4.1889509396
-4.43629672951
-4.69738388279
-4.97176734163
-5.25904144814
-5.55889245402
-5.87106863298
-6.19542363989
-6.53187587873
-6.88044395367
-7.24119712747
-7.61428284148
-7.99986825589
-8.39816333544
-8.80935522281
-9.23362975866
-9.67110183448
-10.1218388074
-10.5857897239
-11.0628140034
-11.5526180725
-12.0547920146
-12.5687437001
-13.0937336384
-13.628820625
-14.172907033
-14.7246733513
-15.2825645871
-15.8446087174
-16.4083192471
-16.9707077773
-17.5284076205
-18.0775631398
-18.6133688028
-19.1300145584
-19.6208418993
-20.0785317021
-20.4957401689
-20.8657201192
-21.1823267569
-21.4393654193
-21.6304396459
-21.7489934331
-21.7884486615
-21.7424500117
-21.6047206379
-21.3691363822
-21.0311967961
-20.5872859759
-20.032717836
-19.3619061721
-18.5687713122
-17.6474234022
-16.5930755354
-15.4032608057
-14.0791511842
-12.626607716
-11.0567448305
-9.38618709609
-7.63672915454
-5.83390396542
-4.00521437275
-2.17891513565
-0.38242231856
1.35985842519
3.02714397072
4.60185002577
6.07106470502
7.42727825098
8.66631376899
9.78603334729
10.7885363617
11.6796429026
12.4668845169
13.1559763629
13.7561899142
14.2778722099
14.7282554567
15.1181096433
15.4533644227
15.7409432047
15.9886762216
16.1994924747
16.3758829308
16.5222192795
16.6428431273
16.7409570183
16.8190112901
16.8791549207
16.9236268443
16.9541700398
16.9718344477
16.9778983954
16.9743267883
16.9632032514
16.9461975994
16.9245394296
16.8991907622
16.870974914
16.8406256607
16.8087998428
16.7760745161
16.7429484286
16.7098400494
16.6770981898
16.6450090723
16.6138173106
16.5837293794
16.5549205904
16.5275311171
16.5016780832
16.4774538924
16.4549367761
16.4341843688
16.4152420961
16.3981355018
16.3828795281
16.3694710381
16.3578984473
16.3481340963
16.3401433962
16.3338780728
16.329281958
16.3262842306
16.3248028494
16.3247419753
16.3260022159
16.3284806932
16.3320743371
16.3366761716
16.3421797437
16.3484780967
16.3554686186
16.3630507072
16.3711281634
16.3796062558
16.3883949976
16.3974067204
16.4065589332
16.4157722194
16.4249732315
16.434093287
16.4430709456
16.4518493805
16.4603788432
16.468615883
16.4765254873
16.4840804657
16.4912648146
16.4980746477
16.5045242378
16.5106521134
16.5165340443
16.5222984861
16.5281463865
16.534377334
16.5414187595
16.5498440569
16.5603810736
16.5739177045
16.5915240283
16.6144477718
16.6446135408
16.6771221954
-2.3940348409
-2.41492318873
-2.44872225976
-2.49590879981
-2.55643242873
-2.63050984041
-2.71854945195
-2.8209810498
-2.93817108406
-3.07038377742
-3.21772859548
-3.38018508056
-3.55758724379
-3.74967892474
-3.95610825226
-4.1764930521
-4.41041278045
-4.65747311847
-4.91729091155
-5.18955243415
-5.47398941424
-5.77042967098
-6.07876364579
-6.39898529835
-6.73115081687
-7.07541021526
-7.43195694427
-7.80105280333
-8.18296917214
-8.57800689727
-8.98643144477
-9.40849246593
-9.84435630204
-10.2941288816
-10.7577892239
-11.2352210353
-11.7261562323
-12.2302184944
-12.7468652538
-13.2754282282
-13.8150683573
-14.3648307066
-14.9235880547
-15.4900211079
-16.0623979475
-16.6384249523
-17.2152462081
-17.7895961026
-18.3576720397
-18.9144817536
-19.4537211699
-19.9680027171
-20.4491858424
-20.8892891993
-21.2810887879
-21.6178302058
-21.8924894448
-22.0983246105
-22.2290597048
-22.2787370124
-22.2416542652
-22.1121679729
-21.8853365795
-21.5586411033
-21.1302251446
-20.5958491838
-19.9495474655
-19.1840312507
-18.2914211499
-17.2642072346
-16.0966296792
-14.7865727726
-13.3372607034
-11.758090563
-10.0650741554
-8.28094123032
-6.43362213543
-4.5534593215
-2.67164391668
-0.819169147217
0.976601850645
2.69281930461
4.30977927745
5.8135958745
7.19649102502
8.45548202205
9.59124686043
10.6056601521
11.5042090965
12.2974207777
12.9928284468
13.602380177
14.1365728679
14.5995505327
15.0021792795
15.3519913309
15.6521830347
15.9077182159
16.1242900082
16.3062327735
16.4577693474
16.5828974254
16.684918295
16.7664573585
16.8297728031
16.8770270353
16.9100587154
16.9303232888
16.9392582595
16.9385991484
16.9301631169
16.9155561006
16.8960475717
16.8726675384
16.8462703493
16.8176137088
16.7873557148
16.7560838507
16.7242952292
16.6924209672
16.6608117038
16.6297713199
16.599547974
16.5703643226
16.5423952464
16.5157947262
16.490678224
16.4671503029
16.4452852787
16.425150386
16.4067852833
16.3902235804
16.3754738311
16.3625400924
16.3514045455
16.3420460456
16.3344252527
16.3284989698
16.3242071892
16.3214823144
16.3202401274
16.3203886026
16.3218285505
16.3244609951
16.3281832053
16.3328923336
16.3384830683
16.3448529348
16.3519002761
16.3595281732
16.3676409856
16.3761474685
16.3849577403
16.3939867521
16.4031514162
16.4123741532
16.4215802832
16.430701663
16.4396740286
16.4484399966
16.4569465488
16.4651485316
16.473006381
16.480489774
16.4875763593
16.4942570959
16.5005366151
16.5064427731
16.5120340592
16.5174157764
16.522751963
16.5282863829
16.534355956
16.5413979808
16.5499395116
16.5605775382
16.573910731
16.5904313244
16.610443856
16.6288716238
-2.57275036892
-2.59291248826
-2.62766548075
-2.67775321734
-2.74274218452
-2.82257612173
-2.91721893188
-3.02663886534
-3.15077542521
-3.28953179952
-3.44273689746
-3.61017065031
-3.79154008521
-3.98652482311
-4.19475970612
-4.41589051816
-4.64955611445
-4.89544609436
-5.15327815963
-5.4228524803
-5.70402288659
-5.99674337446
-6.30103276664
-6.61701284442
-6.94486451546
-7.2848574437
-7.63729904955
-8.0025559916
-8.38099595016
-8.7730045447
-9.17892172701
-9.59905927412
-10.0336359504
-10.4828010697
-10.9465723692
-11.4248708494
-11.9174726177
-12.4240594712
-12.9441700588
-13.4772460059
-14.0225931202
-14.5794444818
-15.1469169563
-15.7239926472
-16.3092645927
-16.9007178845
-17.4956716248
-18.0909368208
-18.6827105231
-19.2657755767
-19.8331999091
-20.3767006242
-20.8871532535
-21.3556935027
-21.7741539777
-22.1344776594
-22.4283628991
-22.6488810233
-22.790300401
-22.8472529635
-22.8147565866
-22.6883929611
-22.4657994029
-22.1475807945
-21.7341585242
-21.2221317165
-20.6054078922
-19.8753664669
-19.0216600781
-18.0331684808
-16.8994257846
-15.6131785317
-14.1733712229
-12.5867513137
-10.8683821042
-9.04227331998
-7.14018041766
-5.19715032598
-3.24907926166
-1.33263357136
0.521209343829
2.28783381867
3.94748159572
5.48599237142
6.8950929961
8.17187775775
9.32172936744
10.3505212211
11.2640364603
12.0757549908
12.7894576791
13.4158555738
13.9683243262
14.4509625099
14.8688241392
15.2291215301
15.538455492
15.8025181613
16.026676193
16.2155300896
16.3733118287
16.5039309024
16.6107701996
16.6966347686
16.7639358419
16.8148588676
16.8513326602
16.8750123764
16.8874616725
16.8903175523
16.885240702
16.8737448457
16.8571070998
16.8363832282
16.8124627419
16.7861146188
16.758011672
16.7287418762
16.6988124355
16.6686574129
16.6386418055
16.6090766961
16.5802268801
16.5523197186
16.5255428762
16.5000536424
16.4759787009
16.4534244164
16.4324734405
16.4131927909
16.3956281586
16.3798120553
16.3657578037
16.3534682062
16.3429294399
16.3341195656
16.32700293
16.3215355244
16.3176595227
16.3153071911
16.3143961763
16.3148367849
16.3165329748
16.3193883098
16.3233029715
16.3281771341
16.3339089397
16.3403991509
16.3475490583
16.3552641546
16.3634508203
16.3720195576
16.3808817606
16.3899534772
16.3991522651
16.4084011616
16.4176255039
16.4267570378
16.4357305404
16.4444876997
16.4529735193
16.4611405555
16.4689454749
16.4763536096
16.4833361386
16.489876741
16.4959703969
16.5016318247
16.5068995058
16.5118505181
16.5166067599
16.5213493586
16.52632001
16.5318176382
16.538167091
16.5456716049
16.5544925835
16.5644120819
16.5744079751
16.5787521938
-2.78479251832
-2.80401775823
-2.83906250959
-2.89033015194
-2.9572971727
-3.03987158929
-3.13780555515
-3.25082581801
-3.37861974135
-3.52085499437
-3.67715885183
-3.84715226147
-4.03042818834
-4.22659587267
-4.43525871267
-4.65606509749
-4.88868411565
-5.13285809267
-5.38837492577
-5.65511769507
-5.9330320291
-6.22217036874
-6.52265315252
-6.83470447661
-7.15860782015
-7.49473244518
-7.84348191596
-8.20531345012
-8.58067976387
-8.97004356362
-9.37381497097
-9.79236734711
-10.2259752536
-10.6748379061
-11.1390226168
-11.6185023919
-12.1131144914
-12.6226183028
-13.1466568692
-13.6848072807
-14.2365443988
-14.8013076445
-15.3784734644
-15.9673540349
-16.5669404441
-17.1756102323
-17.7909225298
-18.4097451348
-19.0282401055
-19.6411019897
-20.2408355645
-20.8183127778
-21.3633112936
-21.865582356
-22.3150783583
-22.7012765493
-23.0141558795
-23.2465500955
-23.393463815
-23.4501586572
-23.4125492937
-23.2785006071
-23.0517855068
-22.7377454593
-22.3377351058
-21.8498788261
-21.2683312299
-20.5828845859
-19.7798593571
-18.8434222049
-17.7569571209
-16.5061512773
-15.0839958995
-13.4937348022
-11.7497946506
-9.8787840534
-7.91859311507
-5.91083563869
-3.89689298753
-1.916778686
-0.00571421549378
1.80793553283
3.50394502607
5.07258083465
6.50966059177
7.8112172987
8.9872173841
10.0439217495
10.982554488
11.8173882368
12.55800516
13.2097952972
13.7797788418
14.2766156475
14.7075155134
15.0795973416
15.399425267
15.6729509047
15.9055954142
16.102174019
16.2670179522
16.4040440043
16.5166956277
16.607903872
16.6802073027
16.7358453284
16.7768209195
16.8048955409
16.8217136798
16.8288684163
16.8279281499
16.8203254778
16.8073244359
16.7899866198
16.7692290884
16.7458320737
16.7204862721
16.6937825353
16.6662426794
16.6383040139
16.6103507943
16.5827005915
16.5556378124
16.5293927972
16.5041699875
16.4801282952
16.4574097151
16.436120228
16.4163551419
16.3981789197
16.3816479435
16.366791169
16.3536314281
16.3421678034
16.3323949939
16.3242883687
16.317819029
16.3129408098
16.3096006013
16.3077293799
16.3072497164
16.3080731588
16.3101091241
16.3132625863
16.317438937
16.3225403049
16.3284703664
16.33513183
16.3424308911
16.3502741533
16.3585720171
16.3672354327
16.3761791929
16.3853192312
16.3945758781
16.4038714576
16.4131332922
16.4222915116
16.4312816846
16.4400426531
16.4485187631
16.4566580633
16.4644144993
16.4717466203
16.4786202638
16.4850085805
16.4908963192
16.4962819294
16.5011829685
16.5056431646
16.5097400931
16.513587653
16.5173329967
16.5211372929
16.5251331145
16.5293465474
16.5335434609
16.5369144661
16.5375070082
16.5291636321
-3.0034991206
-3.02183899563
-3.05680955544
-3.10824600153
-3.17574741607
-3.25926181757
-3.35843842478
-3.47288822935
-3.60216347728
-3.74579561137
-3.90328676968
-4.07415256621
-4.25790454242
-4.45409660378
-4.66230186971
-4.8821618523
-5.11335891569
-5.35566600575
-5.6089151041
-5.87304480391
-6.14806483629
-6.43409712437
-6.73133623418
-7.04008293909
-7.36069854734
-7.69362992882
-8.03935815634
-8.39841521243
-8.77132684267
-9.15862461361
-9.5607848082
-9.97824193743
-10.4113292498
-10.8603022407
-11.3252866358
-11.8063173623
-12.3033028236
-12.8160871012
-13.3444232564
-13.8880303023
-14.4465576531
-15.0196482597
-15.6069239665
-16.20801907
-16.8223840271
-17.4489569878
-18.085730149
-18.7297495393
-19.3772301049
-20.0230649742
-20.6593303324
-21.2759517202
-21.8610044858
-22.4014994109
-22.8836835053
-23.2932579601
-23.6189482737
-23.8538584024
-23.9935885221
-24.0346325042
-23.9760200239
-23.8218806245
-23.5831818814
-23.269252228
-22.8817688384
-22.4198702072
-21.8778666261
-21.2434799324
-20.4989438856
-19.6232812006
-18.5932635893
-17.3870216165
-15.9918894143
-14.4074092327
-12.6470848315
-10.7395853858
-8.72770592291
-6.66279511539
-4.59434634341
-2.56528248844
-0.608705416834
1.24882851276
2.98485905971
4.59246455613
6.0703493137
7.40784054131
8.61416739896
9.7032204757
10.6774956169
11.5416599317
12.3045019428
12.9752634316
13.5623863335
14.0742947731
14.5187582507
14.9030807879
15.2340110613
15.5176825285
15.7596436451
15.9648434697
16.1377020104
16.2821726328
16.4017370143
16.4994171349
16.577832239
16.6392908649
16.6858430278
16.7193251078
16.7414180051
16.7537087195
16.7577006366
16.7547803456
16.7461808532
16.7329727411
16.7160807977
16.6963064063
16.6743474943
16.650810313
16.6262222644
16.6010372351
16.575647958
16.5503913285
16.525559146
16.5013974746
16.4781165671
16.4558895381
16.4348632785
16.4151554997
16.3968645214
16.3800639978
16.3648121377
16.3511454767
16.3390882534
16.3286460609
16.3198151446
16.3125766512
16.3069028562
16.3027515785
16.300071096
16.2987955654
16.2988507924
16.3001528866
16.30261521
16.3061469625
16.3106575128
16.3160534232
16.3222425981
16.3291318259
16.3366308988
16.3446495232
16.3531008919
16.361898235
16.3709585437
16.3801992893
16.3895423699
16.3989108136
16.4082327123
16.4174378108
16.4264613117
16.4352402651
16.4437172107
16.4518365875
16.4595484917
16.4668053228
16.4735660176
16.4797935055
16.485460087
16.4905467561
16.4950482675
16.4989735739
16.5023529628
16.5052325177
16.5076656081
16.5096817623
16.5112340493
16.5120996622
16.5117078508
16.5087889053
16.500803438
16.4815029099
-3.20484893331
-3.22253369982
-3.25734958606
-3.30856074443
-3.37600523416
-3.45965452287
-3.55909523143
-3.67388751286
-3.8035152759
-3.94743832003
-4.10509012757
-4.27592619034
-4.45941009309
-4.65506198678
-4.86243550285
-5.08116664583
-5.31094453731
-5.551559657
-5.80287081114
-6.06485097877
-6.33755047654
-6.62113678472
-6.91585346063
-7.22205288114
-7.5401509978
-7.87065097166
-8.21409192767
-8.57106501758
-8.94215644318