/*--------------------------------*- C++ -*----------------------------------*\
| =========                 |                                                 |
| \\      /  F ield         | OpenFOAM: The Open Source CFD Toolbox           |
|  \\    /   O peration     | Version:  v1806                                 |
|   \\  /    A nd           | Web:      www.OpenFOAM.com                      |
|    \\/     M anipulation  |                                                 |
\*---------------------------------------------------------------------------*/
FoamFile
{
    version     2.0;
    format      ascii;
    class       surfaceScalarField;
    location    "7";
    object      phi;
}
// * * * * * * * * * * * * * * * * * * * * * * * * * * * * * * * * * * * * * //

dimensions      [0 3 -1 0 0 0 0];
oriented        oriented;


internalField   nonuniform List<scalar> 
24170
(
3.0734600382e-06
1.14942346653e-07
2.98691844712e-06
8.65379889595e-08
2.90703451077e-06
7.9880713039e-08
2.83051720736e-06
7.65154535236e-08
2.75740014585e-06
7.3114699994e-08
2.68770447007e-06
6.96943801758e-08
2.62130647212e-06
6.63960154729e-08
2.5580282042e-06
6.32771641568e-08
2.4976711944e-06
6.03555123795e-08
2.44003123551e-06
5.76390554029e-08
2.38489565052e-06
5.5134361632e-08
2.33204185388e-06
5.28529406963e-08
2.28122842261e-06
5.08124385489e-08
2.23218348094e-06
4.90441433978e-08
2.18457374578e-06
4.76088329308e-08
2.13791704173e-06
4.66558396653e-08
2.09112365051e-06
4.67925185581e-08
4.86553395658e-08
2.0424678551e-06
3.43168417836e-06
1.00502276032e-07
3.42698648584e-06
9.12311765536e-08
3.42034044115e-06
8.65228661136e-08
3.41100106206e-06
8.58521840509e-08
3.3993496569e-06
8.4763298901e-08
3.38594849963e-06
8.30936206021e-08
3.37118884202e-06
8.1153397776e-08
3.35534004457e-06
7.91243576329e-08
3.33859251758e-06
7.71012903438e-08
3.3210831315e-06
7.51471054819e-08
3.30290200915e-06
7.3314025765e-08
3.28409649485e-06
7.16572325648e-08
3.26466641785e-06
7.02412738956e-08
3.24455459786e-06
6.91548338373e-08
3.22362115305e-06
6.8541124187e-08
3.20160208501e-06
6.86737835841e-08
3.17826657558e-06
7.0126897028e-08
7.29583662447e-08
3.15396289867e-06
3.68020839319e-06
8.28080258189e-08
3.68489077348e-06
8.65462500155e-08
3.68792937978e-06
8.34819724215e-08
3.69001944301e-06
8.37608131923e-08
3.69099158156e-06
8.3789610601e-08
3.69099020442e-06
8.30941210491e-08
3.6901419716e-06
8.20003903184e-08
3.6885195012e-06
8.07461053424e-08
3.68615982148e-06
7.94600819289e-08
3.68308022612e-06
7.82261383011e-08
3.6792806428e-06
7.71129189475e-08
3.67474468174e-06
7.61926920336e-08
3.66943450215e-06
7.55509301099e-08
3.66328536916e-06
7.53035383434e-08
3.65620028532e-06
7.56257732854e-08
3.64807353355e-06
7.68001482238e-08
3.63891714057e-06
7.92830592303e-08
8.28876400743e-08
3.62898810328e-06
3.93990067167e-06
6.82909880802e-08
3.94622351547e-06
8.02192982768e-08
3.95020241075e-06
7.94995095028e-08
3.95355275249e-06
8.04078862983e-08
3.95619541397e-06
8.1144476084e-08
3.95819476024e-06
8.10929005968e-08
3.95964786125e-06
8.05453491259e-08
3.96061052126e-06
7.97819225546e-08
3.96110154127e-06
7.89675804085e-08
3.96111785275e-06
7.82085812139e-08
3.96064012533e-06
7.75894316581e-08
3.95963665373e-06
7.71950979195e-08
3.95806281067e-06
7.71237569371e-08
3.95586229829e-06
7.75031315803e-08
3.95297449199e-06
7.85127232055e-08
3.94936583941e-06
8.04080742216e-08
3.945112931e-06
8.35354150755e-08
8.78466770989e-08
3.9401536012e-06
4.21874249954e-06
5.66735217533e-08
4.22555691217e-06
7.34029387913e-08
4.22972820772e-06
7.53264377977e-08
4.23319896037e-06
7.69361145876e-08
4.23607290782e-06
7.82693859784e-08
4.23837497589e-06
7.87901555471e-08
4.24018200133e-06
7.8737434994e-08
4.24154959993e-06
7.8413779066e-08
4.24250087891e-06
7.80156688759e-08
4.24303709439e-06
7.76719414728e-08
4.24314405417e-06
7.74819870014e-08
4.24279731978e-06
7.75414785577e-08
4.24196468765e-06
7.79560406889e-08
4.24061149571e-06
7.88560531203e-08
4.23871309128e-06
8.04109000603e-08
4.23628300821e-06
8.28380235469e-08
4.23342242584e-06
8.63960772698e-08
9.11585923227e-08
4.23011097508e-06
4.51835318756e-06
4.74032807046e-08
4.52520143633e-06
6.65509590597e-08
4.52955212963e-06
7.09726461244e-08
4.53309183311e-06
7.33939307344e-08
4.53608179396e-06
7.52773033066e-08
4.53853220432e-06
7.63379455023e-08
4.54049283187e-06
7.67752106466e-08
4.54201142922e-06
7.68937798167e-08
4.54311255119e-06
7.69133515375e-08
4.54380171921e-06
7.69816678583e-08
4.54407146429e-06
7.72113304095e-08
4.54390675864e-06
7.77053214332e-08
4.54328982015e-06
7.85722381518e-08
4.54220764189e-06
7.99375609536e-08
4.54066642722e-06
8.19515913677e-08
4.53871624407e-06
8.47878957605e-08
4.53648689845e-06
8.86253369742e-08
9.35271354194e-08
4.53411836926e-06
4.84011433351e-06
4.00074852607e-08
4.84670695713e-06
5.99568963641e-08
4.85120418723e-06
6.64741422473e-08
4.85482160342e-06
6.97755773673e-08
4.85790951728e-06
7.21885917595e-08
4.86048760047e-06
7.37592070691e-08
4.86258353313e-06
7.46786913913e-08
4.86423488741e-06
7.52419213045e-08
4.86546603661e-06
7.56817905879e-08
4.86628660592e-06
7.61607233406e-08
4.86669607688e-06
7.68015631374e-08
4.86668946782e-06
7.77116663486e-08
4.86626352251e-06
7.89979742542e-08
4.8654255817e-06
8.07753373408e-08
4.86420777764e-06
8.31693573799e-08
4.86268688903e-06
8.63088423441e-08
4.86100635073e-06
9.03061602072e-08
9.51842578961e-08
4.85934970492e-06
5.18550259687e-06
3.40823812871e-08
5.1916631378e-06
5.37933581318e-08
5.19623961227e-06
6.18949481539e-08
5.1999398336e-06
6.60731357538e-08
5.20312361179e-06
6.90028370024e-08
5.20582955077e-06
7.10516623483e-08
5.20807062363e-06
7.24361421058e-08
5.20987341853e-06
7.3437953075e-08
5.2112603716e-06
7.42937420744e-08
5.21224463392e-06
7.51756341358e-08
5.2128326783e-06
7.62127893694e-08
5.21303000028e-06
7.75137657209e-08
5.21284779924e-06
7.91796267835e-08
5.21231217058e-06
8.13105857992e-08
5.21147649515e-06
8.40047355931e-08
5.21043632382e-06
8.7349047529e-08
5.20934217547e-06
9.14004770387e-08
9.61348675635e-08
5.20839152096e-06
5.5561116836e-06
2.93074680755e-08
5.56175254413e-06
4.81514887384e-08
5.56633048173e-06
5.73160194391e-08
5.57010906196e-06
6.22937093682e-08
5.57339120767e-06
6.57199358668e-08
5.5762294341e-06
6.82127973647e-08
5.57862836999e-06
7.00366424568e-08
5.5806041821e-06
7.14616641404e-08
5.5821763627e-06
7.27211663373e-08
5.58336098255e-06
7.39907035185e-08
5.5841717164e-06
7.54018545519e-08
5.58462468805e-06
7.70605721371e-08
5.58474516662e-06
7.90590196944e-08
5.58457563737e-06
8.14799868815e-08
5.584185928e-06
8.43945144096e-08
5.58368232506e-06
8.78527889355e-08
5.58321262375e-06
9.18701775161e-08
9.63915569382e-08
5.5829562722e-06
5.95366419787e-06
2.54164301013e-08
5.95876401073e-06
4.30489847716e-08
5.96327257322e-06
5.28049861935e-08
5.96711662009e-06
5.84473746218e-08
5.97050136223e-06
6.23332456203e-08
5.97348007061e-06
6.52323068869e-08
5.97605274433e-06
6.74625159556e-08
5.97822688974e-06
6.92861827021e-08
5.98001867268e-06
7.09283777188e-08
5.98144657906e-06
7.25619657259e-08
5.98253111192e-06
7.43166682004e-08
5.98329856518e-06
7.62925626236e-08
5.9837867279e-06
7.85705329674e-08
5.98405133449e-06
8.12151167695e-08
5.98417323539e-06
8.42725162377e-08
5.98426284814e-06
8.77632703697e-08
5.98446010193e-06
9.1673071245e-08
9.5927657164e-08
5.98492342281e-06
6.38002001748e-06
2.22080678614e-08
6.38460268948e-06
3.84654676299e-08
6.38898933951e-06
4.8417210007e-08
6.3928829643e-06
5.45526971693e-08
6.39637636523e-06
5.88387269199e-08
6.39950859699e-06
6.20991545407e-08
6.4022754566e-06
6.46947119728e-08
6.40467787266e-06
6.68830628014e-08
6.40672856476e-06
6.88769973909e-08
6.40844790914e-06
7.08422075056e-08
6.40986228246e-06
7.29018653817e-08
6.41100696835e-06
7.51477503244e-08
6.4119298525e-06
7.76474117615e-08
6.41269621423e-06
8.04487605221e-08
6.41339283786e-06
8.35759670917e-08
6.41412863895e-06
8.70276424119e-08
6.41503100544e-06
9.07704188739e-08
9.47249530986e-08
6.41623354407e-06
5.74314626819e-06
1.98939806964e-08
5.74665754686e-06
3.49524706962e-08
5.75024601454e-06
4.48270634448e-08
5.75356361899e-06
5.12336125835e-08
5.75660592586e-06
5.57950597965e-08
5.75938522004e-06
5.931873065e-08
5.76189342186e-06
6.21855246959e-08
5.76412710406e-06
6.46485936868e-08
5.76609455513e-06
6.69090916717e-08
5.76781355631e-06
6.91228500418e-08
5.76930996575e-06
7.14053380921e-08
5.77061865328e-06
7.38386605883e-08
5.77178606539e-06
7.6480807304e-08
5.77287109488e-06
7.9363789292e-08
5.77394854605e-06
8.24993809039e-08
5.77510609396e-06
8.58704833895e-08
5.77644195427e-06
8.94352837267e-08
9.3110651647e-08
5.77805578222e-06
7.00044585012e-06
1.7603487053e-08
7.00410195293e-06
3.12955805151e-08
7.00806406584e-06
4.08640538327e-08
7.01188268137e-06
4.74139513496e-08
7.01547319329e-06
5.22036497427e-08
7.01881986119e-06
5.59711210331e-08
7.02190538367e-06
5.90992491292e-08
7.02472132916e-06
6.18320636068e-08
7.0272745805e-06
6.43553739012e-08
7.02958593883e-06
6.6811211098e-08
7.03168765924e-06
6.93029086637e-08
7.03362484339e-06
7.19020147805e-08
7.03545349391e-06
7.46520078323e-08
7.03724475524e-06
7.75739091005e-08
7.03908101509e-06
8.06636128931e-08
7.04105719225e-06
8.38959590124e-08
7.04327113975e-06
8.72211965818e-08
9.05629057939e-08
7.04581977135e-06
8.53310390085e-06
1.5345732468e-08
8.53687479714e-06
2.75240996071e-08
8.54120468615e-06
3.6533533644e-08
8.54557448496e-06
4.3044005484e-08
8.54981201467e-06
4.79654561285e-08
8.55385994933e-06
5.19230818266e-08
8.55768475784e-06
5.52739277506e-08
8.561270598e-06
5.82462113649e-08
8.56462134272e-06
6.10044199114e-08
8.56775945871e-06
6.36729491843e-08
8.57072331369e-06
6.63384727216e-08
8.57356575334e-06
6.90595057332e-08
8.57635282201e-06
7.18655233741e-08
8.57916228608e-06
7.47651876583e-08
8.58208301199e-06
7.77443242536e-08
8.58520872131e-06
8.07710468872e-08
8.58863550584e-06
8.3796030956e-08
8.67493501218e-08
8.59244879207e-06
1.04014599308e-05
1.31046327399e-08
1.0405354425e-05
2.36292219791e-08
1.04100729393e-05
3.1815025417e-08
1.04150656017e-05
3.80508210344e-08
1.04200811182e-05
4.29504133605e-08
1.04250090851e-05
4.69946497227e-08
1.04297929966e-05
5.04907132183e-08
1.04344040658e-05
5.36349451176e-08
1.04388417748e-05
5.65676782567e-08
1.04431260158e-05
5.93874000052e-08
1.0447300235e-05
6.21648726735e-08
1.04514196705e-05
6.49387831134e-08
1.04555573159e-05
6.77292276311e-08
1.04597912011e-05
7.05310195543e-08
1.04642107587e-05
7.33266600764e-08
1.04689023542e-05
7.60798879561e-08
1.04739520753e-05
7.87477032634e-08
8.12701102507e-08
1.0479432126e-05
1.2679076326e-05
1.08179900719e-08
1.26831743144e-05
1.95309444555e-08
1.26883738779e-05
2.66150873115e-08
1.26941277586e-05
3.22971705295e-08
1.2700120584e-05
3.6957202609e-08
1.27061881507e-05
4.09277000325e-08
1.2712239779e-05
4.44388592613e-08
1.27182313207e-05
4.76445697439e-08
1.27241487401e-05
5.06493652145e-08
1.27300105613e-05
5.35266120712e-08
1.27358518047e-05
5.63214940598e-08
1.27417322656e-05
5.90596590712e-08
1.27477148842e-05
6.17448781993e-08
1.27538794315e-05
6.43685163732e-08
1.27602982976e-05
6.6906619469e-08
1.2767051671e-05
6.93290834813e-08
1.27742011225e-05
7.15971093824e-08
7.36675381793e-08
1.27818062997e-05
1.54556375567e-05
8.36017611916e-09
1.5460133984e-05
1.50342972068e-08
1.54660436285e-05
2.07049501891e-08
1.54728293309e-05
2.55109982505e-08
1.54801287241e-05
2.96573991435e-08
1.54877233996e-05
3.33327196139e-08
1.54954854162e-05
3.66767472395e-08
1.55033444904e-05
3.97854246292e-08
1.55112713774e-05
4.27225247126e-08
1.55192681418e-05
4.5529025747e-08
1.5527362263e-05
4.82271774367e-08
1.55355967879e-05
5.08242964779e-08
1.55440270682e-05
5.33148657682e-08
1.55527109937e-05
5.56840984272e-08
1.55617085481e-05
5.79099097824e-08
1.55710710834e-05
5.99663215037e-08
1.55808443279e-05
6.18253138371e-08
6.34564673272e-08
1.55910545025e-05
1.88404916888e-05
5.5052802901e-09
1.88457688188e-05
9.75632825318e-09
1.88528510883e-05
1.36214998747e-08
1.88611786171e-05
1.71822758172e-08
1.88703384236e-05
2.04964754147e-08
1.88800583359e-05
2.36116452638e-08
1.88901683738e-05
2.6566007977e-08
1.89005652818e-05
2.93874220622e-08
1.89111952439e-05
3.20922483793e-08
1.89220362274e-05
3.46866446635e-08
1.89330954914e-05
3.71679268852e-08
1.8944391736e-05
3.95265842237e-08
1.89559594175e-05
4.17477843762e-08
1.89678289155e-05
4.38133558229e-08
1.89800371837e-05
4.57031338124e-08
1.89926056879e-05
4.73968123796e-08
1.9005558639e-05
4.8875200265e-08
5.01193824212e-08
1.90188945859e-05
2.29670328256e-05
1.808432701e-09
2.29738363757e-05
2.95070155279e-09
2.29829835841e-05
4.47242118368e-09
2.29937886528e-05
6.37491821726e-09
2.30057521427e-05
8.53115784489e-09
2.30185400459e-05
1.08215789801e-08
2.30319377422e-05
1.31669091904e-08
2.30458017053e-05
1.55212999711e-08
2.30600457876e-05
1.78474219664e-08
2.30746139707e-05
2.01162073552e-08
2.30894847612e-05
2.22971002591e-08
2.31046429996e-05
2.43658427907e-08
2.31200945009e-05
2.62970287348e-08
2.31358340634e-05
2.80714323782e-08
2.31518698607e-05
2.96691020987e-08
2.31681878915e-05
3.10763699265e-08
2.3184786458e-05
3.22799633045e-08
3.3271445482e-08
2.3201631369e-05
1.68139218751e-05
-1.41019431559e-09
1.68197059577e-05
-2.83617863621e-09
1.6827297782e-05
-3.1208792569e-09
1.68360825478e-05
-2.41383720796e-09
1.68456827798e-05
-1.06942862274e-09
1.68558637853e-05
6.35461152338e-10
1.68664847759e-05
2.54693320419e-09
1.68774335536e-05
4.56700490733e-09
1.68886513473e-05
6.63207901143e-09
1.69000798615e-05
8.68212201997e-09
1.69117030762e-05
1.06771719935e-08
1.69234870332e-05
1.25762574262e-08
1.69354328963e-05
1.43555210746e-08
1.69475111554e-05
1.59877692686e-08
1.69597252016e-05
1.74601783004e-08
1.69720413335e-05
1.8755585569e-08
1.69844580778e-05
1.9869582507e-08
2.07927057561e-08
1.69969336314e-05
1.4638002427e-05
-4.84560926898e-09
1.46440221964e-05
-8.85786756793e-09
1.46516183891e-05
-1.07195981826e-08
1.46601262532e-05
-1.09235803556e-08
1.46692267787e-05
-1.01739531001e-08
1.46787601214e-05
-8.89902862956e-09
1.4688611952e-05
-7.30996654916e-09
1.46987072769e-05
-5.52775743175e-09
1.47089831503e-05
-3.64856127486e-09
1.47194100439e-05
-1.74352979465e-09
1.47299547795e-05
1.2792143402e-10
1.47406072843e-05
1.92588748222e-09
1.47513413081e-05
3.61710814278e-09
1.47621516432e-05
5.18045236312e-09
1.47730109869e-05
6.59715296232e-09
1.47839139614e-05
7.85692969747e-09
1.47948303638e-05
8.95047207173e-09
9.87526545959e-09
1.4805753692e-05
1.27439983131e-05
-8.71329102046e-09
1.27504728756e-05
-1.53338224789e-08
1.27581593373e-05
-1.84080297868e-08
1.27663910789e-05
-1.91575272231e-08
1.27749781207e-05
-1.87632067687e-08
1.27838390276e-05
-1.77631336748e-08
1.279290305e-05
-1.63756494289e-08
1.28021118088e-05
-1.47395017354e-08
1.28114285194e-05
-1.29667790492e-08
1.28208279277e-05
-1.11451271013e-08
1.283029209e-05
-9.33810518134e-09
1.28398055564e-05
-7.58898002884e-09
1.2849351554e-05
-5.93102934174e-09
1.28589162009e-05
-4.38455077593e-09
1.28684809833e-05
-2.96883499837e-09
1.28780308772e-05
-1.69218077867e-09
1.28875468553e-05
-5.64694693454e-10
4.13177361403e-10
1.28970090012e-05
1.10955082286e-05
-1.32932720408e-08
1.11026176556e-05
-2.24443397498e-08
1.11103727372e-05
-2.61641337594e-08
1.111826422e-05
-2.70505010154e-08
1.11262994356e-05
-2.68001769293e-08
1.1134471713e-05
-2.59375643859e-08
1.11427390006e-05
-2.46447856523e-08
1.11510680326e-05
-2.30702406374e-08
1.11594421305e-05
-2.13421789495e-08
1.11678500702e-05
-1.95554512847e-08
1.11762847331e-05
-1.7773329904e-08
1.11847316287e-05
-1.60397988321e-08
1.11931828603e-05
-1.43819049494e-08
1.12016169684e-05
-1.28233525398e-08
1.12100269004e-05
-1.13762249431e-08
1.12183887449e-05
-1.00572561524e-08
1.12267025108e-05
-8.87474706373e-09
-7.84355878649e-09
1.12349567087e-05
9.66089499409e-06
-1.89744830578e-08
9.66874548701e-06
-3.02955586539e-08
9.67644293718e-06
-3.38625053208e-08
9.68390367734e-06
-3.45123578017e-08
9.69135526422e-06
-3.42530756823e-08
9.69883011327e-06
-3.34135021735e-08
9.7063050704e-06
-3.21209303252e-08
9.71377171122e-06
-3.05379723176e-08
9.72123253988e-06
-2.88040016744e-08
9.72868973078e-06
-2.70136158837e-08
9.73614129486e-06
-2.52265347685e-08
9.74358099528e-06
-2.34808177504e-08
9.75099738206e-06
-2.18013549297e-08
9.75837829247e-06
-2.02046944541e-08
9.76570521859e-06
-1.87049033463e-08
9.7729607886e-06
-1.73125236031e-08
9.78012400721e-06
-1.60379650469e-08
-1.48915511849e-08
9.78717193481e-06
8.41266119085e-06
-2.62837552814e-08
8.42120487823e-06
-3.8839812105e-08
8.42863385481e-06
-4.1292064332e-08
8.4355892857e-06
-4.14689199266e-08
8.44244846553e-06
-4.11130263379e-08
8.44924075711e-06
-4.02068051071e-08
8.45596510929e-06
-3.88460128268e-08
8.46263917122e-06
-3.72125772491e-08
8.46928073947e-06
-3.54459876949e-08
8.47589891559e-06
-3.36322432329e-08
8.48249450698e-06
-3.18232389402e-08
8.48906270973e-06
-3.00503954456e-08
8.49559322234e-06
-2.83333982676e-08
8.50207250994e-06
-2.66851664008e-08
8.5084830367e-06
-2.51160980963e-08
8.51480785897e-06
-2.36369207682e-08
8.52103480898e-06
-2.22674293497e-08
-2.1043234519e-08
8.52718737707e-06
7.32689428591e-06
-3.58942611576e-08
7.33583746279e-06
-4.77834957235e-08
7.342769681e-06
-4.82251292393e-08
7.34917604803e-06
-4.78759898961e-08
7.35540946309e-06
-4.73473810718e-08
7.36148204634e-06
-4.62798287599e-08
7.36743125449e-06
-4.47956949078e-08
7.37330484552e-06
-4.30864280797e-08
7.37913492244e-06
-4.12761775571e-08
7.38493641259e-06
-3.94344916006e-08
7.39071336404e-06
-3.76006605654e-08
7.39646263215e-06
-3.58007979787e-08
7.40217425116e-06
-3.4045901175e-08
7.40783384001e-06
-3.23453706377e-08
7.41342036914e-06
-3.07028611013e-08
7.41890339408e-06
-2.91202254059e-08
7.42424233557e-06
-2.76077310478e-08
-2.62052995288e-08
7.42940184952e-06
6.38279216382e-06
-4.86208285762e-08
6.39152848797e-06
-5.65202777746e-08
6.39788317634e-06
-5.45801901889e-08
6.40384103046e-06
-5.3836269102e-08
6.40953203863e-06
-5.3037788653e-08
6.41496806976e-06
-5.17161638222e-08
6.4202275498e-06
-5.00553808584e-08
6.42537726799e-06
-4.82362074045e-08
6.43045703219e-06
-4.63560874419e-08
6.4354868601e-06
-4.44642372628e-08
6.44047422339e-06
-4.25906200345e-08
6.44542265368e-06
-4.07484546407e-08
6.4503247287e-06
-3.89484097769e-08
6.45517111808e-06
-3.71920601189e-08
6.45994388152e-06
-3.54755661131e-08
6.46460902042e-06
-3.37856365361e-08
6.469108872e-06
-3.21083322314e-08
-3.0463996037e-08
6.47336333349e-06
5.56201688093e-06
-6.51735629562e-08
5.56931022134e-06
-6.38139410999e-08
5.57478252407e-06
-6.00537205531e-08
5.57993875459e-06
-5.8994345798e-08
5.58466228402e-06
-5.77611840436e-08
5.58902194689e-06
-5.60756138196e-08
5.59312344956e-06
-5.41569450524e-08
5.59703545004e-06
-5.21481496516e-08
5.60079730227e-06
-5.01176320089e-08
5.60443108341e-06
-4.80998421228e-08
5.60795235659e-06
-4.61129003902e-08
5.61137159752e-06
-4.41675829206e-08
5.61469344308e-06
-4.2269800584e-08
5.6179206505e-06
-4.04192931796e-08
5.62105036538e-06
-3.86050546113e-08
5.62405835876e-06
-3.67931405286e-08
5.6268533562e-06
-3.49063856912e-08
-3.27291115093e-08
5.62911712818e-06
4.84593152843e-06
-8.34982301351e-08
4.84744657459e-06
-6.53294803481e-08
4.84777208587e-06
-6.03805616522e-08
4.84677959885e-06
-5.80038638691e-08
4.84456490176e-06
-5.55463694644e-08
4.84147005702e-06
-5.29805369335e-08
4.83774804382e-06
-5.0434933483e-08
4.83356859061e-06
-4.79685339293e-08
4.82905300182e-06
-4.56022550469e-08
4.82429385244e-06
-4.33422663738e-08
4.81936710537e-06
-4.11875052917e-08
4.81433517775e-06
-3.91352598811e-08
4.80924862709e-06
-3.71827544204e-08
4.80415265718e-06
-3.53231573484e-08
4.79909148723e-06
-3.35433826292e-08
4.79410876614e-06
-3.18109495306e-08
4.78923893109e-06
-3.00380291321e-08
-2.74330249275e-08
4.78393992219e-06
4.11917797052e-06
4.05384839302e-06
3.99346763174e-06
3.93546377656e-06
3.87991743531e-06
3.82693689695e-06
3.77650197898e-06
3.72853344877e-06
3.68293098206e-06
3.63958846241e-06
3.59840100684e-06
3.55926585531e-06
3.52208312739e-06
3.48676005303e-06
3.45321668255e-06
3.42140538241e-06
3.39136663897e-06
3.36393387752e-06
3.00269952783e-08
-3.01227043973e-08
2.58609462848e-08
4.0512371474e-09
-2.45997789017e-08
5.04004646497e-08
-1.14135948734e-07
8.94808878737e-08
-2.21881964647e-07
1.07727306166e-07
-3.41232757141e-07
1.19322350686e-07
-4.69178085233e-07
1.27939272523e-07
-6.0377990971e-07
1.34582519103e-07
-7.4349328695e-07
1.39710703056e-07
-8.87123570098e-07
1.4361498164e-07
-1.03363253982e-06
1.46507756205e-07
-1.18220062442e-06
1.48555289885e-07
-1.33209676538e-06
1.49895864706e-07
-1.48275415444e-06
1.50647079791e-07
-1.63366681003e-06
1.50913384448e-07
-1.78446221448e-06
1.50787423947e-07
-1.93481472548e-06
1.50354306677e-07
-2.08451204994e-06
1.49690903011e-07
-2.23337938052e-06
1.48868786162e-07
-2.38133824137e-06
1.47952534768e-07
-2.52833920233e-06
1.47001747984e-07
-2.67441541378e-06
1.46068909184e-07
-2.81961764612e-06
1.45201119254e-07
-2.96406354099e-06
1.44437283663e-07
-3.1078753533e-06
1.43809565404e-07
-3.25122525329e-06
1.43340727836e-07
-3.39427307731e-06
1.43045564501e-07
-3.53721021255e-06
1.42928002759e-07
-3.68019583456e-06
1.42983312239e-07
-3.82340019253e-06
1.4319565129e-07
-3.96694200986e-06
1.43540747258e-07
-4.11093365563e-06
1.43983901583e-07
-4.25541823759e-06
1.44484154324e-07
-4.40041747052e-06
1.4499279289e-07
-4.54587414003e-06
1.45458154283e-07
-4.69170422526e-06
1.45824807103e-07
-4.83774146271e-06
1.46039461138e-07
-4.98379595522e-06
1.46049688056e-07
-5.12960342568e-06
1.45810042288e-07
-5.27488783472e-06
1.45280025033e-07
-5.41931444212e-06
1.44429619806e-07
-5.56255336075e-06
1.43235510191e-07
-5.70423466372e-06
1.41685187375e-07
-5.8440072868e-06
1.39770812362e-07
-5.98149356213e-06
1.37491400846e-07
-6.11633913385e-06
1.34845630369e-07
-6.2481661753e-06
1.31833162086e-07
-6.37661120745e-06
1.28446737927e-07
-6.50127677075e-06
1.24672383477e-07
-6.62175787166e-06
1.20483992147e-07
-6.7375978989e-06
1.15847115942e-07
-6.84830963411e-06
1.10715675669e-07
-6.95334073696e-06
1.05038415088e-07
-7.05209467155e-06
9.87593838755e-08
-7.14390863736e-06
9.1822333986e-08
-7.22807408797e-06
8.41724274379e-08
-7.3038300168e-06
7.57647991761e-08
-7.3703849102e-06
6.65629220861e-08
-7.42693018814e-06
5.6554473508e-08
-7.47264854637e-06
4.57269010421e-08
-7.50669045436e-06
3.40508757909e-08
-7.52817004138e-06
2.14882654502e-08
-7.53614565647e-06
7.98418977493e-09
-7.52966701265e-06
-6.47003752563e-09
-7.50790950272e-06
-2.17493834295e-08
-7.47022773846e-06
-3.76734457368e-08
-7.41607733174e-06
-5.41429797681e-08
-7.34499364218e-06
-7.10758967881e-08
-7.25659237509e-06
-8.83948484682e-08
-7.15056970956e-06
-1.06015646895e-07
-7.02672664761e-06
-1.23837628406e-07
-6.88498923563e-06
-1.41730816018e-07
-6.72545742012e-06
-1.59527157184e-07
-6.54844004961e-06
-1.77010483373e-07
-6.35451671377e-06
-1.9391843161e-07
-6.14455897935e-06
-2.09949634961e-07
-5.91976622671e-06
-2.2478708884e-07
-5.68164239802e-06
-2.3811519049e-07
-5.43198691904e-06
-2.4965096652e-07
-5.17281408597e-06
-2.59164220387e-07
-4.90630998636e-06
-2.66500146246e-07
-4.63473183905e-06
-2.71570215969e-07
-4.36036417174e-06
-2.74366494769e-07
-4.08539746387e-06
-2.74959938335e-07
-3.81190560721e-06
-2.73492981495e-07
-3.54176608367e-06
-2.70138165028e-07
-3.27668527575e-06
-2.65092821932e-07
-3.01811177157e-06
-2.58594588583e-07
-2.76724106309e-06
-2.50907695702e-07
-2.52503770653e-06
-2.42273611732e-07
-2.29224524506e-06
-2.32869718759e-07
-2.06932156122e-06
-2.23015375014e-07
-1.85660826174e-06
-2.1280421074e-07
-1.65426706843e-06
-2.02443577443e-07
-1.46185448854e-06
-1.92509301011e-07
-1.27966702993e-06
-1.82291847559e-07
-1.10720078183e-06
-1.72558260703e-07
-9.42863756228e-07
-1.64430055793e-07
-7.89279717885e-07
-1.53655392885e-07
-6.4520979637e-07
-1.44132749898e-07
-5.04842411765e-07
-1.40403643963e-07
-3.77770929694e-07
-1.2707099349e-07
-2.60699031164e-07
-1.170110989e-07
-1.3804152067e-07
-1.22515938703e-07
-9.87143680743e-09
-1.2791757567e-07
1.12540323654e-07
-1.22138695506e-07
2.18326922549e-07
-1.05588901726e-07
3.08686306986e-07
-9.01864931228e-08
3.87185184156e-07
-7.83667916812e-08
4.56070580693e-07
-6.87635710801e-08
5.16637899295e-07
-6.04816455995e-08
5.69854417482e-07
-5.31353285136e-08
6.16451609148e-07
-4.65483760379e-08
6.57072206698e-07
-4.05728998867e-08
6.92224885667e-07
-3.51329940085e-08
7.22395979646e-07
-3.01489309225e-08
7.47986372695e-07
-2.55914152304e-08
7.6940278596e-07
-2.14176831087e-08
7.87003871761e-07
-1.7620505485e-08
8.0117365135e-07
-1.41755970525e-08
8.12260332391e-07
-1.10818578296e-08
8.20621288414e-07
-8.3246398275e-09
8.26572334253e-07
-5.91008298561e-09
8.30452074906e-07
-3.8282914968e-09
8.32574316888e-07
-2.08988567702e-09
8.33287850302e-07
-6.82609288513e-10
8.32910735301e-07
3.87510755731e-10
8.31785317218e-07
1.1368676925e-09
8.30215046295e-07
1.56583535242e-09
8.28517731172e-07
1.69697248018e-09
8.26965613466e-07
1.53921076207e-09
8.25835656208e-07
1.12257919045e-09
8.25352651779e-07
4.64485859959e-10
8.25737800487e-07
-3.98799054887e-10
8.27156125339e-07
-1.44371480614e-09
8.29764037616e-07
-2.63088717955e-09
8.33661625144e-07
-3.93426785239e-09
8.38937792073e-07
-5.31600802494e-09
8.45633754371e-07
-6.75163961958e-09
8.53784583182e-07
-8.20750932137e-09
8.63388226956e-07
-9.66001079228e-09
8.74426776262e-07
-1.10817772438e-08
8.86847371377e-07
-1.24527060057e-08
9.00582298599e-07
-1.37540493336e-08
9.15543130565e-07
-1.49733031938e-08
9.31636919759e-07
-1.60979628007e-08
9.48756391614e-07
-1.71207179579e-08
9.66794520102e-07
-1.80340321879e-08
9.85633870589e-07
-1.88348851382e-08
1.00516057297e-06
-1.95189697329e-08
1.02525288507e-06
-2.00859777282e-08
1.04579489433e-06
-2.05336236248e-08
1.06666379501e-06
-2.08627670021e-08
1.08774382277e-06
-2.10722247985e-08
1.10891309632e-06
-2.11638337617e-08
1.13005741576e-06
-2.11370749633e-08
1.15105636608e-06
-2.09938333729e-08
1.1717967071e-06
-2.07331509429e-08
1.19215798698e-06
-2.03559759758e-08
1.21202574075e-06
-1.98601982711e-08
1.2312763177e-06
-1.92447785829e-08
1.24978924324e-06
-1.8504783819e-08
1.26743096729e-06
-1.76352498496e-08
1.28406628377e-06
-1.66263823183e-08
1.29954139483e-06
-1.54677037328e-08
1.31369468699e-06
-1.41432408897e-08
1.32633993792e-06
-1.26365699453e-08
1.33728098428e-06
-1.09295649895e-08
1.34630242165e-06
-9.01129336423e-09
1.35320255714e-06
-6.88719788018e-09
1.35782652134e-06
-4.61259863904e-09
1.36018012519e-06
-2.33978325078e-09
1.36058197501e-06
-3.90116224876e-10
1.35908832713e-06
1.50742482653e-09
1.35510601869e-06
3.99342748697e-09
1.34761303899e-06
7.50565068509e-09
1.3349291711e-06
1.26933805363e-08
1.31460729938e-06
2.03342770708e-08
1.28221487286e-06
3.24064189287e-08
3.66832032322e-08
1.24555475459e-06
-7.22292768711e-08
4.20588013752e-08
-1.83156568884e-07
1.14944530373e-07
-2.90892060898e-07
1.58118102587e-07
-3.96423735515e-07
1.94992829615e-07
-5.11474192391e-07
2.22767807514e-07
-6.35754801775e-07
2.43588400545e-07
-7.67347125691e-07
2.5952515527e-07
-9.04568888928e-07
2.71792364983e-07
-1.04602476215e-06
2.81162097045e-07
-1.19059357032e-06
2.88173364946e-07
-1.337318976e-06
2.93229666483e-07
-1.48542418414e-06
2.96651488653e-07
-1.6342360049e-06
2.98705190157e-07
-1.78321646376e-06
2.9962021258e-07
-1.93190371624e-06
2.99599312253e-07
-2.0799469359e-06
2.98825091791e-07
-2.22705679276e-06
2.97463976359e-07
-2.37303886446e-06
2.95668769169e-07
-2.51775002879e-06
2.93580092561e-07
-2.66112841499e-06
2.91326952524e-07
-2.80315369771e-06
2.8902671434e-07
-2.9438737989e-06
2.86784613044e-07
-3.08336678244e-06
2.84692749006e-07
-3.2217639223e-06
2.8282880041e-07
-3.35921131155e-06
2.81254728361e-07
-3.49589129447e-06
2.80014959986e-07
-3.63198355239e-06
2.79135246367e-07
-3.76768347489e-06
2.78621560032e-07
-3.90316251682e-06
2.78459599395e-07
-4.03858740425e-06
2.78614534901e-07
-4.17408127892e-06
2.79032091403e-07
-4.30974335432e-06
2.79640157921e-07
-4.44561275501e-06
2.80351572334e-07
-4.58169212761e-06
2.81067333255e-07
-4.71791634566e-06
2.81681259266e-07
-4.85418033933e-06
2.82084804511e-07
-4.99031388083e-06
2.82172500743e-07
-5.12611461453e-06
2.81846971899e-07
-5.26132862494e-06
2.81023938067e-07
-5.39568702469e-06
2.79635675531e-07
-5.5288905467e-06
2.77633686862e-07
-5.66064527194e-06
2.7498866718e-07
-5.79064736639e-06
2.7168895205e-07
-5.918611999e-06
2.67735548564e-07
-6.04425363943e-06
2.63136176979e-07
-6.1673037984e-06
2.57897764974e-07
-6.28748496435e-06
2.52018824982e-07
-6.40451520708e-06
2.45480455618e-07
-6.51807535315e-06
2.38238038384e-07
-6.62780484462e-06
2.30218187518e-07
-6.73327185899e-06
2.21320254739e-07
-6.83396986327e-06
2.1141921946e-07
-6.92929934133e-06
2.00374770383e-07
-7.01857344674e-06
1.88040316979e-07
-7.10101579579e-06
1.7427254494e-07
-7.17577820032e-06
1.58942689878e-07
-7.24195359599e-06
1.41948742253e-07
-7.2986021654e-06
1.23220060731e-07
-7.34474878177e-06
1.02709956559e-07
-7.37940947556e-06
8.03964041814e-08
-7.40162676361e-06
5.627695372e-08
-7.41047836516e-06
3.03486103867e-08
-7.40513468463e-06
2.64913307072e-09
-7.38505326615e-06
-2.65429056966e-08
-7.34982499899e-06
-5.69694066359e-08
-7.29899546803e-06
-8.84947495135e-08
-7.23215800187e-06
-1.20972704848e-07
-7.14895344515e-06
-1.54272856336e-07
-7.04906797807e-06
-1.8827338651e-07
-6.93223198577e-06
-2.22844869621e-07
-6.79823677006e-06
-2.57826802465e-07
-6.64696278238e-06
-2.92998628664e-07
-6.47843025637e-06
-3.28054059426e-07
-6.2928563985e-06
-3.62578327712e-07
-6.09072645949e-06
-3.96042465467e-07
-5.87284481006e-06
-4.27824274678e-07
-5.64036940469e-06
-4.57256144076e-07
-5.39479874835e-06
-4.83679065048e-07
-5.13794977384e-06
-5.06494014262e-07
-4.87188706633e-06
-5.25220223545e-07
-4.5988480089e-06
-5.39533976311e-07
-4.32114234178e-06
-5.49270357551e-07
-4.04108385361e-06
-5.54421168667e-07
-3.76089846224e-06
-5.55140913707e-07
-3.4826769414e-06
-5.51712503529e-07
-3.20831727197e-06
-5.44498646308e-07
-2.93946510645e-06
-5.33954097887e-07
-2.67755337576e-06
-5.2052257109e-07
-2.42375321341e-06
-5.04754102848e-07