/*--------------------------------*- C++ -*----------------------------------*\
| =========                 |                                                 |
| \\      /  F ield         | OpenFOAM: The Open Source CFD Toolbox           |
|  \\    /   O peration     | Version:  v1806                                 |
|   \\  /    A nd           | Web:      www.OpenFOAM.com                      |
|    \\/     M anipulation  |                                                 |
\*---------------------------------------------------------------------------*/
FoamFile
{
    version     2.0;
    format      ascii;
    class       volScalarField;
    location    "7";
    object      rho;
}
// * * * * * * * * * * * * * * * * * * * * * * * * * * * * * * * * * * * * * //

dimensions      [0 0 0 0 0 0 0];


internalField   nonuniform List<scalar> 
12225
(
0.585462252181
0.632658559406
0.619706387548
0.617631384345
0.606265793755
0.601554505315
0.595396496428
0.59104976871
0.588625397404
0.589319248472
0.594638608055
0.603235090741
0.610187430823
0.621713644995
0.643738935414
0.670276610485
0.702735636938
0.732733934998
0.72304438244
0.686940240838
0.650651703697
0.656374456811
0.64649323165
0.643510085257
0.638933080894
0.635683894404
0.633455213372
0.632967996931
0.635584755469
0.641074941238
0.64677496978
0.655285510242
0.670379592712
0.688554056818
0.707812233643
0.710589826553
0.625060078715
0.662343664526
0.648737360642
0.649232040591
0.639684189595
0.636017929236
0.631231942416
0.627901172389
0.625568820053
0.624736070228
0.626075318716
0.629667002893
0.634857026762
0.642859739359
0.655309208296
0.669594447076
0.681890434635
0.676928726971
0.643708648164
0.676356921026
0.650638972227
0.656219412822
0.64728471319
0.645217528428
0.641667298374
0.639360629561
0.637723359737
0.637189810142
0.638101040244
0.640600704122
0.644698150957
0.651005844501
0.659913456315
0.669137714797
0.67441363806
0.665904934431
0.63561664916
0.676522648974
0.652492530171
0.659144666602
0.651129113758
0.650097257499
0.647514978785
0.646186198005
0.645504031634
0.645800421161
0.647217035231
0.649816854494
0.653707819353
0.659079930787
0.665589141536
0.671106315355
0.6719375646
0.662807509574
0.635154191319
0.67950614397
0.654860866422
0.662924478046
0.655520232481
0.655303302228
0.653385348069
0.652690563784
0.652584575398
0.65332796148
0.654967562219
0.657501242872
0.660974206916
0.665301741352
0.669784446165
0.672513332529
0.670767180371
0.662095488384
0.634843739302
0.681270299265
0.656985952647
0.666095444109
0.659299833092
0.65977648789
0.658402876716
0.658195973915
0.658486790114
0.659485408976
0.661181816825
0.663525777231
0.666453251706
0.669716184087
0.672500483354
0.673227877122
0.670084917818
0.662101079712
0.635051607851
0.682487966885
0.65878640593
0.668706993522
0.662470009427
0.663520957794
0.662584220288
0.662742003358
0.663272295838
0.664364772969
0.665982825225
0.668035975603
0.670364134219
0.672633121982
0.674041523812
0.673380615011
0.669515912778
0.662246036582
0.635381243052
0.683157148559
0.660200279926
0.670726961887
0.665004834996
0.666543835867
0.665966349113
0.666383626545
0.667030652913
0.668102737619
0.669551044185
0.67124244543
0.672953288
0.674319274302
0.674642306539
0.67302171029
0.668824613032
0.662167316292
0.635587693045
0.683345584063
0.661107636489
0.672074323731
0.666791028352
0.66872936807
0.668418540058
0.668995891791
0.669682674289
0.670680869011
0.671907870396
0.673191206892
0.674279873758
0.674838111583
0.674304243054
0.672041902116
0.667737734509
0.661670143361
0.63494896763
0.683290407976
0.661214563345
0.672576675345
0.667545460748
0.669716449042
0.669507856883
0.67013664524
0.670798650168
0.671667172535
0.67262560117
0.673506144563
0.674072291981
0.674043921285
0.67298415757
0.670462348058
0.66636499839
0.660981711511
0.630641903546
0.683050235751
0.659586956533
0.671545928648
0.666458915504
0.668736118956
0.668559600258
0.66920521871
0.669791890371
0.670522297911
0.671341555685
0.672068229019
0.67246393753
0.672264756747
0.671136358385
0.66877806856
0.66514482131
0.660515674076
0.627212959353
0.682265405869
0.658024140935
0.670394513994
0.665496655376
0.667951389187
0.667888047889
0.668624987206
0.669319623924
0.6701524393
0.671012377089
0.671717749354
0.672001231888
0.671676800627
0.670464977844
0.6681865072
0.664877790226
0.660782157183
0.62313184271
0.681332724613
0.65629445728
0.669197021195
0.664532627837
0.667349901379
0.667609614957
0.668583437062
0.669408164634
0.670267556799
0.671046262768
0.6715513954
0.671553427357
0.670926582841
0.669529091694
0.667250150493
0.664227986827
0.660589776989
0.617865056426
0.680317474262
0.654136643056
0.667753246608
0.663335778918
0.66658302407
0.667211902074
0.668465985072
0.669442360043
0.670289002839
0.670927679501
0.671158084828
0.670812136126
0.669883873432
0.668307485185
0.666063107513
0.663298187935
0.660133624895
0.612396286863
0.679250051027
0.65169365981
0.666007248285
0.661731548594
0.665349323915
0.666257818577
0.667722974748
0.668776976421
0.669600340806
0.670073184968
0.67008110488
0.669471631341
0.668360841303
0.666714923192
0.664585279511
0.662096985989
0.6593296408
0.607498503817
0.678304844613
0.649243583624
0.66411756371
0.659829948909
0.663671447129
0.66470638278
0.666248414307
0.667297467343
0.668027645599
0.668377558572
0.668221155035
0.667481055345
0.666297513626
0.664703452675
0.662726507435
0.66052564159
0.658080900092
0.602963716131
0.677591256696
0.646948792053
0.662267712855
0.657823079952
0.661738907963
0.662750434724
0.664267782747
0.665245627738
0.665877582359
0.666120870123
0.665866751833
0.665070388895
0.663901528278
0.662402535201
0.660595559983
0.658635346211
0.656472482154
0.600569363583
0.677500595393
0.64577253888
0.661254304139
0.656533402081
0.660310765715
0.661107655716
0.662431806621
0.663207664301
0.663648388389
0.663726132266
0.663353179729
0.662497106773
0.661341044887
0.659919416539
0.65824236994
0.656454601401
0.654499604323
0.60598430081
0.678230377788
0.647385719258
0.662039616384
0.656830034162
0.65994555446
0.660104412391
0.66077944365
0.660969580126
0.660889540889
0.660541069655
0.65985319255
0.658788949932
0.657516682405
0.656065704565
0.654436433132
0.652758603649
0.650986315598
0.610126394393
0.679294906139
0.649246259399
0.663299656624
0.657713921205
0.660300718807
0.659954886146
0.660159103476
0.659900553439
0.65945096523
0.658803914208
0.657911977019
0.656703696004
0.655371303535
0.653905050266
0.652324615951
0.650717646435
0.649064379363
0.613410841015
0.680409767117
0.651014986202
0.664556117628
0.658667999469
0.660793182003
0.660035631923
0.659831101017
0.659221001193
0.658474108431
0.657583303954
0.656525007027
0.655214541662
0.653820592166
0.652345525699
0.650785213434
0.649232679371
0.647635143182
0.616995993874
0.681649243827
0.652800660932
0.665858615669
0.659671295106
0.66134760671
0.660193998472
0.65961448178
0.658678513973
0.657644682147
0.656550282769
0.655325900233
0.653904721268
0.652434344233
0.650940319613
0.649370155678
0.647842427571
0.646293577449
0.620637419824
0.682899327988
0.654644349161
0.667137540219
0.660644679152
0.661890421883
0.660362325994
0.659422163491
0.658185987667
0.656911607013
0.65561051692
0.654241526289
0.652716924822
0.651186979655
0.649633043386
0.648040656577
0.646488867743
0.64496945842
0.624758174642
0.684268828171
0.656481955408
0.668348211688
0.661602795375
0.662403158215
0.660522976338
0.659272304958
0.657762456898
0.656250880993
0.654757720254
0.653255755358
0.651625171398
0.650013176714
0.648410659006
0.646758712774
0.645141425751
0.643545959877
0.627153944318
0.684511778338
0.659095210935
0.669918302325
0.663062143475
0.663478718574
0.661348431212
0.659836339817
0.658104992011
0.656390237802
0.654735925233
0.653120252458
0.651428584986
0.649764260076
0.648119761205
0.646451076692
0.644817858478
0.643397689546
0.645351234464
0.689552179668
0.660953255678
0.671471249146
0.664254741813
0.664204187163
0.661724047629
0.659881293977
0.657834618318
0.655796249154
0.653792473046
0.651947488402
0.650079379795
0.648221223236
0.646414270025
0.644557319935
0.642665490441
0.640502734451
0.609398757985
0.677504618413
0.670671627281
0.675808540671
0.66963415432
0.669211233548
0.666877561263
0.665199135568
0.663399061631
0.661620912359
0.660006472062
0.658522755108
0.656974903665
0.655453010424
0.653968234472
0.652376844201
0.650718477452
0.649600016861
0.767748140686
0.709399211986
0.673155902369
0.683000752608
0.67571019701
0.674943030272
0.671900499029
0.669244178537
0.666199463049
0.662913877342
0.659495641345
0.656313144578
0.653104330396
0.64978057113
0.646430432336
0.643041316885
0.639586150574
0.636183677606
0.641391285172
0.665284678696
0.664950882756
0.665981194833
0.658717794487
0.657949290334
0.655578696562
0.653794862939
0.651965698729
0.650378360194
0.649134795299
0.647980588013
0.646758346237
0.645864545821
0.645298673002
0.64484431409
0.644634239609
0.643906325202
0.50015879281
0.499800017862
0.499615967733
0.499645792871
0.499851181318
0.500188209275
0.500589787603
0.501016448005
0.50144049845
0.501843184747
0.5022123633
0.502541055181
0.502825926722
0.503066240632
0.50326307965
0.503418887766
0.503536787392
0.503620749766
0.503674560251
0.503701832582
0.503706517966
0.50369136873
0.503660226451
0.503614190799
0.503555635433
0.503484339132
0.503402198759
0.503309001839
0.503205571757
0.50309106513
0.502965808859
0.502829200178
0.502681659232
0.502522279714
0.502351272936
0.50216867826
0.501975552839
0.50177112175
0.501556537075
0.501331819224
0.501098278449
0.500856618239
0.500608423791
0.500355254311
0.500099075595
0.499842257947
0.499587187521
0.499336685135
0.4990937119
0.498860857852
0.498640589773
0.498433834764
0.498243242322
0.49807240739
0.497926060623
0.497808782388
0.497725348425
0.497680571689
0.49767920767
0.497725777271
0.497823257872
0.497971081128
0.498167754833
0.498413025684
0.498707496927
0.499050500408
0.499441486424
0.499879271475
0.500361254828
0.500884818925
0.501445718784
0.502039783661
0.502661785594
0.503306911465
0.503969811236
0.504645814216
0.505330164146
0.506017753975
0.506704219516
0.50738656282
0.508062367604
0.508728260863
0.509382094326
0.510021366486
0.51064698694
0.511256609011
0.511850551667
0.512434763548
0.513005932219
0.513566848653
0.514117648381
0.514658912161
0.51519294358
0.515693031941
0.51614315834
0.516580671469
0.517038712052
0.51750400201
0.517974549386
0.518445676606
0.519026882487
0.519700559371
0.519637565457
0.519476723415
0.519476278238
0.519728975094
0.520211473258
0.520413119654
0.520700038606
0.520957554525
0.52117712874
0.521365334129
0.521531246027
0.52168138792
0.52182013742
0.521950376203
0.522074902447
0.522196692807
0.522316393533
0.52243276333
0.522542257671
0.522643462953
0.522737545917
0.522825450127
0.522909929059
0.522992124016
0.523072641656
0.523151721551
0.523229549588
0.523306252466
0.523382047578
0.523457055273
0.523531362572
0.523604793837
0.523677223397
0.523748387643
0.523818130817
0.523886690178
0.523953489239
0.52401827116
0.524079124479
0.524137380397
0.524192172925
0.524241981105
0.524285077547
0.524319630926
0.524344521773
0.524358887376
0.52436192855
0.524352890392
0.524330571054
0.524293377159
0.524239577824
0.524167494876
0.524075192248
0.523960719766
0.523821881156
0.523656340181
0.523461014243
0.523232430469
0.522965295363
0.522654075793
0.522290651592
0.521863785659
0.52135799943
0.520756273013
0.520037605634
0.519185354806
0.518186039068
0.517016125064
0.515661735513
0.514125519088
0.512424550576
0.51059932638
0.508710247385
0.506705602248
0.504643571754
0.502612039684
0.500727269356
0.499324330608
0.500068499528
0.499811825664
0.499895969684
0.500187223598
0.500550622234
0.500925718455
0.501289494379
0.501630280842
0.501943617615
0.502227774982
0.502482772911
0.502708214751
0.502905099033
0.50307390279
0.50321612988
0.503333035923
0.503426658556
0.503498985799
0.503552742184
0.50358962319
0.503612410492
0.503622662808
0.503622950176
0.503613578527
0.50359611842
0.503569769956
0.50353551173
0.503492506752
0.503440657458
0.503378645211
0.50330639108
0.5032228845
0.5031276366
0.503019501388
0.502898869954
0.502765059
0.502618451944
0.50245881929
0.502286726676
0.502102104406
0.501905941151
0.501699003343
0.501482709302
0.501258714969
0.501029119596
0.500796483058
0.500563901268
0.500334648273
0.500112936371
0.499903406877
0.499713093501
0.499546433219
0.499405734843
0.499293306248
0.49921222943
0.499165478568
0.499155896375
0.499188121663
0.499266869744
0.499393043169
0.499567111846
0.499790851297
0.50006484158
0.500386331678
0.500752080581
0.501159504414
0.501606249629
0.502090499007
0.502610525424
0.503164977449
0.503752015143
0.504369865429
0.505015768979
0.505686843284
0.506379645277
0.50709022893
0.507814105244
0.50854656919
0.509282643446
0.510018753649
0.510752099257
0.511479105408
0.512195786753
0.512900529446
0.513595224573
0.514274932553
0.514933433273
0.515581361141
0.516240123948
0.516892941268
0.517511648145
0.518131666627
0.518795613323
0.519475486647
0.520088193542
0.520631271591
0.521216699164
0.521668195894
0.522124000863
0.522615182338
0.523078489564
0.523692733372
0.524117837323
0.524568703395
0.524973186687
0.52538615887
0.525590517093
0.525687932313
0.525775551154
0.525892251868
0.526042704182
0.526205198061
0.526375411992
0.526550490459
0.526729559809
0.526912289528
0.527099580682
0.527292769289
0.527492027348
0.52769418749
0.527895036002
0.528092392451
0.528285807675
0.5284765843
0.528666260664
0.528855444252
0.529044468774
0.529233378284
0.52942220497
0.529610905527
0.529799504951
0.529987990336
0.530176350028
0.53036453058
0.53055266875
0.530740977591
0.530930053483
0.531120702461
0.531313581689
0.531508218722
0.531704238809
0.531902811605
0.532104272186
0.532308309558
0.53251402957
0.532720999444
0.53292978436
0.533141603869
0.533357924014
0.533580146977
0.533809693967
0.534048047014
0.534296557341
0.534556068536
0.534826635698
0.535107580082
0.535397204267
0.535693020132
0.53599136079
0.536288539701
0.536579175057
0.536857135834
0.53711654853
0.537352707504
0.537561219266
0.537738416563
0.537887579169
0.538000414439
0.538077854944
0.538121493372
0.538129553615
0.538094738062
0.538007335884
0.53786692388
0.537605868148
0.537321891947
0.537000355191
0.536657064363
0.53633349133
0.535994224499
0.500404678605
0.500338014068
0.500389402135
0.500538659218
0.500708674853
0.500861940017
0.501001325073
0.501132412536
0.501260372767
0.501386721019
0.501511477076
0.501633052495
0.501749551673
0.501858775158
0.501959081306
0.502049057975
0.50212812807
0.502195921871
0.502252930814
0.502299681072
0.502337302301
0.502365997926
0.502387591403
0.502401951825
0.502409787461
0.50241058241
0.502404805213
0.502391396693
0.502370166372
0.502339912719
0.50230024078
0.502249819476
0.502188408001
0.502115013933
0.502029393464
0.501931040832
0.501820405398
0.501696904429
0.50156106736
0.501413084288
0.501253740114
0.501083868791
0.500904786101
0.500718074016
0.500525696769
0.500329921619
0.500133507087
0.499939415928
0.499751020151
0.499571936026
0.499407511169
0.499263288439
0.499145350503
0.499057438783
0.499002311526
0.498982081246
0.49899842933
0.49905085803
0.499138220781
0.499261856456
0.499424459478
0.499628861068
0.49987974818
0.500182492518
0.500541234414
0.500957720038
0.501432054451
0.50196282783
0.502546878134
0.503180034966
0.503856799462
0.504570992727
0.505315835127
0.506084453944
0.506870099334
0.507666291216
0.508467072734
0.509266908825
0.510060901373
0.5108446549
0.511616539215
0.512374291521
0.513114256085
0.513834427165
0.514539199464
0.515230653543
0.515895291286
0.516530413716
0.517160290389
0.517795651529
0.518403861713
0.518958184269
0.519535434292
0.52011653525
0.520674399016
0.521206639796
0.521681392665
0.522003551054
0.522406753745
0.522999935752
0.523688519308
0.52416116314
0.524341300866
0.524517509037
0.524591571956
0.524724850848
0.52497613851
0.525357480749
0.525739167657
0.52607487558
0.52638201058
0.526664039767
0.526928609834
0.52717997722
0.527421431598
0.527655458833
0.527884641271
0.528111075056
0.528335306537
0.528554946439
0.528767516582
0.52897238016
0.529170779719
0.529364814294
0.529555441794
0.529743156951
0.529928271879
0.530111100176
0.53029195757
0.530471175176
0.530649102092
0.530826049824
0.531002231086
0.531177840834
0.531353117776
0.531528434589
0.531704284816
0.531880901422
0.532058190159
0.532234772582
0.532410417533
0.532585943288
0.532762467593
0.532939542813
0.533115526199
0.53328904528
0.533459243047
0.53362580231
0.533788410553
0.533946797471
0.534100564145
0.534249483027
0.534393150261
0.534531396872
0.534664364068
0.534792556085
0.534916725241
0.535038128584
0.535158260911
0.535279121654
0.535402774005
0.535531319677
0.535666943526
0.535812057073
0.535968670754
0.536139013271
0.536326556818
0.53653237015
0.536753489611
0.536986791139
0.537226594804
0.537461852392
0.537679647175
0.537854976398
0.537962502589
0.537987729609
0.537919649484
0.537763058265
0.537564354715
0.537461316582
0.500860734331
0.500809482638
0.500615318268
0.500534320251
0.500520338147
0.500521829433
0.500540476883
0.500578060119
0.500635931401
0.500713165049
0.500807153301
0.500913695776
0.501028979529
0.501148953246
0.50127044919
0.501390586777
0.501507428804
0.501619405875
0.501725971251
0.501826080567
0.50192018493
0.502008042688
0.50209001478
0.50216561048
0.502235426819
0.502298254999
0.502353996237
0.502401513897
0.502440207449
0.502468586833
0.502485929611
0.502490993819
0.502483045693
0.50246082288
0.502424449493
0.502373031728
0.502306705175
0.50222534481
0.50212955503
0.50201960957
0.501896675166
0.501761946604
0.501617246787
0.501464725979
0.50130697872
0.501146988177
0.500988255168
0.500834314605
0.50068927065
0.500557504377
0.500443235674
0.500349528551
0.500281491686
0.500243433083
0.50023929805
0.500272340778
0.500345504428
0.500460019066
0.500614131033
0.500804779245
0.501030623357
0.501291489903
0.501588948425
0.501926068338
0.502306656255
0.502734750062
0.503213455382
0.503744644321
0.504328618837
0.504963839973
0.505646977038
0.50637278309
0.50713437847
0.507924300219
0.508734524008
0.509556167742
0.510381334512
0.511204041367
0.512016991613
0.512813537424
0.513591791495
0.514353025902
0.515090046657
0.515794597395
0.516476022161
0.517143262539
0.517783353845
0.518364084955
0.518932356088
0.519500018189
0.520035511632
0.520525195158
0.520981578448
0.521421828035
0.521811760337
0.522204684768
0.522660537912
0.523198246367
0.523850148793
0.524446471643
0.524839009534
0.524966064426
0.52503025612
0.525154414574
0.525289402023
0.525542004468
0.525944394154
0.526454797345
0.526956124889
0.527392569548
0.527771227011
0.528103292375
0.528401790271
0.528675577744
0.528931049444
0.529172979478
0.529405206038
0.529630649536
0.529849896389
0.530061491064
0.530264002324
0.530458106119
0.530646409621
0.530830725605
0.531011695795
0.531189433967
0.531364070297
0.531535828546
0.531705035988
0.531872088622
0.532037423429
0.532201431767
0.532364427406
0.532526707242
0.532688631177
0.532850694967
0.533013227801
0.53317607998
0.53333823258
0.533498153249
0.533655422097
0.533811716077
0.53396903617
0.534127516372
0.534286140468
0.534443959168
0.534600617996
0.534756256829
0.534911141321
0.535065586704
0.535219837428
0.535374164316
0.535528624597
0.535683214059
0.535837868229
0.535992437002
0.536146577154
0.536299858584
0.536451587984
0.536601013081
0.536747615549
0.536890845301
0.537030191529
0.537165780589
0.537298176827
0.537428874108
0.537561256624
0.537697427452
0.537839013682
0.537988782658
0.538147543083
0.538312558826
0.53847981771
0.538642011531
0.538781773089
0.538896107631
0.538979069488
0.539039792802
0.539132525644
0.539371411103
0.501388040875
0.500981781759
0.50044426823
0.500225423583
0.500157504132
0.500126712468
0.50012293611
0.500143906427
0.500191210228
0.50026314814
0.500357425088
0.500470249011
0.500597926583
0.500736302151
0.500882132768
0.5010320794
0.501184002591
0.501335507747
0.501485463495
0.501632721491
0.50177687103
0.50191677083
0.502052900716
0.502184196855
0.502310379145
0.502430529571
0.502544204771
0.502649859331
0.502746707966
0.502833213185
0.50290845563
0.502970775259
0.503019586573
0.503053733557
0.503072704055
0.503075748667
0.503063162069
0.503034343972
0.502989840666
0.502929928451
0.502855593607
0.502767832448
0.502668303326
0.502558854391
0.502441854545
0.502319831023
0.502195904155
0.502073301708
0.501955507371
0.501846575993
0.501752008573
0.501675492195
0.50162170751
0.501595194103
0.501599490071
0.501637723903
0.501713394685
0.501828722778
0.501983854431
0.502179879819
0.502417637868
0.502697388944
0.503020099939
0.503387238455
0.503800820165
0.504262994917
0.504775766645
0.505340447273
0.505956641099
0.506622809904
0.507335726421
0.508090494884
0.50887950723
0.509696073707
0.510532481893
0.511379057864
0.512226032251
0.5130690445
0.513903548338
0.514716251062
0.515500657174
0.516266928707
0.517009135742
0.517709799817
0.518381454445
0.519039613603
0.519665081083
0.520240294043
0.52076006149
0.521260781
0.521760776623
0.522202502453
0.522625166274
0.523014787696
0.5234314103
0.523982030133
0.524586048798
0.525182500141
0.525677590467
0.525958986093
0.526051189977
0.52605352357
0.526121367993
0.526282773372
0.526511827056
0.526843511364
0.527267339192
0.527740010178
0.528196919255
0.528605731664
0.528965314317
0.529282085503
0.529565756409
0.529824184505
0.530063529333
0.530288584694
0.530503136706
0.530709662126
0.530908452068
0.531098370856
0.531278795534
0.531451439273
0.531619149618
0.531783483095
0.531944765225
0.532102905349
0.532257874901
0.532409813732
0.532559014054
0.532705899511
0.532850953828
0.532994631881
0.533137346867
0.533279479301
0.533421555204
0.533564140461
0.533707415977
0.533850754747
0.533992296711
0.534130370697
0.534264539068
0.534397214515
0.534530694863
0.534665377802
0.534800458825
0.534935030754
0.535068750976
0.535201586326
0.535333673613
0.535465111843
0.535596018748
0.535726486542
0.535856568647
0.535986289813
0.536115703351
0.536244831418
0.536373670778
0.53650221624
0.536630380958
0.53675812754
0.5368857185
0.537013417882
0.537141627175
0.537271197227
0.537403073758
0.537538603191
0.53768035641
0.537829552515
0.537986604264
0.538152766311
0.538326866055
0.538505209413
0.53868427249
0.538858176579
0.539016855057
0.539159940729
0.539292025644
0.539432841245
0.539642613041
0.540022155722
0.501894504057
0.500684060459
0.499886217622
0.499762943335
0.499797921594
0.499826683799
0.499856495397
0.499896135756
0.499954172321
0.500033435374
0.500134512551
0.500254567021
0.500391266938
0.500540848428
0.500700711646
0.500867574601
0.501039420553
0.501213866483
0.501389792416
0.501565215209
0.501739871484
0.501912674477
0.502083064442
0.502250021628
0.50241344935
0.502571705601
0.502724105841
0.502869150119
0.503005785574
0.503132265208
0.5032474786
0.503349933679
0.503438651714
0.503512233498
0.503570540643
0.503612589927
0.503638376679
0.503647693098
0.503641136999
0.503618965673
0.503582417331
0.503532581822
0.503471316134
0.503400534138
0.503322681471
0.503240223318
0.503156193586
0.503073395408
0.502995161625
0.502925364393
0.502869261837
0.502830456616
0.502814052732
0.502824745353
0.502866804006
0.50294409239
0.503060243264
0.503214619739
0.503405914551
0.503633531218
0.503897928364
0.504199430522
0.504540052925
0.504923555972
0.505354013604
0.505835075498
0.506370031766
0.506960699966
0.50760630965
0.508303494194
0.509049314882
0.509837346439
0.51065805896
0.511502259583
0.512365162731
0.513236157541
0.514100743894
0.514952688199
0.515795069952
0.516618034396
0.517396788824
0.518166579356
0.51891101813
0.519616870864
0.520273858556
0.520879480829
0.521457551552
0.522003406566
0.522516117985
0.52301220366
0.523455536365
0.523885428389
0.52439008209
0.524922913683
0.525478151297
0.526022536499
0.526476220438
0.526833093499
0.527066441485
0.527168741087
0.527203410659
0.527252708645
0.527380503213
0.52758422136
0.527851605874
0.528187411592
0.528573618024
0.528980578107
0.529374766769
0.529738009599
0.530065983667
0.530360487207
0.530626738663
0.530870065085
0.531095220171
0.531306258027
0.531506510735
0.5316978097
0.531880322851
0.532053126187
0.532216323337
0.532372299851
0.532523669597
0.532671807472
0.532816949251
0.53295897715
0.533097799479
0.533233517301
0.533366406138
0.533496903997
0.533625511984
0.533752734478
0.533879030278
0.534004892348
0.534130954765
0.534257823563
0.534385502452
0.534512740718
0.534637396439
0.534757445214
0.534873042634
0.534986835365
0.535101147587
0.535216609156
0.53533258417
0.535448374345
0.535563661002
0.535678420089
0.535792721816
0.535906610708
0.536020136311
0.536133341984
0.536246279345
0.536359006981
0.536471610995
0.536584159574
0.536696700851
0.536809291634
0.536921926211
0.537034678444
0.537147863474
0.537261799171
0.537376990602
0.537494406637
0.537615133001
0.537740588701
0.537873155708
0.53801412269
0.538164092308
0.538324410193
0.538493968558
0.538669635838
0.538849034375
0.539028112531
0.539199455719
0.539364908272
0.539532213747
0.539724532741
0.539999209245
0.540436776137
0.502246698653
0.499866701335
0.499102598709
0.499337550478
0.499549519223
0.499660930133
0.499737777455
0.499809941196
0.499895503646
0.49999906582
0.50012292711
0.500264962543
0.500423657231
0.500595560709
0.500778707421
0.500969923952
0.501167656222
0.501369269394
0.50157374562
0.501779553469
0.501985937864
0.502191332732
0.50239576904
0.50259777249
0.502796673814
0.502991300997
0.503180850066
0.503363563231
0.503538438073
0.503703751389
0.503858404892
0.504000644209
0.504129726718
0.504244447201
0.50434418462
0.504428204974
0.504496717606
0.504549233638
0.504586403674
0.504608627388
0.504617094047
0.504612859001
0.50459769286
0.504573281476
0.504541787262
0.504505082403
0.504465637585
0.504425572422
0.50438713478
0.504353162542
0.504329590385
0.504319354438
0.504328247634
0.50436308104
0.504429990094
0.504534683402
0.504680417302
0.504864357538
0.505085288027
0.505341848135
0.505633295268
0.505957303699
0.506315349896
0.506711930827
0.507153252385
0.507643953962
0.508189744922
0.508794911305
0.5094588167
0.510176822891
0.510945014821
0.511759488648
0.512606279987
0.513470129951
0.514346945015
0.515229722705
0.516102545076
0.516958785847
0.517807288362
0.51863038563
0.519418899739
0.520158968461
0.52084737985
0.521510931697
0.522140508115
0.522726585862
0.523266236196
0.523763050282
0.524254691496
0.524763663394
0.525266621877
0.525792761362
0.526341241916
0.526852984983
0.527314308622
0.527688989661
0.52795746608
0.528145432638
0.528266030562
0.528343141901
0.528420418442
0.528534741302
0.528704516178
0.528923922819
0.529188254674
0.529495127518
0.529831092545
0.530177808505
0.530516548287
0.530835625881
0.531129984068
0.531398958728
0.531644678764
0.531870303622
0.532079180233
0.532274616431
0.532459237676
0.532634440601
0.532800162161
0.532955837631
0.533102223189
0.533241677005
0.533376601241
0.533508192902
0.533636743493
0.533762173531
0.533884429857
0.534003595392
0.534119945701
0.534233899809
0.534345963936
0.53445665706
0.534566473251
0.534676010578
0.53478598714
0.534897022198
0.535008859043
0.535119842427
0.535227546025
0.535329997935
0.535427865588
0.535523734219
0.53561992116
0.535717054584
0.535814683286
0.535912322692
0.536009752054
0.536107011852
0.536204117776
0.536301093507
0.53639790239
0.536494571313
0.536591119966
0.536687643927
0.536784241313
0.536881038642
0.536978130462
0.537075653549
0.53717369967
0.537272463617
0.537372360662
0.537473809842
0.537577434879
0.537684284309
0.537795544765
0.537912613238
0.538037700487
0.538171996217
0.538316142735
0.538471375948
0.538636785181
0.538809694475
0.538988726612
0.539171431114
0.539352779779
0.539536449574
0.539732328346
0.539964803162
0.540285185658
0.540754666295
0.502354542069
0.498653137328
0.498347507593
0.499092955694
0.499441304938
0.499616165444
0.499742503267
0.499860441685
0.499989463888
0.500133912777
0.500296602418
0.50047473519
0.50066783709
0.500872523589
0.501087660539
0.501310220889
0.501539080887
0.501771846893
0.502007857131
0.50224501501
0.502483055217
0.502720536933
0.502956777258
0.503190641096
0.50342188976
0.503648804574
0.503870744072
0.504086233808
0.50429430885
0.504493312329
0.504682286989
0.50485986913
0.505025205578
0.505177101959
0.505315438221
0.505439379983
0.505548985441
0.505644172356
0.505725562732
0.505793484143
0.505849176232
0.505893585975
0.505928259041
0.505954517722
0.505973883978
0.505987481532
0.505996428341
0.506001512802
0.506003651694
0.506004043463
0.506007325936
0.506019046571
0.506046619428
0.506101285416
0.506194315259
0.506335323969
0.506524840115
0.506757006847
0.507028440103
0.507334639999
0.507668814643
0.508023945573
0.508400658504
0.508806459043
0.509250648296
0.509741340045
0.510286362349
0.510894390322
0.511568126356
0.512298581216
0.513077028803
0.513902803979
0.514764069271
0.515632933212
0.516522676444
0.517418047536
0.518295258665
0.519145790346
0.519957263593
0.520724415311
0.521468357107
0.522177058499
0.52283967918
0.523456458222
0.524024513764
0.524551685292
0.525058183624
0.525569713549
0.526100736799
0.526634888253
0.527152360265
0.527658206532
0.528120905137
0.528508983263
0.528823591041
0.52905921813
0.529228970068
0.529359386163
0.529466988046
0.529570403118
0.529689947916
0.529838505967
0.530020579593
0.5302338212
0.530476988918
0.530747379057
0.531036322551
0.531332336185
0.531623870043
0.531902604605
0.532163796597
0.532405672983
0.532628647205
0.532834339753
0.533025060796
0.533203367619
0.533371255599
0.533529685259
0.533678475556
0.533817328119
0.533947292465
0.534070573558
0.534189222732
0.534304354706
0.53441634752
0.534525226312
0.534630996124
0.534733757091
0.534833777372
0.534931449793
0.535027262496
0.535121708597
0.535215328342
0.535308778968
0.535402900755
0.535498236797
0.535594249273
0.535689062835
0.535780107158
0.535865839089
0.535947146072
0.536026476709
0.536105895147
0.536185978842
0.536266480178
0.536347062408
0.536427661871
0.536508350762
0.536589173554
0.53667011579
0.536751111423
0.536832147451
0.536913233941
0.536994470788
0.537075979543
0.537157923549
0.5372404499
0.537323759498