/*--------------------------------*- C++ -*----------------------------------*\
| =========                 |                                                 |
| \\      /  F ield         | OpenFOAM: The Open Source CFD Toolbox           |
|  \\    /   O peration     | Version:  v1806                                 |
|   \\  /    A nd           | Web:      www.OpenFOAM.com                      |
|    \\/     M anipulation  |                                                 |
\*---------------------------------------------------------------------------*/
FoamFile
{
    version     2.0;
    format      ascii;
    class       volVectorField;
    location    "7";
    object      Ua;
}
// * * * * * * * * * * * * * * * * * * * * * * * * * * * * * * * * * * * * * //

dimensions      [0 1 -1 0 0 0 0];


internalField   nonuniform List<vector> 
12225
(
(-0.770904419345 35.7770219835 0)
(0.947210557904 7.65933718233 0)
(0.385068205718 6.75437878107 0)
(0.523167713791 6.79906920378 0)
(0.540972126224 6.88432171253 0)
(0.584517117475 7.09074440589 0)
(0.626532939215 7.36126164256 0)
(0.659198434048 7.67909803702 0)
(0.677536506378 8.0090324394 0)
(0.69368695107 8.35008778815 0)
(0.725590237024 8.71165515057 0)
(0.772446952938 9.04752689032 0)
(0.850062103255 9.3158325507 0)
(0.99300324325 9.46761471313 0)
(1.25537007219 9.32126545563 0)
(1.71765884527 8.59544608087 0)
(2.37758516814 6.83997461332 0)
(2.71143680721 3.3646981568 0)
(2.72637351034 -33.9250684409 0)
(0.877368730892 -5.38001449347 0)
(0.862750254121 -4.40057787769 0)
(0.824507480957 -4.47287749945 0)
(0.782078182834 -4.50195334753 0)
(0.773685907076 -4.63298001321 0)
(0.771136375032 -4.82185528278 0)
(0.789169920823 -5.03555048244 0)
(0.827166379517 -5.22624312267 0)
(0.892055872366 -5.35621778244 0)
(0.98707130397 -5.40716775836 0)
(1.10348767437 -5.36277235089 0)
(1.24770383285 -5.19516823558 0)
(1.43571451509 -4.88963457835 0)
(1.68494087152 -4.42961200784 0)
(1.99956215934 -3.83182033112 0)
(2.30327676313 -3.19555521155 0)
(2.20684916459 -2.6977388782 0)
(-0.40885705745 21.2245322709 0)
(0.550527202941 3.32233196857 0)
(0.703122560243 2.92973504635 0)
(0.627818553209 2.62942377918 0)
(0.632639832371 2.44952087679 0)
(0.631507559398 2.29696461934 0)
(0.642183209082 2.18882460867 0)
(0.658641233359 2.10058220184 0)
(0.679777412587 2.01243688851 0)
(0.709514061582 1.90132064428 0)
(0.7529287851 1.74669602281 0)
(0.813402032757 1.53858690276 0)
(0.901978828868 1.28206210376 0)
(1.03376825885 0.977245194573 0)
(1.22524508555 0.615728088156 0)
(1.47475470758 0.180012805772 0)
(1.69766109267 -0.381463241815 0)
(1.62739027638 -1.1059182412 0)
(1.01226085086 -7.70646595218 0)
(0.939444365265 -1.45956193855 0)
(0.824426670228 -1.54802009889 0)
(0.832541024353 -1.31639606633 0)
(0.814029108966 -1.17626927461 0)
(0.812362192081 -1.02318268636 0)
(0.811410765295 -0.888402170923 0)
(0.815603413881 -0.763506598441 0)
(0.822832465462 -0.646474962353 0)
(0.837366572053 -0.533237162061 0)
(0.863278962111 -0.422551686026 0)
(0.90506115975 -0.31784884199 0)
(0.971728288601 -0.223506412326 0)
(1.07278659074 -0.154178622694 0)
(1.2142842188 -0.137892201712 0)
(1.38085635539 -0.224178943886 0)
(1.49168007086 -0.481904323133 0)
(1.38906143434 -0.913236251783 0)
(0.806444921613 1.95616916296 0)
(0.870474545208 0.50031324808 0)
(0.864933042121 0.473061502009 0)
(0.849693989004 0.352222349122 0)
(0.838336727116 0.260586389436 0)
(0.834593077663 0.171641059364 0)
(0.833017421368 0.0889523438508 0)
(0.836914484076 0.0158442689609 0)
(0.844831208311 -0.0446281571356 0)
(0.860710382161 -0.0891629820291 0)
(0.887605677887 -0.117301475478 0)
(0.929314141162 -0.132825819742 0)
(0.991973834668 -0.141520120351 0)
(1.0808757352 -0.157694595698 0)
(1.19450597192 -0.20473932335 0)
(1.30934795341 -0.320170140734 0)
(1.35864576871 -0.541919769452 0)
(1.25870611258 -0.835245786629 0)
(0.954779747983 0.00598536964162 0)
(0.936276769378 0.0512410155126 0)
(0.919294617876 0.00698928718211 0)
(0.909899983871 -0.0103498219631 0)
(0.896011827921 -0.0347389196395 0)
(0.890339948723 -0.0546790625512 0)
(0.885194492006 -0.0757213516066 0)
(0.885462583934 -0.094746916109 0)
(0.889673437293 -0.110605177678 0)
(0.901647510423 -0.121768348537 0)
(0.923869697892 -0.1288771157 0)
(0.959634773885 -0.135637833681 0)
(1.01286293242 -0.146830480846 0)
(1.0855053944 -0.173625017896 0)
(1.17105167752 -0.23393732544 0)
(1.24440068302 -0.351489098843 0)
(1.25756471064 -0.537796410156 0)
(1.17150924942 -0.746412523873 0)
(1.01869576863 0.278563342859 0)
(0.962919765923 0.0613411999084 0)
(0.960608611848 0.0265762048017 0)
(0.952384256652 -0.00642373495439 0)
(0.939924933041 -0.0364647639162 0)
(0.934516864799 -0.061022281982 0)
(0.928534562616 -0.0836070343866 0)
(0.927634013978 -0.102396125467 0)
(0.930175466239 -0.11722498139 0)
(0.939714036168 -0.12790937202 0)
(0.95815534142 -0.136152611328 0)
(0.988089211654 -0.146195015604 0)
(1.03151521896 -0.16313489891 0)
(1.08774976297 -0.196752842884 0)
(1.14779769814 -0.260902096857 0)
(1.18952138636 -0.368960709767 0)
(1.18214230891 -0.518268274748 0)
(1.11036810795 -0.668958335561 0)
(1.06836336276 0.26923564916 0)
(0.985993739565 0.0517050722408 0)
(0.993309070121 0.0180280410458 0)
(0.98702372345 -0.0117686286559 0)
(0.976150590762 -0.0392797422752 0)
(0.971594006191 -0.0621273042535 0)
(0.965583951194 -0.0830601689114 0)
(0.964331328307 -0.100778157905 0)
(0.965917136713 -0.115474348201 0)
(0.973577407267 -0.127522673024 0)
(0.988621933625 -0.138824786629 0)
(1.01286306418 -0.153429636569 0)
(1.04666935341 -0.176031257349 0)
(1.08760608062 -0.21449239634 0)
(1.12624309456 -0.278303779569 0)
(1.14529138579 -0.373214398425 0)
(1.12682670152 -0.490870102354 0)
(1.06676059673 -0.602722118329 0)
(1.1006987906 0.262353303767 0)
(1.00308274301 0.0452643593643 0)
(1.01860445123 0.0134119348998 0)
(1.01437876018 -0.0137856940661 0)
(1.005353837 -0.0394564782207 0)
(1.00207336355 -0.0611594517998 0)
(0.996614063303 -0.0811701282953 0)
(0.995545363449 -0.0986116477218 0)
(0.996623725404 -0.113971288942 0)
(1.00276423196 -0.127950793854 0)
(1.01471012693 -0.142428077078 0)
(1.03349439008 -0.161061959085 0)
(1.0582923009 -0.187830118247 0)
(1.08576967205 -0.22855218877 0)
(1.10739333461 -0.288946599555 0)
(1.11084434511 -0.369969554249 0)
(1.08663816949 -0.462434923966 0)
(1.03540634711 -0.547683399399 0)
(1.12150296871 0.252382048314 0)
(1.01655101595 0.0396032994872 0)
(1.03799530145 0.00889021748742 0)
(1.03610360384 -0.0150660675078 0)
(1.02880213041 -0.0390686512218 0)
(1.0269919968 -0.0597182576238 0)
(1.02233195912 -0.0791897567517 0)
(1.02165691599 -0.0968378498505 0)
(1.02237878301 -0.11327268617 0)
(1.02712965496 -0.129260601665 0)
(1.03612226446 -0.146523693363 0)
(1.04974531597 -0.168239084304 0)
(1.06640717043 -0.197571930434 0)
(1.08257579787 -0.238444501748 0)
(1.09130344102 -0.293667425688 0)
(1.08445729315 -0.36170567688 0)
(1.05760301715 -0.434674573479 0)
(1.01286394749 -0.500976001482 0)
(1.13415380139 0.249053485824 0)
(1.02773900265 0.038191293391 0)
(1.05115671785 0.0029667558154 0)
(1.05193246774 -0.0168675477173 0)
(1.04618956079 -0.0404062396997 0)
(1.0459514664 -0.0604364270859 0)
(1.04216493122 -0.0801486125141 0)
(1.04195695883 -0.0986226056588 0)
(1.04242160599 -0.116500165613 0)
(1.04592305771 -0.13447850534 0)
(1.05217690976 -0.154139500492 0)
(1.06105931493 -0.178075355683 0)
(1.07063253315 -0.208594299074 0)
(1.07771501381 -0.24801706059 0)
(1.07710134285 -0.29721459752 0)
(1.06376544429 -0.353755041437 0)
(1.03603334059 -0.411625687292 0)
(0.996426617438 -0.463728409751 0)
(1.12347977471 0.225376167989 0)
(1.03574248879 0.0354128529777 0)
(1.05245575544 -0.00225179126053 0)
(1.05754819855 -0.0181735134592 0)
(1.05235871866 -0.0406294075915 0)
(1.05370041122 -0.0595484109773 0)
(1.05062116768 -0.0787251873824 0)
(1.05094744731 -0.0972523883777 0)
(1.05130615474 -0.115869321877 0)
(1.05381326315 -0.13521729569 0)
(1.05781642126 -0.156562771635 0)
(1.06298630319 -0.181831930169 0)
(1.06734259468 -0.212699799858 0)
(1.06822778842 -0.250279768479 0)
(1.06186459647 -0.294354476742 0)
(1.04519133702 -0.342377513158 0)
(1.01790562645 -0.389864726676 0)
(0.98231392838 -0.432349234892 0)
(1.10450350421 0.20750013056 0)
(1.03990567416 0.0307186665258 0)
(1.04812112698 -0.00505010184466 0)
(1.05702914296 -0.0194046055465 0)
(1.05215876994 -0.0408583168382 0)
(1.05498892353 -0.0591287144507 0)
(1.05259818769 -0.0778037918634 0)
(1.05331719462 -0.0960882219149 0)
(1.05345082729 -0.114800130352 0)
(1.05501539724 -0.134542315224 0)
(1.05710838183 -0.156309411385 0)
(1.05915281152 -0.181629080807 0)
(1.05928697346 -0.211494632727 0)
(1.05553067229 -0.246334624198 0)
(1.04528037533 -0.285414505415 0)
(1.02686218645 -0.326420322314 0)
(1.00065563548 -0.36612123714 0)
(0.968883871189 -0.401438738157 0)
(1.08167547113 0.18425985807 0)
(1.04115760015 0.0273675292619 0)
(1.0396609089 -0.00777024470294 0)
(1.05285133181 -0.0210260456046 0)
(1.04760498082 -0.0422052700198 0)
(1.05177794116 -0.0604061134595 0)
(1.04987921962 -0.0793375261824 0)
(1.05096475839 -0.0979416537564 0)
(1.05081568254 -0.116954994287 0)
(1.0513258844 -0.136886928098 0)
(1.05131436655 -0.158636223058 0)
(1.05029516795 -0.183194009429 0)
(1.04668915021 -0.211055850666 0)
(1.03909025372 -0.242133590845 0)
(1.02599280589 -0.275573565578 0)
(1.00667263588 -0.309565455104 0)
(0.982076245958 -0.341959164046 0)
(0.954042091401 -0.370764747168 0)
(1.05462882369 0.157957011084 0)
(1.04330899986 0.0251136103876 0)
(1.03014298517 -0.0067300459348 0)
(1.04814048832 -0.0190453478662 0)
(1.04206093228 -0.0389594015327 0)
(1.04747226209 -0.0564748784694 0)
(1.04577749982 -0.0750148250264 0)
(1.04696744849 -0.0935382527681 0)
(1.04625477896 -0.112643212892 0)
(1.04541384234 -0.132654972314 0)
(1.04327548852 -0.154079081734 0)
(1.0394134929 -0.17747141014 0)
(1.03255844488 -0.202949558282 0)
(1.02199652293 -0.230135282876 0)
(1.00696553689 -0.258200390022 0)
(0.987448237512 -0.285947081146 0)
(0.96455505924 -0.311926370012 0)
(0.939978791257 -0.335237498571 0)
(1.02657478389 0.133709185196 0)
(1.04350455883 0.020853598149 0)
(1.0191128243 -0.00602377090442 0)
(1.04166548699 -0.0182537388214 0)
(1.03443251322 -0.0367847501417 0)
(1.04075037018 -0.0536307381404 0)
(1.03889817889 -0.0716090130928 0)
(1.03987474278 -0.0898102407465 0)
(1.03833127082 -0.108677068888 0)
(1.03617197105 -0.128304131028 0)
(1.0321119545 -0.148841266481 0)
(1.02597086718 -0.170559006908 0)
(1.01686036688 -0.193208019541 0)
(1.00450390207 -0.216362278156 0)
(0.988658320121 -0.23937429897 0)
(0.969735630587 -0.261445113784 0)
(0.948801403001 -0.281825201832 0)
(0.927324636559 -0.300071969672 0)
(1.00281239047 0.120616239461 0)
(1.04113989012 0.0139093419618 0)
(1.0072176183 -0.00815096868594 0)
(1.03312738525 -0.0201106851194 0)
(1.02454985472 -0.0367951651357 0)
(1.03133169971 -0.0524104206324 0)
(1.02891141598 -0.0690526229855 0)
(1.02927318388 -0.0860337121517 0)
(1.02665961591 -0.10363550954 0)
(1.02309833842 -0.121774197482 0)
(1.01743868628 -0.14043689578 0)
(1.00970756902 -0.159552813943 0)
(0.999296189249 -0.178868366652 0)
(0.986199972784 -0.197910897934 0)
(0.970541777207 -0.216274444149 0)
(0.952828673207 -0.233411577939 0)
(0.934078171804 -0.249066139208 0)
(0.915415236119 -0.263014958303 0)
(0.976628776038 0.107747073024 0)
(1.03738887412 0.00590698214662 0)
(0.994245643643 -0.0113649805648 0)
(1.0228757041 -0.0232840239614 0)
(1.01281770636 -0.0378513001378 0)
(1.01961006673 -0.0519161858825 0)
(1.01629743885 -0.0666723934943 0)
(1.01572957352 -0.0816697858446 0)
(1.01187366533 -0.097054809301 0)
(1.00699996635 -0.112669779176 0)
(1.0000781148 -0.12838834643 0)
(0.991323300522 -0.144111570126 0)
(0.98033053126 -0.159586726892 0)
(0.967278944049 -0.174461041793 0)
(0.952440308608 -0.188465732501 0)
(0.936323471112 -0.201343495801 0)
(0.919799305864 -0.213003777906 0)
(0.903780303479 -0.223477562694 0)
(0.956869168794 0.115806147722 0)
(1.0304586746 -0.00649515274554 0)
(0.983612468708 -0.0139882272078 0)
(1.01268817414 -0.0265072317384 0)
(1.00167616784 -0.0377398408057 0)
(1.00797924021 -0.0496543198946 0)
(1.00377803813 -0.0616691747032 0)
(1.00230777461 -0.073908068256 0)
(0.99743735585 -0.086272730868 0)
(0.99163013922 -0.0986314290095 0)
(0.983952966694 -0.110856403565 0)
(0.974759749246 -0.122844179743 0)
(0.963777022287 -0.134408797292 0)
(0.951258715408 -0.145315934389 0)
(0.937514060269 -0.155441713167 0)
(0.922998861176 -0.164668199531 0)
(0.908427587258 -0.173022361788 0)
(0.894583277575 -0.180577268796 0)
(0.976925207954 0.127197830775 0)
(1.02204087488 -0.0147819235136 0)
(0.986688823193 -0.0149634433422 0)
(1.00960332837 -0.0270475767766 0)
(0.999222957339 -0.0352203683288 0)
(1.00373899198 -0.0449177638305 0)
(0.998555966039 -0.0543740394854 0)
(0.995832988842 -0.064060670475 0)
(0.989919104247 -0.0737275638593 0)
(0.983186359682 -0.0833214255036 0)
(0.974835731657 -0.0926623748197 0)
(0.965291764239 -0.101728753756 0)
(0.95430493236 -0.110328802615 0)
(0.942126318411 -0.118384583826 0)
(0.929067039359 -0.1257625077 0)
(0.915525754914 -0.13252318101 0)
(0.902156832569 -0.138602486361 0)
(0.889671723009 -0.144207772099 0)
(0.992982680439 0.127380644926 0)
(1.0180122784 -0.0169859438312 0)
(0.992555225746 -0.0158932969139 0)
(1.01100687047 -0.0263596028749 0)
(1.00115370623 -0.0324140158 0)
(1.00430282932 -0.0400454240082 0)
(0.998474055693 -0.0472835328988 0)
(0.995014148724 -0.0547969215797 0)
(0.988494371077 -0.0622453251241 0)
(0.981322947981 -0.069586385559 0)
(0.972701522448 -0.076707692375 0)
(0.963099428862 -0.0835675478902 0)
(0.952234125159 -0.090025943683 0)
(0.940398243528 -0.096032506365 0)
(0.927801996822 -0.101542045284 0)
(0.9149024621 -0.106593901957 0)
(0.902217029577 -0.111190677236 0)
(0.890486679796 -0.115482274731 0)
(1.005725211 0.128015798299 0)
(1.01692873398 -0.0218808163534 0)
(0.999027784844 -0.0181579673246 0)
(1.01401521562 -0.0269226580719 0)
(1.00504101722 -0.0309577907116 0)
(1.00715739799 -0.036611959343 0)
(1.00090206346 -0.0419908260746 0)
(0.996786385684 -0.0475941958614 0)
(0.989905992381 -0.0532210463966 0)
(0.98242812589 -0.0588296729944 0)
(0.973658481883 -0.0642781842589 0)
(0.964103908648 -0.0695318592112 0)
(0.953451193418 -0.0744941787166 0)
(0.941901652439 -0.0790998850121 0)
(0.929710007102 -0.0833436519472 0)
(0.91727523487 -0.0871828961577 0)
(0.905097300086 -0.0907496936217 0)
(0.89383293593 -0.0940086049949 0)
(1.02713917806 0.129533909758 0)
(1.01655600805 -0.0177750567468 0)
(1.00783894415 -0.00948357679065 0)
(1.01909241813 -0.0177250986997 0)
(1.01086050584 -0.0195989050542 0)
(1.01195033766 -0.0237669906225 0)
(1.00532983749 -0.0275405119898 0)
(1.00082505212 -0.0317805305459 0)
(0.99354762995 -0.0361304431293 0)
(0.985847410822 -0.0405045489717 0)
(0.976997717627 -0.044843942327 0)
(0.9674434686 -0.0490039725117 0)
(0.956897583883 -0.0529929617969 0)
(0.945568230665 -0.0566673705713 0)
(0.933702774564 -0.060048121037 0)
(0.921597328671 -0.0631133145472 0)
(0.909785989051 -0.0659027459103 0)
(0.898746464528 -0.0685143145447 0)
(1.04345026309 -0.0169224083305 0)
(1.01398632768 -0.087134633037 0)
(1.01793074075 -0.0762175248656 0)
(1.02515570689 -0.0819197147909 0)
(1.01837337917 -0.0804670977235 0)
(1.01844832548 -0.0823105716935 0)
(1.0115731124 -0.0837940494875 0)
(1.00649559902 -0.0858814374101 0)
(0.999042985788 -0.0880622352259 0)
(0.991180533238 -0.0903064568674 0)
(0.982337850962 -0.0924463810656 0)
(0.972954537961 -0.0944082098315 0)
(0.96266791355 -0.0960439997806 0)
(0.951691783782 -0.0974245969443 0)
(0.940223030032 -0.0983620290527 0)
(0.928641268784 -0.098918099134 0)
(0.917324655184 -0.0991437327339 0)
(0.907311551433 -0.0993279590407 0)
(1.08154898727 0.826963520783 0)
(1.02260334925 0.277017133084 0)
(1.02538029923 0.306944217066 0)
(1.03032057415 0.286615292244 0)
(1.02399284333 0.283297077299 0)
(1.02269502865 0.27434527716 0)
(1.01548006239 0.266853365469 0)
(1.01008191009 0.259001143831 0)
(1.00235853995 0.25132557616 0)
(0.994385422353 0.243545687647 0)
(0.985338691827 0.235631356451 0)
(0.975816080484 0.227136784031 0)
(0.965485889875 0.218070493255 0)
(0.954528753881 0.208860125162 0)
(0.943122150562 0.199590968771 0)
(0.93133032591 0.190244714335 0)
(0.919347154811 0.180744295523 0)
(0.906316358512 0.171292533933 0)
(0.944225850299 -3.36967646389 0)
(0.973303481774 -1.29565756058 0)
(1.05306117213 -1.29915050866 0)
(1.04336846171 -1.2441116578 0)
(1.04235465535 -1.20234966386 0)
(1.04007136073 -1.16713625749 0)
(1.03399885471 -1.13437699288 0)
(1.0292054097 -1.10505034791 0)
(1.02239048429 -1.07744623342 0)
(1.01522208478 -1.05118219741 0)
(1.00745889875 -1.02576566704 0)
(0.99907767052 -0.999869752074 0)
(0.989857745167 -0.972993186495 0)
(0.980341202885 -0.945123769038 0)
(0.970746526189 -0.915943122157 0)
(0.961276991744 -0.885051848154 0)
(0.952567974913 -0.852670013009 0)
(0.948155209893 -0.820251555923 0)
(1.58063378205 12.2725351241 0)
(1.14576187153 3.46633168157 0)
(1.02256996904 3.56371416912 0)
(1.04559466589 3.36301777594 0)
(1.03032015942 3.25723666141 0)
(1.0239779776 3.13028009573 0)
(1.01303255104 3.01727402597 0)
(1.00385022928 2.90860121572 0)
(0.993117729621 2.80537651576 0)
(0.982195928958 2.70617601954 0)
(0.969898192364 2.61054280955 0)
(0.95813805993 2.51716036121 0)
(0.946805237801 2.42713078729 0)
(0.935396451982 2.34050665657 0)
(0.923784098208 2.25701263074 0)
(0.911765473308 2.17639674861 0)
(0.898043875234 2.09793511127 0)
(0.88157479956 2.01985549113 0)
(-0.655525697065 -29.5626013024 0)
(0.738079726434 -7.06183447228 0)
(1.13905981822 -6.59311427221 0)
(1.05449142272 -6.3026138517 0)
(1.07917659214 -6.05003040903 0)
(1.07338067066 -5.79608418893 0)
(1.07534159851 -5.55565687131 0)
(1.0760303557 -5.32096986822 0)
(1.07545993126 -5.09013018573 0)
(1.07442164173 -4.8635806747 0)
(1.07272857543 -4.64253693016 0)
(1.06973891164 -4.43110424299 0)
(1.06555780699 -4.23200374759 0)
(1.06020538712 -4.04472839095 0)
(1.05375484453 -3.87296922058 0)
(1.04543929876 -3.72142225112 0)
(1.03377754412 -3.59331351935 0)
(1.00970856204 -3.49012545032 0)
(3.94975755202 45.9480139883 0)
(0.99077482424 9.87693092744 0)
(1.16714701255 9.07179851112 0)
(1.1100541567 8.72483725858 0)
(1.09072013977 8.33717003004 0)
(1.08229957161 7.96316280714 0)
(1.06798533306 7.6038786686 0)
(1.05917759798 7.25116284882 0)
(1.05047657054 6.90439636661 0)
(1.0424189268 6.56491944452 0)
(1.03439496817 6.23520108821 0)
(1.0262714205 5.92151960948 0)
(1.01847318327 5.62482315326 0)
(1.01057894941 5.34391120666 0)
(1.00092342244 5.08424337769 0)
(0.989430428325 4.85356601612 0)
(0.976877737684 4.66032251314 0)
(0.975509748722 4.51356628586 0)
(0.160109294064 -47.8220522957 0)
(1.20315727049 -11.8882211242 0)
(0.894795785757 -11.1841566099 0)
(0.922654137264 -10.6369670723 0)
(0.924976147832 -10.166393331 0)
(0.919909894839 -9.71675074664 0)
(0.917783910042 -9.27965079809 0)
(0.910700950581 -8.855126099 0)
(0.900122311158 -8.43766048195 0)
(0.887262148152 -8.0309598309 0)
(0.872430936399 -7.63660429291 0)
(0.857082002274 -7.26041990531 0)
(0.839795464117 -6.90551028749 0)
(0.822311201445 -6.57223397892 0)
(0.808026192443 -6.26174582171 0)
(0.800355350118 -5.97298429975 0)
(0.80282587621 -5.69600188253 0)
(0.812001908482 -5.40431737767 0)
(0.0573522493612 0.0504310468412 -6.83548693031e-20)
(0.0473750332521 0.11795939314 0)
(0.216953083711 0.238608864835 0)
(0.154586884366 0.250953868242 0)
(0.0918000822297 0.242336102771 0)
(0.0425021695151 0.22848698354 1.87495501813e-20)
(0.00703378450105 0.213423793128 0)
(-0.0176524373215 0.197539613585 0)
(-0.03419023038 0.180482969283 -9.99656672302e-21)
(-0.044584750792 0.161985665184 0)
(-0.0502357979021 0.141888975199 7.17394030347e-21)
(-0.0521482557997 0.120161455165 0)
(-0.0511101778729 0.0968405076662 5.39337554654e-21)
(-0.0477176856439 0.0720203220854 4.75468117417e-21)
(-0.0424843076177 0.045800846723 0)
(-0.035806008698 0.0183104223151 -3.82204026935e-21)
(-0.0280375429289 -0.0103334987436 -3.48593348709e-21)
(-0.0194434946552 -0.0399905797867 -3.21631783573e-21)
(-0.0102476988865 -0.0705423171593 0)
(-0.000597262898203 -0.101846717218 0)
(0.00937727615098 -0.133777535601 0)
(0.019607366685 -0.166184258064 0)
(0.0300491530858 -0.198950957275 0)
(0.0406808310963 -0.231928982131 0)
(0.0514910470707 -0.265007662529 2.3898125786e-21)
(0.0624793279033 -0.298054888873 2.34784218201e-21)
(0.0736292048699 -0.330985902443 0)
(0.0849188009753 -0.3636875729 -2.27936138875e-21)
(0.0963242382311 -0.396107337597 -2.24849561734e-21)
(0.107805634817 -0.428165825209 -2.21890340345e-21)
(0.119312239778 -0.459838443551 0)
(0.130788709199 -0.491074561442 0)
(0.142189605305 -0.521884361489 2.12544165129e-21)
(0.15345720031 -0.552244638388 0)
(0.164542920573 -0.582181068529 0)
(0.17539932905 -0.611697179625 2.02520292408e-21)
(0.185993805465 -0.640841118673 0)
(0.196293255211 -0.669629956464 0)
(0.206289244971 -0.698127892401 0)
(0.215966080857 -0.726372964627 0)
(0.225327619385 -0.754442034188 0)
(0.234366775817 -0.782385445553 -3.64194567726e-21)
(0.243096149804 -0.810286212475 0)
(0.251515050228 -0.838201631678 0)
(0.259642097943 -0.866212831867 -3.44349993799e-21)
(0.267485092523 -0.894378058945 -3.37860934951e-21)
(0.275068946999 -0.922771608733 0)
(0.282409722043 -0.951449902446 0)
(0.289537860424 -0.980480066949 -3.18425342943e-21)
(0.296479567567 -1.00992298437 0)
(0.303281018906 -1.03986556221 3.05177636238e-21)
(0.309988523519 -1.0704247699 0)
(0.31664083202 -1.10174467701 -2.91135107827e-21)
(0.323248171675 -1.1339532256 0)
(0.329817965746 -1.16716574744 -2.75702966576e-21)
(0.336358717593 -1.20146972221 -2.67405119116e-21)
(0.34288118377 -1.23692773842 0)
(0.349381501753 -1.27356517117 0)
(0.355878389585 -1.3113788178 0)
(0.362351439537 -1.3502905603 -2.31060319968e-21)
(0.368623887199 -1.38997276485 0)
(0.374537105695 -1.42921289272 0)
(0.3803355358 -1.46420326647 0)
(0.386270059494 -1.49485332097 0)
(0.392487218779 -1.52173853537 0)
(0.399079955151 -1.5454032706 0)
(0.406104629026 -1.56630521502 0)
(0.413580355134 -1.58482578862 1.61305347047e-21)
(0.421510593109 -1.60124787773 0)
(0.429883927153 -1.61580400116 1.42187064212e-21)
(0.438690498499 -1.62866229905 1.31560014926e-21)
(0.447907601117 -1.63998059851 0)
(0.457526383217 -1.64988338702 -1.07459184356e-21)
(0.467531959424 -1.65852343438 0)
(0.477907727688 -1.66601281657 7.87996686188e-22)
(0.488622791611 -1.67249794321 0)
(0.499651542383 -1.67807637404 -4.45812583926e-22)
(0.510958634665 -1.68287218652 2.49497602216e-22)
(0.522524134317 -1.68694022033 0)
(0.534290419067 -1.69035847936 0)
(0.546183169083 -1.69307167132 0)
(0.55811584614 -1.69505594673 0)
(0.570014117578 -1.6961372502 -1.07184079289e-21)
(0.581750610342 -1.69614276624 1.42486920141e-21)
(0.59316070883 -1.69469578009 -3.62266075032e-21)
(0.604070078595 -1.69153562603 -4.47510201823e-21)
(0.614241789937 -1.68621208993 -5.40828287869e-21)
(0.623662557762 -1.67814684189 0)
(0.631925416818 -1.66700033496 0)
(0.639281331137 -1.65272178693 0)
(0.646066389982 -1.63596065776 -1.01914280003e-20)
(0.651996436581 -1.61559771023 0)
(0.656319687523 -1.5907179923 0)
(0.657897228693 -1.56235989169 -1.54139701418e-20)
(0.655866666213 -1.5309700543 0)
(0.648907189668 -1.49130388469 1.92894620936e-20)
(0.635802411482 -1.44079857376 0)
(0.62311980958 -1.38669661389 -2.28409546108e-20)
(0.621659227068 -1.33681114914 0)
(0.632766728624 -1.28769493058 0)
(0.635960597096 -1.2782951168 0)
(0.609125755702 -1.31278638524 -3.47475444364e-20)
(0.581501141808 -1.12941014819 0)
(0.610934338242 -0.648525769925 -6.01681313531e-20)
(0.678435548247 0.0580481137951 -1.02069868243e-19)
(1.03906259564 1.0385352812 0)
(0.866568806618 1.14464259774 0)
(0.803771127179 1.25697198838 0)
(0.749522077102 1.32785552576 -4.33306124093e-20)
(0.686624049905 1.33720415986 0)
(0.645750096973 1.32661825446 0)
(0.613015408263 1.31149501742 -2.99773757563e-20)
(0.587590028191 1.29775718854 -2.7306406905e-20)
(0.567588907424 1.286895614 0)
(0.551429496344 1.27880440922 2.32374462037e-20)
(0.538086495338 1.27306414818 2.16343344088e-20)
(0.526878652469 1.26917414291 -2.02276936878e-20)
(0.517373056258 1.26682032621 0)
(0.509230785819 1.26568303006 0)
(0.502147480086 1.2655999403 0)
(0.495831107365 1.26640602133 1.57635335328e-20)
(0.49005437954 1.26814144488 0)
(0.484692710375 1.27084160829 1.39604789045e-20)
(0.479646412913 1.27458778143 0)
(0.474892685043 1.27945303986 0)
(0.470401664304 1.28551281842 0)
(0.466134629257 1.29283454139 -1.07036862075e-20)
(0.462035257749 1.30148767727 -9.92196812861e-21)
(0.458043232374 1.3115338455 0)
(0.45409411819 1.32302401102 0)
(0.450124688135 1.33599094764 0)
(0.446073921109 1.35045034496 0)
(0.441885211215 1.36639631044 0)
(0.43751326582 1.38380903879 0)
(0.432918382826 1.40264214746 -9.93438782888e-21)
(0.428067906196 1.42283759911 0)
(0.422937452616 1.444324095 0)
(0.41752302306 1.46702767085 0)
(0.41180879374 1.49083427741 5.47913255704e-21)
(0.405749303939 1.51560707182 4.49682105159e-21)
(0.399235358766 1.5410879513 -3.56849261916e-21)
(0.392184780366 1.56700579581 -2.68190442534e-21)
(0.384480407597 1.59283337439 0)
(0.375996942865 1.61797867405 0)
(0.366596760155 1.64159402105 0)
(0.356135270508 1.66275205399 5.34438374737e-22)
(0.344479538627 1.68027878847 0)
(0.331526445098 1.69291837878 0)
(0.317216910942 1.69917427003 -2.59455570214e-21)
(0.301550770309 1.69748456252 0)
(0.284594533826 1.68608917552 -3.7359783369e-21)
(0.266485381497 1.66325180354 0)
(0.247442342904 1.62721715331 -4.61871636803e-21)
(0.2277588859 1.57643811583 0)
(0.20778798073 1.50954482447 0)
(0.18791482924 1.42564670589 0)
(0.168534130253 1.32437367992 0)
(0.1500192211 1.20617564561 0)
(0.132700723177 1.07236505212 0)
(0.116842794957 0.925339444297 0)
(0.102681072138 0.768541739793 0)
(0.0903504766646 0.606563598739 -3.57461563089e-21)
(0.0798470019374 0.444953269053 0)
(0.0710835354779 0.289962500859 0)
(0.0639864277112 0.148114056865 -1.4135755992e-21)
(0.0585051983661 0.0257659347197 0)
(0.0547212693667 -0.0715145402882 0)
(0.052820067271 -0.139092216378 5.54295049742e-22)
(0.0527036040354 -0.173563695708 0)
(0.0545305923151 -0.174863431276 0)
(0.058967743842 -0.146379368535 9.50239786457e-22)
(0.0665602683843 -0.0945126289825 -6.04196610826e-22)
(0.0772329254282 -0.0286994616767 1.36479127274e-22)
(0.0893009879698 0.0384529293157 0)
(0.101439815934 0.0965838355746 0)
(0.109531950271 0.139878422636 1.92235965148e-21)
(0.111243430878 0.16376174214 0)
(0.10325996546 0.178127033047 -1.4089239761e-20)
(0.0812876911432 0.20710318971 -2.37882511069e-20)
(0.0437748516281 0.302025112094 0)
(0.430021816706 0.112665030247 1.31084325076e-19)
(0.547288233581 0.250228072201 0)
(0.428062478268 0.298965695364 -3.66543516084e-20)
(0.269825669421 0.285033558177 3.01931708709e-20)
(0.149405727961 0.244055790505 2.59442860973e-20)
(0.0738017120162 0.198220004041 -1.00105312247e-20)
(0.0327903984142 0.155889714595 -1.90249829665e-20)
(0.0152536578333 0.119636396933 0)
(0.0126619370495 0.0898824299288 6.74883791454e-21)
(0.0191909537436 0.0664116775251 -1.18593296277e-20)
(0.0310585524735 0.0487941245239 -1.54689465074e-20)
(0.0458785699201 0.0365875435179 8.83423535922e-21)
(0.062154943485 0.0293119963649 -1.18815392649e-20)
(0.0789656569752 0.0265234645612 -3.773728611e-21)
(0.095728499664 0.0277582379358 0)
(0.112099381563 0.0326037093545 3.14405280616e-21)
(0.127859281994 0.0406355870223 2.91001035775e-21)
(0.142896503904 0.0514955769878 2.7201665149e-21)
(0.157145647411 0.0648138688812 -3.95533023109e-21)
(0.170592582417 0.0802898348908 0)
(0.183247445775 0.0976057349923 -3.41255917339e-21)
(0.195143953086 0.116511856622 0)
(0.206323808364 0.136731991658 3.05649226152e-21)
(0.21685354128 0.158054778833 0)
(0.226801202573 0.180235102916 -4.97189842437e-21)
(0.236230721139 0.203090314678 6.08082962142e-22)
(0.245212424757 0.226403426881 2.65635859828e-21)
(0.253815869213 0.250023266189 4.67395181442e-21)
(0.262103499792 0.273765708014 2.06774805646e-21)
(0.270125839831 0.297511613971 2.04978856383e-21)
(0.277930613837 0.321112739958 0)
(0.285554575989 0.344490630391 2.3342693853e-21)
(0.293030717568 0.367538488825 -1.98690684099e-21)
(0.300379451153 0.390215204129 0)
(0.307620621932 0.41245543075 0)
(0.314761018714 0.43425854138 -1.91204739652e-21)
(0.321811959046 0.455599720574 0)
(0.328774725961 0.476514364443 0)
(0.335655996548 0.497012328556 0)
(0.34245185518 0.51715641191 0)
(0.349164986244 0.536983682977 0)
(0.355784619828 0.556575908596 2.86604076976e-22)
(0.362306255985 0.575989399778 -3.05335666811e-21)
(0.368714134426 0.595315036794 0)
(0.374998980655 0.614619143467 5.95807064203e-22)
(0.381143852891 0.633991915357 3.28043850145e-21)
(0.387138250063 0.653499893531 0)
(0.392966603269 0.67322343309 0)
(0.398618804388 0.693220545997 5.22275054824e-21)
(0.404080093258 0.713555123953 1.94310610186e-21)
(0.409324553903 0.734266799646 -3.00876743651e-21)
(0.414328834312 0.755393474638 -1.62186918222e-21)
(0.419101366285 0.776957150213 1.42882943562e-21)
(0.42365528861 0.799001231983 0)
(0.428001139372 0.82159275716 3.87890239895e-21)
(0.432136420032 0.84482518444 2.67901244276e-21)
(0.436037405887 0.868805623308 0)
(0.439644789109 0.89366627214 -5.76973285438e-22)
(0.442875245381 0.919588088486 3.76954783409e-22)
(0.445694309085 0.946791163452 2.34455696846e-21)
(0.44814830465 0.975229109653 0)
(0.450139621628 1.0028387531 0)
(0.45123663411 1.02361199384 0)
(0.451294217083 1.03824590181 8.56159496645e-22)
(0.450483659991 1.04794862038 0)
(0.44899573167 1.05361659041 -1.48081179024e-21)
(0.447029469274 1.05589847706 0)
(0.444774582957 1.05521800772 -3.81228451422e-21)
(0.442405311615 1.05187900127 0)
(0.440066945848 1.0460849904 -4.38689593307e-21)
(0.437878927153 1.03804727995 -4.6992191314e-21)
(0.435933481027 1.0279710233 0)
(0.434297818206 1.01614824993 1.08608169896e-21)
(0.433017637814 1.00289340522 0)
(0.432124996921 0.988625727152 -7.9550952306e-22)
(0.43162589557 0.973756429733 0)
(0.431520683562 0.958777471143 4.50023056951e-22)