/*--------------------------------*- C++ -*----------------------------------*\
| =========                 |                                                 |
| \\      /  F ield         | OpenFOAM: The Open Source CFD Toolbox           |
|  \\    /   O peration     | Version:  v1806                                 |
|   \\  /    A nd           | Web:      www.OpenFOAM.com                      |
|    \\/     M anipulation  |                                                 |
\*---------------------------------------------------------------------------*/
FoamFile
{
    version     2.0;
    format      ascii;
    class       volScalarField;
    location    "13";
    object      p;
}
// * * * * * * * * * * * * * * * * * * * * * * * * * * * * * * * * * * * * * //

dimensions      [0 2 -2 0 0 0 0];


internalField   nonuniform List<scalar> 
12225
(
-3.39718234509
-4.14715886749
-4.40054337013
-4.47106465021
-4.53037428924
-4.59216983652
-4.64028851895
-4.66889359569
-4.68007127131
-4.67662612498
-4.6592530483
-4.62668206822
-4.57651047585
-4.50561751778
-4.40993933156
-4.28368015251
-4.11643298125
-3.89300303002
-3.5703558034
-4.15880029303
-4.40474844835
-4.47973607889
-4.53810774975
-4.59795564856
-4.64494032688
-4.67312723258
-4.68422649576
-4.68084458933
-4.66363869054
-4.63137797253
-4.58173094723
-4.51168651789
-4.4173969765
-4.29365730139
-4.13282564461
-3.94643559198
-3.71275250401
-4.14623773579
-4.38998980095
-4.47896227758
-4.54016133516
-4.59934281768
-4.64629346763
-4.6753041232
-4.68753677999
-4.68532971283
-4.6693794124
-4.63864983822
-4.5910800314
-4.52404460366
-4.43439288995
-4.31845964304
-4.17241568286
-4.00751544439
-3.83680095345
-4.15826137765
-4.39240901637
-4.49188688123
-4.55368487452
-4.61002603549
-4.65547031782
-4.68451568487
-4.69748436346
-4.69627304377
-4.68159393596
-4.65266148278
-4.60777654938
-4.54482295545
-4.46150476734
-4.35571518843
-4.22644307558
-4.08268896371
-3.94695795352
-4.18491179666
-4.3974756557
-4.50120449953
-4.56300302438
-4.61683794919
-4.66124727412
-4.69094220542
-4.70534269676
-4.7058600962
-4.69324538896
-4.66702612829
-4.62594067751
-4.56845432777
-4.49314809549
-4.39926923519
-4.287721292
-4.16597234707
-4.04534930893
-4.22150317809
-4.40804663589
-4.51299234103
-4.57609814736
-4.62871877251
-4.67254397832
-4.70298708121
-4.71890407346
-4.7213411192
-4.71113248256
-4.68815047654
-4.65159953687
-4.60053603216
-4.53435032757
-4.45337300146
-4.35974470044
-4.26022568801
-4.13398050615
-4.2649266682
-4.42472344469
-4.52736248359
-4.59122377997
-4.64253138315
-4.68527620181
-4.71599435445
-4.73328751724
-4.73786612514
-4.73057652498
-4.71156994903
-4.68047542332
-4.63689239912
-4.58090076736
-4.5136302015
-4.4379163924
-4.35990359968
-4.21459935716
-4.31273846155
-4.44729061894
-4.54475731704
-4.60864982722
-4.65898000228
-4.70093834819
-4.73223468147
-4.75140064151
-4.75881609712
-4.75526838756
-4.74113168996
-4.71642778257
-4.68125286694
-4.63625411892
-4.58310734405
-4.52495690857
-4.46728911149
-4.28867971641
-4.36314612105
-4.47521529582
-4.56558580571
-4.6286514339
-4.67822566681
-4.7196462195
-4.75164592344
-4.77285854754
-4.78341715857
-4.78404324084
-4.77530519999
-4.75758270387
-4.7314011049
-4.69783509743
-4.65887284426
-4.61767018652
-4.57892009133
-4.35744636971
-4.41489330106
-4.50777961281
-4.59006934971
-4.65147921586
-4.70041586349
-4.74159684329
-4.77452640432
-4.7980649202
-4.8121996936
-4.81758784243
-4.81494206707
-4.80492668906
-4.78839194418
-4.76668639942
-4.7419108288
-4.71703993045
-4.69597091723
-4.42188477629
-4.46710924397
-4.54416107429
-4.61820453366
-4.67733007907
-4.72570383179
-4.76698164575
-4.80114225793
-4.82731882055
-4.84543762773
-4.85609538624
-4.86009366309
-4.85829735922
-4.85177462678
-4.84201440551
-4.83108425952
-4.82166476607
-4.81686157818
-4.47776692487
-4.51499399152
-4.58035436009
-4.6472015366
-4.70388376574
-4.75179911765
-4.79348159816
-4.82908875361
-4.85799026906
-4.88011503899
-4.89601332863
-4.90652194044
-4.91261391516
-4.91546480499
-4.91659143495
-4.91794028713
-4.92188151332
-4.93089831548
-4.53084382309
-4.56214565661
-4.6180861104
-4.67844376166
-4.73262979647
-4.78016297098
-4.82251111949
-4.85984050023
-4.89171195988
-4.9180851168
-4.93947090676
-4.95670821022
-4.97081643679
-4.98300663311
-4.99475332619
-5.00782883697
-5.02427583785
-5.04597560305
-4.58868830834
-4.61514359713
-4.66285521761
-4.71697485652
-4.76852185605
-4.81579200438
-4.8592512855
-4.89893763403
-4.93455301319
-4.96609956028
-4.99404861035
-5.01920131728
-5.04256226583
-5.06530131435
-5.08877323283
-5.11450613718
-5.14417455332
-5.17906794637
-4.65098772485
-4.6737574259
-4.71483918171
-4.76353723087
-4.81268829445
-4.86002251139
-4.90520456151
-4.94805529119
-4.98833981058
-5.02609153913
-5.06172587084
-5.09596627177
-5.12972405066
-5.1640481678
-5.20009219651
-5.23908912279
-5.28232322981
-5.33052453003
-4.71699714167
-4.73724640516
-4.77359345691
-4.81828974366
-4.86585623136
-4.9139508504
-4.96171379116
-5.00872576542
-5.05473987213
-5.09977655296
-5.14417475809
-5.18852273651
-5.2335757177
-5.28017872298
-5.32922956256
-5.38163111762
-5.43828934084
-5.49942426489
-4.7850534907
-4.80392166876
-4.83764513366
-4.88033145586
-4.92777374969
-4.97780803499
-5.02930625241
-5.081653216
-5.13452961265
-5.18789312604
-5.2419599289
-5.29714417357
-5.35398291006
-5.41306998513
-5.47501045362
-5.54037798021
-5.60973316913
-5.68285724589
-4.85154995067
-4.87017106991
-4.90358005553
-4.94677312413
-4.99620805182
-5.04989018068
-5.10659069708
-5.16556783853
-5.22640264012
-5.28894281909
-5.35324822591
-5.41953221466
-5.4880927458
-5.55926076652
-5.63335621811
-5.71066070916
-5.79144890745
-5.87516471416
-4.90887263282
-4.9286210129
-4.96456479823
-5.01154112042
-5.06587595668
-5.12554687161
-5.18931378011
-5.25638252651
-5.32623183596
-5.39857221203
-5.47329560554
-5.55042222788
-5.63002937432
-5.71221228171
-5.7970425403
-5.88456068805
-5.97481280737
-6.06698430971
-4.93337300723
-4.95572344177
-4.99719902477
-5.05100850501
-5.11233849891
-5.17899909399
-5.24994331221
-5.32448307566
-5.40204042279
-5.48223672503
-5.56486045697
-5.64984572295
-5.73714448775
-5.82673020337
-5.91852176421
-6.01243732596
-6.10839488991
-6.2054721196
-4.93166523208
-4.95754910713
-5.00632409341
-5.068237328
-5.13673573297
-5.20969901761
-5.28661823601
-5.36701753087
-5.45031730863
-5.53608230407
-5.62411901874
-5.71434187808
-5.80669841946
-5.90108113215
-5.99736884837
-6.09539336334
-6.19506263012
-6.29539658417
-4.91067066779
-4.94212287452
-5.00134138734
-5.07325353875
-5.14923694549
-5.22810773095
-5.3103765899
-5.39580610229
-5.48373340441
-5.57372079974
-5.66563615586
-5.75946296118
-5.85514718168
-5.95255439235
-6.05150421714
-6.15178777706
-6.2532575769
-6.35489409375
-4.87338607521
-4.91368164519
-4.98748693755
-5.07092388092
-5.15397992326
-5.23804185394
-5.32507099523
-5.41489618555
-5.50671701162
-5.60017557292
-5.69530197267
-5.79217661702
-5.89073876211
-5.9908130512
-6.09214831115
-6.19451673467
-6.29776420814
-6.4009431753
-4.82153506636
-4.87615261918
-4.96973042443
-5.0652747974
-5.15414268861
-5.24245201323
-5.33351411298
-5.42676108869
-5.52120449892
-5.61671608253
-5.71361657757
-5.81213852803
-5.91225542851
-6.01374699265
-6.11631770093
-6.21965525233
-6.32353120464
-6.42687348593
-4.7557008969
-4.83362725842
-4.95253610854
-5.05905129838
-5.15191498663
-5.24402769608
-5.33923671049
-5.43602762057
-5.53321105995
-5.63093797841
-5.72978228869
-5.83007028117
-5.93177663093
-6.03466077554
-6.13841007639
-6.24269735746
-6.34727808032
-6.45108816424
-4.67543850747
-4.79091520096
-4.93947720333
-5.05327776059
-5.14725692271
-5.24150329269
-5.33909630333
-5.43754445037
-5.53585523741
-5.6346210882
-5.7346008141
-5.83608712365
-5.93895515434
-6.04289189657
-6.14754793531
-6.25255255294
-6.35751623648
-6.46105356831
-4.57955125957
-4.75402080777
-4.9332554467
-5.05071379724
-5.14650624705
-5.24460313496
-5.34522065139
-5.44509826361
-5.54400280903
-5.64324779515
-5.74385407365
-5.84607978073
-5.94970331665
-6.05434261045
-6.1596441414
-6.2652502093
-6.37069897395
-6.47429732834
-4.46619491505
-4.72946955385
-4.92860314616
-5.0394304022
-5.13458789144
-5.2363883817
-5.34009707088
-5.44153409142
-5.54123682403
-5.64118593134
-5.74262177233
-5.84577575623
-5.95033202992
-6.05586547731
-6.16204875561
-6.26860827767
-6.37507770349
-6.47923045979
-4.33371819173
-4.73594618924
-4.94827624858
-5.04664045365
-5.13816484637
-5.24082937819
-5.34526800224
-5.44657550386
-5.54582664123
-5.64543274936
-5.74675979902
-5.84999563412
-5.95474857049
-6.06056052342
-6.16715327131
-6.27446134899
-6.38250781471
-6.49016997469
-4.16314288339
-4.7166744622
-4.94366376238
-5.03848919565
-5.13082282871
-5.23576580616
-5.34184170025
-5.44402062822
-5.54374893868
-5.64370339606
-5.7453533348
-5.84889992457
-5.95394220602
-6.06002546486
-6.16690575994
-6.2746628093
-6.38375415053
-6.49877114988
-2.98622225382
-2.99086620605
-2.99695529824
-3.00031097353
-3.00358560079
-3.01318349599
-3.0352481378
-3.0722340026
-3.12642248223
-3.19970629313
-3.2936172396
-3.40934418691
-3.54775941152
-3.70945270865
-3.89476592739
-4.10382973613
-4.3366010048
-4.59289642485
-4.87242966717
-5.17483704047
-5.4997107789
-5.84661578516
-6.21511607076
-6.60478072552
-7.01520175649
-7.44599046604
-7.896783498
-8.36723254342
-8.85699843679
-9.3657340493
-9.89306709457
-10.4385794612
-11.0017798699
-11.5820797002
-12.1787587739
-12.7909411175
-13.4175559629
-14.0573162776
-14.7086793777
-15.3698303323
-16.0386457717
-16.7126892769
-17.3891905314
-18.0650605443
-18.7368874914
-19.4009620793
-20.053289024
-20.6896416081
-21.3056181548
-21.8967335385
-22.4585047151
-22.9865545011
-23.4766946848
-23.9249866644
-24.3277771949
-24.6817252444
-24.9838460577
-25.2315767048
-25.4228990998
-25.5564382233
-25.631528582
-25.6481081989
-25.6064490342
-25.5067115389
-25.3489239498
-25.1337812033
-24.8631353016
-24.5393160733
-24.1646416158
-23.7411139937
-23.2702455486
-22.7527323701
-22.1882394262
-21.574997636
-20.9095721548
-20.1864706301
-19.3980853849
-18.5346410236
-17.584683605
-16.5357168785
-15.3755537855
-14.0937284565
-12.6833131395
-11.1423546856
-9.47550029467
-7.69469944848
-5.81923020236
-3.8744565553
-1.89051983405
0.099573451305
2.06230108259
3.96589372418
5.78224125716
7.48799958116
9.06540522104
10.502493064
11.7929110605
12.9355636085
13.9335989969
14.7933525644
15.5233383965
16.1338589476
16.6363131392
17.0427191509
17.364402908
17.6132061617
17.8026136156
17.9439026709
18.0470360223
18.1170106793
18.1515826528
18.1513437954
18.1218681179
18.0699093056
18.0011718611
17.9202073866
17.8305786007
17.7351666533
17.6362597347
17.5357203498
17.4349821068
17.3351817143
17.2371664178
17.1416179674
17.0490056364
16.9596876693
16.8738450674
16.7915963428
16.7129391403
16.6378846442
16.5664088747
16.4985198564
16.4341386704
16.3731647719
16.3154208141
16.2607290721
16.2088692491
16.1596509752
16.1128690292
16.0683452461
16.0258877131
15.9853217701
15.9464828302
15.9092288943
15.873432319
15.8389791365
15.805759304
15.7736852669
15.742668974
15.71261877
15.6834575977
15.6551271951
15.6275762776
15.6007635849
15.5746436498
15.5491753487
15.524348685
15.5001658968
15.4765993409
15.4536278976
15.4312968924
15.4096735128
15.3887745706
15.3686503817
15.3493800103
15.3310652638
15.3137733642
15.2975509368
15.2824718777
15.2685885921
15.2558882066
15.2443363343
15.2339693778
15.2249329423
15.2173892819
15.2115499011
15.2076833406
15.2060068386
15.2077621372
15.1993051382
-2.96489192588
-2.97197820721
-2.98527274809
-3.00006881074
-3.00759486492
-3.01453035484
-3.03398493097
-3.06992578131
-3.12421380201
-3.19842496858
-3.29387834319
-3.4116017972
-3.55233602984
-3.71655851869
-3.90451399849
-4.11624940466
-4.35165048057
-4.6104758224
-4.89239261694
-5.19700424687
-5.52388108479
-5.87257858523
-6.24266086513
-6.63370904899
-7.04533394108
-7.47717521912
-7.92890363002
-8.40021142403
-8.89080312627
-9.40037910101
-9.92861606964
-10.4751451114
-11.0395234747
-11.6212086649
-12.2195240459
-12.8336306982
-13.4624905973
-14.1048402357
-14.7591541531
-15.4236211062
-16.0961107674
-16.7741609145
-17.4549640832
-18.1353790888
-18.8119331756
-19.4808332808
-20.137982895
-20.7790390814
-21.3994866354
-21.9947289628
-22.5601904197
-23.0914228533
-23.5841793952
-24.0344535447
-24.4385197656
-24.7929799474
-25.0948290317
-25.3415428174
-25.5312018655
-25.6626066333
-25.7353678516
-25.7498235945
-25.7064095896
-25.6045765049
-25.4430322763
-25.2228269681
-24.9471805651
-24.6189995105
-24.2409741544
-23.8154289583
-23.3441591841
-22.8281705016
-22.2674080212
-21.6603869998
-21.0038641362
-20.2924687753
-19.5185004555
-18.6719010089
-17.7406517131
-16.7114806445
-15.571116251
-14.3079183208
-12.9137759336
-11.3857642834
-9.72768517977
-7.951035442
-6.07505598667
-4.12552686249
-2.13313215401
-0.131482866083
1.84510396752
3.764189463
5.59704206732
7.31979356019
8.91413084275
10.3675925803
11.6732329018
12.829211408
13.8378961739
14.7051484099
15.4393391286
16.0515538028
16.5541593386
16.9606261716
17.2855653197
17.5417873982
17.7428771844
17.8971999785
18.0074400751
18.0779827894
18.1128658155
18.1149643094
18.0891331785
18.0410834437
17.9760377206
17.8983546094
17.8115941376
17.7186471367
17.6218669473
17.5231427161
17.4239655053
17.3254943495
17.2286285274
17.1340639038
17.0423234906
16.9537679796
16.8686162262
16.7869809629
16.7089209156
16.6344543446
16.5635349707
16.4960961731
16.4320617752
16.3713557771
16.3138430631
16.2593419066
16.2076496987
16.1585716451
16.1119155981
16.0674993747
16.0251379503
15.9846536171
15.9458864638
15.908700352
15.8729702899
15.8385803698
15.805421988
15.7733947786
15.7424088879
15.7123814251
15.6832429148
15.654932491
15.6273970155
15.6006024049
15.5745077116
15.5490727447
15.5242610931
15.5000708212
15.4765064556
15.4535590323
15.4312363803
15.4095759948
15.388619011
15.3684331441
15.3491041258
15.33074773
15.3134514453
15.29725055
15.2821652783
15.2682447539
15.2555145512
15.2439493113
15.2335713357
15.2245017884
15.2169278728
15.2110915564
15.2072736447
15.2056547734
15.2071739134
15.2014025895
-2.9202299338
-2.93355589925
-2.95168441351
-2.97469212613
-3.00112257264
-3.03216796565
-3.0727304949
-3.1266534692
-3.19679078919
-3.28527564387
-3.39368953906
-3.52318324922
-3.67455570806
-3.84831494677
-4.04472743916
-4.26386320623
-4.50563724686
-4.76984643077
-5.05620598647
-5.36437740475
-5.69399811308
-6.04470001328
-6.41613029325
-6.80795925448
-7.21989158892
-7.65166406594
-8.10304565099
-8.57382720376
-9.0638104933
-9.57279052499
-10.1005347881
-10.6467599172
-11.2111027842
-11.7930927461
-12.3921166647
-13.0073887306
-13.6379127329
-14.2824540547
-14.9395025162
-15.6072443108
-16.2835260725
-16.9658375216
-17.6513004243
-18.3366833509
-19.0184049036
-19.6925348422
-20.3548088164
-21.0006945787
-21.6254884578
-22.224412125
-22.7927395355
-23.3259068995
-23.8195648274
-24.2696091514
-24.6722349187
-25.0240017661
-25.3219001603
-25.5634397735
-25.7467629703
-25.8708468594
-25.9356656898
-25.9418519799
-25.8894543207
-25.7766829873
-25.6032159524
-25.3719077684
-25.0861268133
-24.749110788
-24.3639941225
-23.9335896637
-23.4601793789
-22.9452585074
-22.3892297265
-21.791019122
-21.1476930635
-20.4540579869
-19.7023273879
-18.882006763
-17.9802161458
-16.9823894208
-15.8734649822
-14.6396804302
-13.2707651419
-11.7619253589
-10.1154565528
-8.34197994645
-6.4607497086
-4.49845392153
-2.4871229944
-0.462036337887
1.54089803625
3.4876390396
5.347999395
7.09693286749
8.7150424677
10.1889637328
11.510980313
12.6789830472
13.6951929706
14.5664339712
15.3022916026
15.9167180042
16.4245718693
16.8399072602
17.1786038233
17.451393325
17.664591966
17.8249598451
17.939927395
18.0149650225
18.0541176784
18.0610201381
18.0403620269
17.9973595444
17.9369679848
17.8634553894
17.780405214
17.6907445706
17.5968830889
17.5007426024
17.4038628482
17.3074289331
17.2123856146
17.119446632
17.0291675536
16.9419135181
16.8579396332
16.7773790294
16.7002873634
16.6266646124
16.5565151022
16.4897989791
16.4264457135
16.3663376048
16.3093616791
16.255330302
16.2040557537
16.1553463031
16.1090233172
16.0649043425
16.022811925
15.9825726314
15.9440239278
15.9070262165
15.8714605016
15.8372161275
15.8041865181
15.7722732037
15.7413924824
15.7114646363
15.6824216705
15.6542113621
15.6267704244
15.6000436596
15.5739893115
15.5485837189
15.523808228
15.4996318416
15.4760387893
15.4530423737
15.4306691953
15.4089749435
15.3880175301
15.3678845621
15.3486756472
15.3304379384
15.3132031554
15.2970453582
15.2820239195
15.2681038898
15.2552536632
15.2435013215
15.2329246199
15.2236714066
15.2159421732
15.2099569842
15.2059622852
15.2041714623
15.2055716034
15.2026560005
-2.89877674599
-2.91702576843
-2.94474029852
-2.98038641078
-3.02404590928
-3.07633358721
-3.13905726863
-3.21438390792
-3.30447565461
-3.41121799764
-3.53613896719
-3.68041195698
-3.84488568144
-4.03012810237
-4.23647107934
-4.46405560433
-4.71287425073
-4.98280953281
-5.27367014005
-5.58521995206
-5.91720664195
-6.26937907403
-6.64150722531
-7.03338900194
-7.44485900788
-7.87578549473
-8.32606899719
-8.79562996139
-9.28439706768
-9.79228779514
-10.319186991
-10.8649217051
-11.4292315773
-12.0117396635
-12.6119158341
-13.2290442144
-13.862184251
-14.5101402807
-15.1714222309
-15.8442137159
-16.5263306659
-17.2151984715
-17.9078402685
-18.6008953583
-19.29062261
-19.9728917615
-20.643191866
-21.2967102884
-21.9284615543
-22.5334007165
-23.1065730842
-23.6432313471
-24.1388689272
-24.5892600057
-24.9905538066
-25.3393572202
-25.632739571
-25.8682905833
-26.0443073356
-26.1600689207
-26.2159053589
-26.2123843462
-26.1485800981
-26.0214697038
-25.8322304382
-25.5859764234
-25.2865348214
-24.9378517952
-24.5437564678
-24.1077317014
-23.6326721237
-23.1206348933
-22.5725519245
-21.9878373998
-21.3639775335
-20.6961100567
-19.9765450596
-19.1944114765
-18.3357955376
-17.3843722129
-16.3225187981
-15.1332076339
-13.8026567222
-12.3228445048
-10.6935377451
-8.92390484073
-7.03310535072
-5.04912767092
-3.0064466779
-0.943125966147
1.10181400196
3.09133761939
4.99246382751
6.77791363014
8.42684746636
9.92493757223
11.2642759152
12.444048244
13.4681788538
14.3471810667
15.0935986024
15.7221584215
16.2491197988
16.6866989986
17.0442809966
17.3295855662
17.5525576973
17.7216796754
17.8439903287
17.9251862302
17.9699872127
17.982781048
17.9683096766
17.9315202791
17.8771040983
17.8092039569
17.731340326
17.6464415987
17.5569180549
17.4647177646
17.3713990483
17.2781849576
17.1860462095
17.0957367491
17.0078300726
16.9227259767
16.8406958548
16.7618981242
16.686419246
16.6142532065
16.5453972098
16.4798626894
16.4176115521
16.3585252639
16.3024536628
16.2492161293
16.1986341196
16.150528155
16.1047297813
16.0610691043
16.0193773125
15.9794862731
15.9412437996
15.9045195978
15.8691998789
15.8351756508
15.8023472841
15.7706142016
15.7398913397
15.7101113236
15.6811928763
15.6530689528
15.6256854312
15.599005765
15.5730060184
15.547636429
15.5228644011
15.4986802542
15.4750911778
15.4521205911
15.4298085068
15.4082048958
15.3873891434
15.3674014377
15.3482757166
15.3300842959
15.3129242557
15.2968232255
15.2817484129
15.2676992023
15.2546933799
15.242789821
15.2321012512
15.2227640407
15.2149622631
15.2088724633
15.2045875858
15.2022199562
15.20260242
15.1994306652
-2.95026378499
-2.97195364533
-3.00557493007
-3.05047683668
-3.10656401415
-3.17416087523
-3.2541524799
-3.34770854771
-3.45611562357
-3.58060591423
-3.72226293102
-3.88197506387
-4.06042126006
-4.25808131763
-4.47525756279
-4.7121047602
-4.9686619802
-5.24488399239
-5.54067235823
-5.85590009293
-6.19043654953
-6.54416316772
-6.9169894223
-7.3088576507
-7.7197503698
-8.14968469101
-8.5987093059
-9.06689089248
-9.55430134903
-10.0609968035
-10.5869956931
-11.1322519923
-11.6966252969
-12.2798491385
-12.8814936015
-13.5009296357
-14.1372873351
-14.7894224467
-15.4558743872
-16.1348289156
-16.8240699919
-17.5209479296
-18.2223629108
-18.9247846596
-19.6242568491
-20.3163804356
-20.9963147794
-21.6588751281
-22.2987080567
-22.9104369658
-23.4888321259
-24.0289229805
-24.5260170223
-24.9757741761
-25.3743446713
-25.7184200154
-26.0051467513
-26.2322280669
-26.3981856996
-26.5026956333
-26.5463660485
-26.5290164054
-26.4474293902
-26.299575758
-26.0897472957
-25.8240676759
-25.5070211582
-25.1432953471
-24.7374577147
-24.2936817096
-23.8154701729
-23.3054515052
-22.7651843813
-22.1948011115
-21.5925568889
-20.9543572966
-20.2731174392
-19.5379925101
-18.7341093035
-17.8430880603
-16.8439707768
-15.7152435525
-14.4381202203
-12.9997063752
-11.3959894636
-9.63399597185
-7.73255730955
-5.721669129
-3.63963094662
-1.52922725834
0.566044137991
2.6051466455
4.55130782887
6.3746775788
8.05318461571
9.57343754611
10.9292771308
12.1240280642
13.1644276028
14.0629406614
14.8338638768
15.490121839
16.0429248096
16.5001242686
16.872932625
17.1720702823
17.4072083164
17.5868173769
17.7181525078
17.8073839213
17.859796622
17.8802685394
17.8736012111
17.8445752931
17.7976557174
17.736858953
17.6656188241
17.5868530994
17.5029557611
17.4159053135
17.3272688503
17.2383209576
17.1500514696
17.0632655115
16.9785477614
16.8963444766
16.8169366955
16.7405261009
16.6672097384
16.5970166381
16.5299273258
16.4659882797
16.4052113679
16.3475008355
16.2926540627
16.2405008825
16.1908667548
16.1435972545
16.0985335276
16.0555226431
16.0144040898
15.9750229024
15.9372354089
15.9009187203
15.8659645529
15.8322645706
15.7997189076
15.7682435445
15.7377428174
15.7081366114
15.6793629699
15.6513684601
15.6241224149
15.5975736968
15.5716646528
15.5463665865
15.5216660536
15.4975644124
15.4740724552
15.4512140884
15.4290337347
15.4075876648
15.3869020218
15.3669948556
15.3479442309
15.3298590312
15.3127757474
15.296673157
15.2815469208
15.2674157679
15.254315584
15.2423205125
15.2315412519
15.2221367269
15.214191021
15.2077161794
15.2027294638
15.1992244901
15.1976641675
15.1919732929
-3.08034801132
-3.10191571212
-3.13726607978
-3.18675780864
-3.25012980219
-3.3274551381
-3.41910929976
-3.52565414402
-3.64774546256
-3.78604428763
-3.94115962722
-4.11361133861
-4.30380982609
-4.51205355087
-4.73853644017
-4.98336430128
-5.24657507239
-5.52816075115
-5.82808977498
-6.14632622649
-6.482848774
-6.83766159619
-7.2108071759
-7.60236832899
-8.01247193654
-8.44128209019
-8.88899557846
-9.35582622702
-9.84199182129
-10.3476915171
-10.8730839364
-11.4182584346
-11.9832048366
-12.5677796926
-13.1716671177
-13.7943388636
-14.4350095391
-15.0925972917
-15.7656778926
-16.4524413758
-17.1506357364
-17.8575222366
-18.5698487698
-19.2838666989
-19.9953416075
-20.6995386022
-21.3912217922
-22.0647685964
-22.7143984256
-23.3343590204
-23.919096093
-24.4633612396
-24.9622404768
-25.4112923497
-25.8067120369
-26.1452808476
-26.4242015439
-26.6413334307
-26.7955850912
-26.8871178846
-26.9165086746
-26.8819800512
-26.7773424855
-26.6047002058
-26.3727084078
-26.0861356588
-25.7501656435
-25.370026024
-24.9508134781
-24.4972637169
-24.013491225
-23.5028257883
-22.9677348484
-22.409527483
-21.8277745257
-21.2197161733
-20.5794948917
-19.8968345519
-19.1562004409
-18.3370940919
-17.4144614262
-16.360972245
-15.1510052335
-13.7652050376
-12.1945928343
-10.443710645
-8.53128816624
-6.48996452191
-4.36328376034
-2.20078396361
-0.0527573714893
2.03538225721
4.02361254201
5.88108512955
7.58751216426
9.13281441285
10.5129912795
11.7343202251
12.8053764575
13.7374720084
14.5413859442
15.224526319
15.7982359251
16.2743872244
16.6643393021
16.9787807349
17.2274893757
17.4191380094
17.5612865742
17.6604654692
17.7223894386
17.7522402522
17.7549194941
17.7350922375
17.6970865541
17.6447803462
17.581544631
17.5102463714
17.4332787583
17.3526148484
17.2698527215
17.1862849649
17.1029470301
17.0206623764
16.9400563356
16.8615939954
16.7855970749
16.7122855106
16.6417875288
16.5741680095
16.5094381009
16.4476326277
16.3888123891
16.3328890163
16.2796479069
16.2289201635
16.1805517177
16.1344023903
16.0903312305
16.0481969949
16.0078513315
15.9691526709
15.9319723954
15.8961959511
15.861717017
15.8284439022
15.7962784689
15.7651224262
15.7348971175
15.7055362076
15.6769911717
15.6492230364
15.6221730336
15.5957795884
15.5700069905
15.5448423517
15.520277988
15.4963175343
15.4729695653
15.4502652487
15.4282564058
15.4069638185
15.3863911064
15.3665953271
15.3476892436
15.3297351188
15.3127197184
15.2966437983
15.2815157103
15.2673588977
15.2542119433
15.2421578695
15.2313270844
15.2217841945
15.2134901267
15.2063941291
15.2004073761
15.1953490344
15.1912607672
15.1819682355
-3.26501993377
-3.28500561434
-3.32005187139
-3.37108764306
-3.4379019172
-3.52053208332
-3.61908838145
-3.7337712676
-3.86482762881
-4.01251332232
-4.17706637956
-4.35868755312
-4.55752929645
-4.77369405422
-5.00723856789
-5.25818425569
-5.5265304956
-5.8122695332
-6.11540247743
-6.43595208115
-6.7739762097
-7.12957534228
-7.50290028579
-7.8941513888
-8.30358029103
-8.7314804432
-9.17818097698
-9.64403003188
-10.1293807404
-10.6345674565
-11.1598834264
-11.7055505341
-12.2716883802
-12.8582775518
-13.465119019
-14.0917897121
-14.737592342
-15.4015092882
-16.0821510378
-16.7777064281
-17.4858789442
-18.203828393
-18.928127642
-19.6547709117
-20.379196548
-21.096291819
-21.8003886276
-22.4853704867
-23.1449356165
-23.7728485803
-24.3631090747
-24.9101292338
-25.4088124197
-25.8547682164
-26.2443886528
-26.5745835821
-26.842705922
-27.0469924093
-27.1872753938
-27.2644474543
-27.2779125966
-27.2223664255
-27.0933949293
-26.8976605105
-26.6443135571
-26.3373042935
-25.9818635538
-25.5835110908
-25.1478483846
-24.680405833
-24.186369425
-23.6703181905
-23.1361754234
-22.5869053465
-22.0237946643
-21.4457533751
-20.8485160463
-20.2227066103
-19.5524135367
-18.814689864
-17.9799005931
-17.0140232125
-15.8832663924
-14.5602592616
-13.029872555
-11.2943619577
-9.3731509168
-7.30327673809
-5.13500275309
-2.92649205744
-0.733545111103
1.39503891989
3.41918112664
5.31004845418
7.04894791742
8.62803513818
10.044914533
11.3056100849
12.4161942642
13.3818570618
14.2123776768
14.9194630559
15.5150097677
16.010960715
16.4188835998
16.749630736
17.013161515
17.2183438095
17.3730021174
17.4839446813
17.5571955667
17.5981391401
17.6117609145
17.6026496833
17.5750336629
17.532666521
17.4788543224
17.4164010379
17.3476928509
17.2746842815
17.1990051333
17.121957015
17.0446219319
16.9678345052
16.8922674873
16.8184007118
16.7466057468
16.6771174528
16.6101091206
16.545655584
16.4838484622
16.4247322232
16.3683550371
16.3146221699
16.2633458044
16.2143678796
16.1675627071
16.1228021283
16.0799651701
16.0389232149
15.9995480363
15.9617116806
15.9252976313
15.890204861
15.8563439627
15.8236164089
15.7919240144
15.7611894548
15.7313441533
15.7023313992
15.6741143045
15.6466353663
15.6198296047
15.593656722
15.5680965851
15.5431396302
15.5187793062
15.4950205234
15.4718699706
15.4493755479
15.4275692078
15.4064491753
15.3860342368
15.3664241896
15.3477084944
15.3298887471
15.3129690379
15.2969604793
15.2818717285
15.2677241975
15.2545484905
15.242455066
15.2315145841
15.2216717274
15.2128439043
15.204901643
15.197636677
15.1906759066
15.1836667555
15.1703196961
-3.4740044757
-3.49223752423
-3.52644047433
-3.57760307513
-3.64567062964
-3.73076602946
-3.83291161054
-3.9521339509
-4.08844815828
-4.24185640643
-4.41234519053
-4.59988317833
-4.80442160776
-5.02589833066
-5.26424449104
-5.51939388314
-5.7912938678
-6.07991668758
-6.38527094065
-6.70741099333
-7.04644613899
-7.40254399362
-7.77593568954
-8.16691252434
-8.57582475918
-9.0030709343
-9.44909060303
-9.91434581151
-10.3993069712
-10.9044275228
-11.430121775
-11.9767324186
-12.5444991207
-13.1335189662
-13.7437040673
-14.3747320897
-15.0259917096
-15.6965267845
-16.3849776273
-17.0895237739
-17.8078153736
-18.5369026252
-19.273172542
-20.01233474
-20.7494525413
-21.4789759295
-22.1947364761
-22.8900249968
-23.5578946503
-24.1915663691
-24.7846587533
-25.3314830029
-25.8271445684
-26.2675820914
-26.6493429495
-26.969210413
-27.2247850489
-27.415560497
-27.5429271551
-27.6078719849
-27.6066791943
-27.5291903698
-27.3786858701
-27.1656341479
-26.8928200612
-26.564857211
-26.1875957988
-25.7674998746
-25.3113189372
-24.8260087294
-24.3183394403
-23.794429282
-23.2597527452
-22.7187059401
-22.1739731274
-21.6258015952
-21.0710835769
-20.5014201842
-19.9007544384
-19.2440172679
-18.4968710329
-17.6182921514
-16.5665948117
-15.3067813092
-13.8187176131
-12.1041878183
-10.1845699239
-8.10059107385
-5.9069890516
-3.66922068569
-1.44607994057
0.713608627351
2.77070918694
4.69687465009
6.47491111502
8.09703709829
9.55741562746
10.8559525566
11.9977841061
12.9916328575
13.8479318114
14.5784750195
15.1955097217
15.7112627978
16.1375088511
16.4852844635
16.7646792888
16.98473988
17.1534593861
17.277866328
17.3641589741
17.4178718998
17.4440117849
17.4471338575
17.4313576344
17.4003536935
17.3573368054
17.3050705957
17.2459012803
17.181788824
17.114361301
17.0449552891
16.9746662171
16.9043680184
16.8347529156
16.766344744
16.699539873
16.6346169313
16.5717729435
16.5111200215
16.4527991391
16.3969301493
16.3435033519
16.2923938142
16.2434626956
16.1965893027
16.1516685475
16.1085954038
16.0672658413
16.0275674392
15.9893879511
15.952615347
15.9171548905
15.8829215584
15.8498232815
15.8177663123
15.7866761344
15.7564873478
15.7271314922
15.6985691637
15.6707581974
15.6436322444
15.6171470124
15.5912754607
15.5660037955
15.5413217911
15.5172298154
15.4937295508
15.4708424606
15.4486040842
15.4270291431
15.4061265654
15.3859415971
15.3665626114
15.3480431687
15.3303832047
15.3135958291
15.2976892138
15.2826757109
15.2685512331
15.2553759375
15.2432192819
15.2320528399
15.2217827641
15.2122704636
15.2033027708
15.1945489362
15.1854499569
15.1753262332
15.1578505006
-3.67857182767
-3.69552514013
-3.72911380691
-3.78002451403
-3.8483981024
-3.93446188857
-4.03824205147
-4.15970929995
-4.29877006259
-4.45529055871
-4.62911026504
-4.82005230119
-5.02793438507
-5.25257874105
-5.49382290276
-5.75153030365
-6.02560125325
-6.31598304429
-6.62268008815
-6.94576062031
-7.28536323313
-7.64169868339
-8.01505206563
-8.40577799495