/*--------------------------------*- C++ -*----------------------------------*\
| =========                 |                                                 |
| \\      /  F ield         | OpenFOAM: The Open Source CFD Toolbox           |
|  \\    /   O peration     | Version:  v1806                                 |
|   \\  /    A nd           | Web:      www.OpenFOAM.com                      |
|    \\/     M anipulation  |                                                 |
\*---------------------------------------------------------------------------*/
FoamFile
{
    version     2.0;
    format      ascii;
    class       surfaceScalarField;
    location    "13";
    object      phia;
}
// * * * * * * * * * * * * * * * * * * * * * * * * * * * * * * * * * * * * * //

dimensions      [0 3 -1 0 0 0 0];
oriented        oriented;


internalField   nonuniform List<scalar> 
24170
(
1.5535286154e-07
1.69479592681e-07
2.11671359523e-07
-4.98798148328e-08
2.31185063619e-07
-1.45948831792e-08
2.37267657797e-07
-5.84120811371e-09
2.44840397486e-07
-6.4019726702e-09
2.53517877811e-07
-1.00716173701e-08
2.62589068427e-07
-9.61179330712e-09
2.71510204947e-07
-1.20163881357e-08
2.82183858018e-07
-1.36948250422e-08
2.94647786774e-07
-1.74300457161e-08
3.1143084877e-07
-2.17335103314e-08
3.34853790151e-07
-2.85897956196e-08
3.69359380477e-07
-3.910823148e-08
4.16320975477e-07
-5.06102951434e-08
4.71574503855e-07
-5.80716219332e-08
5.19670106871e-07
-4.98337425185e-08
5.9146835818e-07
-7.25971664209e-08
-5.43926169227e-07
1.13522574156e-06
5.65315785652e-07
-3.81205845097e-08
2.68779142143e-07
2.56597418325e-07
3.43471325444e-07
-8.39587877567e-08
3.44733201745e-07
-6.37912116734e-09
3.68695378816e-07
-2.97232100412e-08
3.87512474444e-07
-3.0312624716e-08
4.10267726588e-07
-3.38559218267e-08
4.32514300239e-07
-3.79646158325e-08
4.56981916477e-07
-4.26617366709e-08
4.83024522535e-07
-4.97770004043e-08
5.12273636608e-07
-5.7660491789e-08
5.461394569e-07
-6.92022712351e-08
5.85414264089e-07
-8.42686989581e-08
6.29508058866e-07
-9.93279008002e-08
6.72120631632e-07
-1.04035649905e-07
7.12973202069e-07
-9.28286788318e-08
8.08321223193e-07
-1.69045211357e-07
-6.69069461958e-07
9.32526221289e-07
-7.17347613873e-08
4.00883262652e-07
4.25698018574e-07
-2.38614838537e-07
2.96172158743e-07
4.8151560173e-08
3.15751059712e-07
-2.60979267157e-08
3.15342779782e-07
-2.8978454622e-08
3.21193697341e-07
-3.7466478433e-08
3.27311346099e-07
-4.08889931488e-08
3.33983328341e-07
-4.69270834349e-08
3.42674699859e-07
-5.35838993378e-08
3.53083701637e-07
-6.31966419682e-08
3.67439736079e-07
-7.48312554583e-08
3.87163437367e-07
-9.16582392179e-08
4.12875797282e-07
-1.12343033266e-07
4.43527504806e-07
-1.31921079636e-07
4.78454785479e-07
-1.40488325525e-07
5.35229350629e-07
-1.50626510555e-07
6.48535443711e-07
-2.82957251527e-07
-6.90714490888e-07
6.69504851348e-07
7.77328366203e-07
2.47069207075e-08
3.30147700728e-07
2.1382555598e-07
3.6006975199e-07
2.10213493658e-08
3.7699233237e-07
-4.31960938872e-08
3.84521894183e-07
-3.72146394976e-08
3.95838955874e-07
-5.09116143447e-08
4.07709839779e-07
-5.52760938064e-08
4.19830770254e-07
-6.28560153169e-08
4.32599126868e-07
-7.07294335963e-08
4.4549736434e-07
-8.12335292896e-08
4.59674883221e-07
-9.41264945319e-08
4.75005663249e-07
-1.11826096666e-07
4.90979934675e-07
-1.32462066435e-07
5.06355529884e-07
-1.50632836786e-07
5.25119630071e-07
-1.61767620362e-07
5.67244519393e-07
-1.94490221562e-07
6.29929758868e-07
-3.46756907378e-07
-6.41306359745e-07
5.79518311971e-07
5.67982405312e-08
3.86274161873e-07
3.90668401855e-07
-1.2021807014e-07
3.74123475833e-07
3.8659376243e-08
3.73961075305e-07
-4.31538222932e-08
3.82495180752e-07
-4.57244295587e-08
3.90962265565e-07
-6.03835418089e-08
4.01872813039e-07
-6.7156650026e-08
4.13929409107e-07
-7.66040789023e-08
4.28032912064e-07
-8.65277970692e-08
4.43906893106e-07
-9.90414272982e-08
4.62275029842e-07
-1.14231580688e-07
4.82254845232e-07
-1.33408510492e-07
5.02521322239e-07
-1.54126381799e-07
5.22344013855e-07
-1.71683911258e-07
5.47577259708e-07
-1.88019401854e-07
5.89225053236e-07
-2.36908449255e-07
6.19878030356e-07
-3.77995026126e-07
-5.76231515893e-07
5.54187674451e-07
5.21804690231e-07
3.15632963155e-07
4.05295993588e-07
-2.7274756962e-09
4.21814942636e-07
2.30325558788e-08
4.26092895476e-07
-4.78058565919e-08
4.31912699944e-07
-5.25577091635e-08
4.38463133071e-07
-6.8813817497e-08
4.4674689058e-07
-7.77870586022e-08
4.5614659615e-07
-8.89385305656e-08
4.67267160205e-07
-1.00841115399e-07
4.80085063214e-07
-1.15163932186e-07
4.94955101068e-07
-1.32194411294e-07
5.10944004322e-07
-1.52169597461e-07
5.27067740394e-07
-1.72610328433e-07
5.44313129856e-07
-1.90875665148e-07
5.68669093504e-07
-2.13911416036e-07
6.01347493989e-07
-2.70726023083e-07
6.09891094961e-07
-3.87366130448e-07
-5.17465327609e-07
5.50351628174e-07
4.00244006246e-07
3.95419367054e-07
4.44555304252e-07
-4.81492096066e-08
4.55424412507e-07
1.24420745396e-08
4.59368582862e-07
-5.16278742422e-08
4.66103326412e-07
-5.92430622254e-08
4.73101800151e-07
-7.6271092757e-08
4.81725411516e-07
-8.70397314901e-08
4.91392537299e-07
-9.95141653696e-08
5.02468159799e-07
-1.12837173759e-07
5.14826367211e-07
-1.2842181453e-07
5.28352569084e-07
-1.46481334455e-07
5.42096790649e-07
-1.66601676248e-07
5.55588210926e-07
-1.86733691494e-07
5.7070479453e-07
-2.06599650729e-07
5.91321723806e-07
-2.35077181458e-07
6.12051748224e-07
-2.91925362515e-07
6.0652364631e-07
-3.82261109554e-07
-4.67875823186e-07
5.56452127019e-07
4.82066368309e-07
4.28612931297e-07
4.81942910048e-07
-4.88698006309e-08
4.97485127813e-07
-2.96617980802e-09
5.0113173918e-07
-5.54047100561e-08
5.07401166758e-07
-6.60411917148e-08
5.13569632713e-07
-8.35200407346e-08
5.21291978198e-07
-9.61500685626e-08
5.30088061184e-07
-1.09946474804e-07
5.40186512517e-07
-1.24582235984e-07
5.5133579047e-07
-1.41116102293e-07
5.63103063093e-07
-1.595933362e-07
5.74671483944e-07
-1.79315062423e-07
5.8601854535e-07
-1.99057491156e-07
5.98903683989e-07
-2.20306433453e-07
6.14344649523e-07
-2.5120632137e-07
6.243343822e-07
-3.02448268609e-07
6.11193203494e-07
-3.69576060629e-07
-4.26638711622e-07
5.69365665876e-07
5.24931961524e-07
4.56592491119e-07
5.27497931848e-07
-5.2245970348e-08
5.41602821766e-07
-1.68746876114e-08
5.45800372678e-07
-5.92288845349e-08
5.51687696894e-07
-7.16231207882e-08
5.57299620491e-07
-8.90770926084e-08
5.64169400494e-07
-1.03115198306e-07
5.71980402462e-07
-1.17948567479e-07
5.80831150872e-07
-1.33606295791e-07
5.9037802722e-07
-1.50771841318e-07
6.00083263424e-07
-1.69356252076e-07
6.09376507931e-07
-1.88676260628e-07
6.18496070678e-07
-2.08272889886e-07
6.28470019766e-07
-2.30427616879e-07
6.38133165235e-07
-2.61032002038e-07
6.39779190104e-07
-3.04262787589e-07
6.22978422028e-07
-3.5313623594e-07
-3.9140972672e-07
5.87502015322e-07
5.75764615468e-07
4.7387137853e-07
5.76440226102e-07
-5.35371684093e-08
5.8945411663e-07
-2.97676363705e-08
5.93636402076e-07
-6.32251713468e-08
5.99055938e-07
-7.71753295535e-08
6.04028953573e-07
-9.45012981583e-08
6.0995917358e-07
-1.09758421105e-07
6.16622253501e-07
-1.25416879384e-07
6.2401250717e-07
-1.41777229317e-07
6.31721676895e-07
-1.59186144955e-07
6.39248763098e-07
-1.77462815967e-07
6.46262096572e-07
-1.96121292351e-07
6.52959252321e-07
-2.15331812935e-07
6.59494571226e-07
-2.37270898639e-07
6.63592283452e-07
-2.65392892484e-07
6.59224187544e-07
-3.00134477145e-07
6.40968082721e-07
-3.35082474236e-07
-3.60999400064e-07
6.10028349835e-07
6.29464816537e-07
4.81100684905e-07
6.28448691136e-07
-5.27235065596e-08
6.4049873214e-07
-4.14313837674e-08
6.44231265584e-07
-6.64758323056e-08
6.49131055104e-07
-8.16624646062e-08
6.53402536622e-07
-9.85859304276e-08
6.58349189275e-07
-1.1464792722e-07
6.63746711613e-07
-1.30859661267e-07
6.69524821486e-07
-1.47629296284e-07
6.75272897648e-07
-1.64987369492e-07
6.80593118719e-07
-1.8280111984e-07
6.85278248337e-07
-2.00858529794e-07
6.89329761225e-07
-2.19454779094e-07
6.92196033962e-07
-2.40235986575e-07
6.91431043797e-07
-2.64732560444e-07
6.82931718909e-07
-2.91734943878e-07
6.64070710067e-07
-3.16557670388e-07
-3.337030068e-07
6.36575728766e-07
5.74005935621e-07
4.80865870923e-07
5.72710017373e-07
-5.1157106547e-08
5.81245875992e-07
-4.93940360087e-08
5.84123241495e-07
-6.87522418608e-08
5.87717406719e-07
-8.48047623968e-08
5.90780136129e-07
-1.01383650731e-07
5.94163582413e-07
-1.17864520708e-07
5.97708884914e-07
-1.34300525221e-07
6.01321128797e-07
-1.51074069683e-07
6.04659162645e-07
-1.68160557676e-07
6.0745512111e-07
-1.85521116873e-07
6.09650975394e-07
-2.02624574035e-07
6.10972742042e-07
-2.20372999037e-07
6.10681217223e-07
-2.39639327933e-07
6.07011352858e-07
-2.60762127301e-07
5.97695481168e-07
-2.82256429793e-07
5.81826964304e-07
-3.00505339527e-07
-3.1261558018e-07
5.60516167623e-07
7.06209153744e-07
4.74491024767e-07
7.0507146938e-07
-4.96483341303e-08
7.12114694797e-07
-5.59076472663e-08
7.1520773396e-07
-7.13321585996e-08
7.18649636164e-07
-8.78774865129e-08
7.21584347964e-07
-1.04044408164e-07
7.24585753747e-07
-1.20731451949e-07
7.27538338881e-07
-1.37109808495e-07
7.30242852896e-07
-1.53700304147e-07
7.32347572265e-07
-1.70318590408e-07
7.33808676887e-07
-1.86448833752e-07
7.34244942664e-07
-2.02612511719e-07
7.33346575062e-07
-2.18893080308e-07
7.30190830906e-07
-2.35839015293e-07
7.23146296273e-07
-2.53231421525e-07
7.10848296787e-07
-2.69381072552e-07
6.92706168896e-07
-2.82279681385e-07
-2.89822846779e-07
6.70167121385e-07
8.67156722844e-07
4.60924454692e-07
8.65937212718e-07
-4.77599244559e-08
8.70816573692e-07
-6.02061646473e-08
8.73687060255e-07
-7.36863180228e-08
8.76649240693e-07
-9.02517108215e-08
8.79098253182e-07
-1.06087017931e-07
8.81355477431e-07
-1.22489229547e-07
8.8321170829e-07
-1.38616072629e-07
8.84444788488e-07
-1.54621352651e-07
8.84928052407e-07
-1.70095739014e-07
8.8416676154e-07
-1.85296069997e-07
8.82155886168e-07
-1.99818280641e-07
8.78212906337e-07
-2.14191749183e-07
8.71405742192e-07
-2.28399485521e-07
8.60716136438e-07
-2.41810964649e-07
8.4509740629e-07
-2.53350984629e-07
8.24931863414e-07
-2.6154920448e-07
-2.65708696812e-07
8.00880614448e-07
1.06428937964e-06
4.37177318733e-07
1.06184602925e-06
-4.47983519647e-08
1.06443197425e-06
-6.2252925947e-08
1.06637509949e-06
-7.48593175385e-08
1.06812682856e-06
-9.14672347914e-08
1.0695064358e-06
-1.06590557156e-07
1.07020564505e-06
-1.22544126426e-07
1.07026003943e-06
-1.3779433378e-07
1.0693689681e-06
-1.52791445379e-07
1.06708736417e-06
-1.67199535793e-07
1.06350350391e-06
-1.80738647303e-07
1.05797222881e-06
-1.93591602881e-07
1.05008955076e-06
-2.05693405689e-07
1.03913056915e-06
-2.168807487e-07
1.02440572329e-06
-2.26594742494e-07
1.00563785597e-06
-2.34105120051e-07
9.83071763731e-07
-2.3870532755e-07
-2.40078572941e-07
9.57775875909e-07
1.30286634062e-06
4.01861595269e-07
1.29962972167e-06
-4.12657729208e-08
1.29991742982e-06
-6.2033472963e-08
1.30019347499e-06
-7.47063198614e-08
1.30027719922e-06
-9.06247312509e-08
1.29954219041e-06
-1.05153724565e-07
1.29801628265e-06
-1.1993085582e-07
1.29529646753e-06
-1.3410598752e-07
1.29117283307e-06
-1.47741084422e-07
1.28552228739e-06
-1.60507520445e-07
1.27784388863e-06
-1.72401472058e-07
1.26799321845e-06
-1.83178346669e-07
1.25546053737e-06
-1.92811431712e-07
1.23998884005e-06
-2.01018880836e-07
1.2211371434e-06
-2.07490039e-07
1.19915287068e-06
-2.11768420807e-07
1.17426467619e-06
-2.13640739568e-07
-2.13031502761e-07
1.14747587526e-06
1.58737225957e-06
3.59885585959e-07
1.58503647862e-06
-3.92908357159e-08
1.58351322991e-06
-6.03862148195e-08
1.58172249107e-06
-7.24451436913e-08
1.57914745664e-06
-8.74468886243e-08
1.57562320578e-06
-1.00834190344e-07
1.57067872802e-06
-1.14187780839e-07
1.56419943825e-06
-1.26779270091e-07
1.55594644128e-06
-1.38618472911e-07
1.54561928188e-06
-1.49542579466e-07
1.53310973915e-06
-1.59316059152e-07
1.51813868086e-06
-1.67830849549e-07
1.50064034482e-06
-1.74915274768e-07
1.4803812202e-06
-1.80485694951e-07
1.45752166707e-06
-1.84276346599e-07
1.43220092385e-06
-1.8619394154e-07
1.40500354554e-06
-1.86139196412e-07
-1.84283522737e-07
1.37648122795e-06
1.92992065295e-06
3.11399861214e-07
1.92791570502e-06
-3.83155994231e-08
1.92340040402e-06
-5.65229199008e-08
1.91908523389e-06
-6.79479571943e-08
1.91308261154e-06
-8.10811117478e-08
1.90582122136e-06
-9.29151239539e-08
1.89648469678e-06
-1.04342236663e-07
1.88526964831e-06
-1.14911425992e-07
1.87174393697e-06
-1.24602637345e-07
1.85603427097e-06
-1.33243505331e-07
1.83789235929e-06
-1.407242055e-07
1.8174634601e-06
-1.46868967272e-07
1.79463089683e-06
-1.51644593936e-07
1.76965466271e-06
-1.54977386291e-07
1.74260099652e-06
-1.5678740186e-07
1.71401354106e-06
-1.57064388212e-07
1.68411385431e-06
-1.55847531469e-07
-1.53329127884e-07
1.6537091297e-06
2.34666705365e-06
2.57492110066e-07
2.34285910376e-06
-3.70965862566e-08
2.3337573396e-06
-4.9069631095e-08
2.32581125224e-06
-6.03209483733e-08
2.31531034415e-06
-7.05784409455e-08
2.30325735583e-06
-8.02195849048e-08
2.28867898094e-06
-8.91083478614e-08
2.27170534767e-06
-9.71725472373e-08
2.2522810239e-06
-1.04385975517e-07
2.23039750762e-06
-1.10618561135e-07
2.20627714783e-06
-1.1578959336e-07
2.17998280803e-06
-1.19806014434e-07
2.15176382825e-06
-1.22638184255e-07
2.12191567838e-06
-1.24336441195e-07
2.09062572085e-06
-1.24827157871e-07
2.0585697656e-06
-1.24196847549e-07
2.02566410627e-06
-1.22483473725e-07
-1.19805308673e-07
1.99290962739e-06
1.7132294019e-06
2.1789502382e-07
1.71182272686e-06
-4.15439362048e-08
1.70421216987e-06
-4.59120155092e-08
1.69664557336e-06
-5.50658963875e-08
1.68793446543e-06
-6.23139914304e-08
1.67737650232e-06
-6.98245717154e-08
1.66542361547e-06
-7.6462628359e-08
1.65152438559e-06
-8.268684495e-08
1.63617769644e-06
-8.81184359135e-08
1.61927051648e-06
-9.27729298187e-08
1.60096227031e-06
-9.65830476281e-08
1.58159644535e-06
-9.93558948105e-08
1.56102009379e-06
-1.0128918894e-07
1.53999710795e-06
-1.02140177302e-07
1.51806768074e-06
-1.02186479139e-07
1.49623619993e-06
-1.01209323126e-07
1.47396168268e-06
-9.95969796772e-08
-9.74699684249e-08
1.45286038315e-06
1.51426956558e-06
1.62600812675e-07
1.49257939045e-06
-2.60435024242e-08
1.48526278342e-06
-4.09994253934e-08
1.47752845154e-06
-5.08350333336e-08
1.46910004037e-06
-5.55427008703e-08
1.45923015139e-06
-6.08269668114e-08
1.44788060684e-06
-6.51907981978e-08
1.43515884504e-06
-6.95120022349e-08
1.42114711792e-06
-7.33877126152e-08
1.40594689003e-06
-7.67324921392e-08
1.38981569466e-06
-7.94810859148e-08
1.37267738946e-06
-8.1451169799e-08
1.3551656717e-06
-8.26558225102e-08
1.33688269934e-06
-8.31438378858e-08
1.31863666959e-06
-8.28693894033e-08
1.29987468858e-06
-8.18436383259e-08
1.28129914493e-06
-7.99628852422e-08
-7.61808777856e-08
1.26046598549e-06
1.24532245011e-06
1.81195054441e-07
1.30459753524e-06
-9.08377773509e-08
1.29997344412e-06
-4.40559948006e-08
1.29467532383e-06
-4.75239590719e-08
1.28683922575e-06
-4.93194526462e-08
1.27795252369e-06
-5.21800156465e-08
1.26744219668e-06
-5.50071851393e-08
1.25594449757e-06
-5.78478500678e-08
1.24356654163e-06
-6.04100900075e-08
1.23028710839e-06
-6.28665939687e-08
1.2164548679e-06
-6.4746940309e-08
1.20197488038e-06
-6.62208780453e-08
1.18737130823e-06
-6.70341640209e-08
1.17236825868e-06
-6.75260780307e-08
1.15762669268e-06
-6.71190501811e-08
1.14267011238e-06
-6.64989414353e-08
1.12879839227e-06
-6.54021535123e-08
-6.82401289604e-08
1.1213756438e-06
1.34266118001e-06
-5.05764502036e-08
1.13337310547e-06
1.16860301719e-07
1.1277883521e-06
-3.68397308715e-08
1.12329524123e-06
-4.53510813745e-08
1.11685028863e-06
-4.38818953992e-08
1.10836758267e-06
-4.48311566746e-08
1.09894173948e-06
-4.5394074389e-08
1.08844693586e-06
-4.69302749209e-08
1.07701040415e-06
-4.84998918514e-08
1.0649211135e-06
-4.99127887556e-08
1.05202173762e-06
-5.12414169533e-08
1.03891357597e-06
-5.2167850317e-08
1.02518631699e-06
-5.27957216035e-08
1.01181125759e-06
-5.27630272008e-08
9.97531558857e-07
-5.27044341845e-08
9.84200013274e-07
-5.19963625723e-08
9.69523136177e-07
-5.08939703331e-08
-4.01334744712e-08
9.42204523612e-07
4.88820677902e-07
4.24146072463e-07
1.00980562879e-06
-4.04066008195e-07
1.01595776822e-06
-4.65958474694e-08
1.00907210022e-06
-3.76443775067e-08
1.00256605882e-06
-3.69353209253e-08
9.95008744712e-07
-3.62514949647e-08
9.86326415402e-07
-3.6415805289e-08
9.771650114e-07
-3.71940219378e-08
9.67599967394e-07
-3.82255443734e-08
9.57783562635e-07
-3.95747120655e-08
9.47780634994e-07
-4.06813815552e-08
9.3754130685e-07
-4.12607537591e-08
9.27212878905e-07
-4.15474716892e-08
9.16705393022e-07
-4.17212142176e-08
9.06280748058e-07
-4.13779284285e-08
8.94786992759e-07
-4.01250481144e-08
8.81841124714e-07
-3.75215092156e-08
-4.69082041349e-08
8.88935379696e-07
1.85394367769e-06
-5.78698407407e-07
8.28646245406e-07
6.2743216715e-07
8.37788675486e-07
-5.04423594454e-08
8.46896077019e-07
-4.5256852164e-08
8.39975454803e-07
-2.97186749713e-08
8.32470394107e-07
-2.87843743163e-08
8.24210945694e-07
-2.72851992596e-08
8.15462030276e-07
-2.78383563772e-08
8.06355914406e-07
-2.87076916462e-08
7.97121835314e-07
-2.97973035888e-08
7.87760178096e-07
-3.08004402304e-08
7.78388817489e-07
-3.15123069876e-08
7.69173133345e-07
-3.19267110895e-08
7.60076797483e-07
-3.20855922985e-08
7.51380536648e-07
-3.22988233031e-08
7.45099060912e-07
-3.35934905876e-08
7.45965452431e-07
-3.78035357906e-08
-2.98880845067e-08
7.2887710622e-07
-7.81019151468e-07
9.44310924571e-07
8.55529944949e-07
-1.00179680031e-06
8.23297253656e-07
-1.52839980058e-08
7.92946460416e-07
-1.16976021762e-08
7.90046900917e-07
-2.41611950234e-08
7.83390997025e-07
-2.06251091141e-08
7.77073620139e-07
-2.03591055877e-08
7.6976578659e-07
-2.0071975109e-08
7.617916267e-07
-2.02616057602e-08
7.53022962232e-07
-2.06103430575e-08
7.43404077814e-07
-2.07500287444e-08
7.326497959e-07
-2.02814774008e-08
7.2092650911e-07
-1.97721045411e-08
7.08124003368e-07
-1.90755416848e-08
6.94177450303e-07
-1.82297939596e-08
6.76953407389e-07
-1.63799428045e-08
6.50279649644e-07
-1.08566198708e-08
-1.78191173292e-08
6.38621239306e-07
2.36876948632e-06
-7.74157838761e-07
5.15283138092e-07
8.60977118737e-07
6.34806003331e-07
-1.28714819204e-07
6.59155497891e-07
-2.87478675165e-08
6.50766011996e-07
-1.62345080763e-08
6.4544960608e-07
-1.43662076151e-08
6.38918006528e-07
-1.29594221861e-08
6.33049625269e-07
-1.36978782746e-08
6.27546518505e-07
-1.43536371947e-08
6.22882478457e-07
-1.54762950025e-08
6.19197564755e-07
-1.61422386068e-08
6.15783178238e-07
-1.66544828691e-08
6.13114690785e-07
-1.69115370032e-08
6.11320691389e-07
-1.70928832437e-08
6.10221753808e-07
-1.71181137837e-08
6.11610279547e-07
-1.77553549189e-08
6.22630877036e-07
-2.18521508246e-08
-9.07470149886e-09
6.14614091354e-07
-7.6042631568e-07
5.5721102312e-07
8.93532295345e-07
-7.81804369905e-07
5.74418019024e-07
1.9864937158e-07
6.01876144944e-07
-4.78191904034e-08
5.83150283245e-07
4.83644877884e-09
5.78952181538e-07
-8.88436327815e-09
5.71537997006e-07
-4.51597832723e-09
5.63773120505e-07
-5.40245610961e-09
5.55542678462e-07
-5.72332352947e-09
5.47266314012e-07
-6.41253370571e-09
5.39095175339e-07
-7.1258176532e-09
5.30720528364e-07
-7.75459468365e-09
5.22260029739e-07
-8.15007278889e-09
5.13770334034e-07
-8.38016346256e-09
5.05238033653e-07
-8.54799075335e-09
4.95251863661e-07
-7.9013318243e-09
4.75420876884e-07
-1.52391336396e-09
-1.53856113372e-08
4.81867800182e-07
1.27196463317e-06
-2.13648587283e-07
3.81797277063e-07
1.21280551328e-07
6.07307670039e-07
-1.67438649237e-08
5.59309689937e-07
1.0037105595e-08
5.7125184386e-07
-3.88125648402e-09
5.63689174254e-07
3.18514509404e-10
5.61991523586e-07
-1.64342338967e-09
5.58490062664e-07
-1.26163821782e-09
5.55252002596e-07
-1.91763136131e-09
5.51863183714e-07
-2.08072182289e-09
5.48169372226e-07
-2.32639804101e-09
5.43839201051e-07
-2.75534464674e-09
5.39083255729e-07
-2.99417054368e-09
5.3380551273e-07
-2.84722297751e-09
5.27488777037e-07
-2.20766905607e-09
5.22068282235e-07
-2.39800398205e-09
5.28445213649e-07
-7.73073259361e-09
1.2002100278e-08
5.01498281314e-07
2.07621585749e-07
3.29715140551e-07
3.13911427618e-07
3.24276889404e-07
3.20570139461e-07
3.21028779259e-07
3.19466346683e-07
3.18273316695e-07
3.16481561751e-07
3.14579762398e-07
3.12372919991e-07
3.09690984162e-07
3.06752371538e-07
3.03920032758e-07
3.01710926935e-07
2.99356988732e-07
2.91733140815e-07
3.03637289393e-07
6.18255033053e-08
-9.00099691918e-08
5.73557846077e-08
-1.88297131943e-08
1.43520108657e-09
2.37178499849e-08
-5.51793649652e-08
2.60212196899e-08
-9.79481657067e-08
1.06048026644e-08
-1.39668072393e-07
1.91651009376e-08
-1.80064157745e-07
2.51718577768e-08
-2.16359805924e-07
2.23258984971e-08
-2.42392394062e-07
1.72657076228e-08
-2.64450247089e-07
1.20939666877e-08
-2.77067367938e-07
7.54210856383e-09
-2.87386347897e-07
3.52089247429e-09
-2.90278043722e-07
2.29140496927e-10
-2.91925922532e-07
-2.58390139992e-09
-2.88348906811e-07
-4.72610317278e-09
-2.84271858479e-07
-6.42631127413e-09
-2.77059095394e-07
-7.5475617922e-09
-2.69875952346e-07
-8.29990959614e-09
-2.61226178059e-07
-8.6294570461e-09
-2.52952583642e-07
-8.71421616438e-09
-2.44358811638e-07
-8.54626199547e-09
-2.36252487278e-07
-8.25961224798e-09
-2.28475207275e-07
-7.8762540583e-09
-2.211379056e-07
-7.46870562225e-09
-2.14359581465e-07
-7.06937529074e-09
-2.07905709837e-07
-6.7142345353e-09
-2.01985314675e-07
-6.42571697785e-09
-1.96214454092e-07
-6.20651425861e-09
-1.90782150787e-07
-6.07591341735e-09
-1.85350748511e-07
-6.02305064429e-09
-1.8001379131e-07
-6.05626086928e-09
-1.74536926027e-07
-6.15881773866e-09
-1.68912862734e-07
-6.33345628917e-09
-1.63045549303e-07
-6.56368611225e-09
-1.56849948953e-07
-6.8432332343e-09
-1.50322050429e-07
-7.16500931052e-09
-1.43370240012e-07
-7.51793453964e-09
-1.36012807136e-07
-7.89169305814e-09
-1.28199612533e-07
-8.28149700874e-09
-1.19940812164e-07
-8.67717242812e-09
-1.11248990769e-07
-9.07529677278e-09
-1.02091599208e-07
-9.46425280797e-09
-9.25696587834e-08
-9.84842960156e-09
-8.2582365678e-08
-1.02108919396e-08
-7.23290726312e-08
-1.05668902185e-08
-6.16309886025e-08
-1.08904633415e-08
-5.07602835148e-08
-1.12104275952e-08
-3.95081472232e-08
-1.14927620666e-08
-2.81567259578e-08
-1.17671398867e-08
-1.64992334798e-08
-1.20013526785e-08
-4.8025259389e-09
-1.22301779252e-08
7.12119063547e-09
-1.24086981591e-08
1.90720272254e-08
-1.25738082415e-08
3.11499390676e-08
-1.26972096646e-08
4.32384475064e-08
-1.28019750877e-08
5.54084232662e-08
-1.28700429565e-08
6.75893430805e-08
-1.29286472864e-08
7.98291906401e-08
-1.29639277214e-08
9.20844989777e-08
-1.30025450671e-08
1.0441555563e-07
-1.30355316193e-08
1.16782464404e-07
-1.3092006626e-08
1.29222488373e-07
-1.31289718282e-08
1.41534468748e-07
-1.3005109424e-08
1.5314241658e-07
-1.22968974429e-08
1.64149481242e-07
-1.17011634588e-08
1.74762691486e-07
-1.13112490787e-08
1.85103173461e-07
-1.09866888701e-08
1.95125500733e-07
-1.07101762578e-08
2.05027785885e-07
-1.04410933947e-08
2.14624300936e-07
-1.0196220089e-08
2.241862755e-07
-9.92693369826e-09
2.33420396914e-07
-9.68332891733e-09
2.42705899155e-07
-9.40566020565e-09
2.51662721438e-07
-9.19166078117e-09
2.60741201147e-07
-8.95454028093e-09
2.69562543266e-07
-8.81469233887e-09
2.78628647283e-07
-8.68223938087e-09
2.87631744756e-07
-8.67437430769e-09
2.97103057959e-07
-8.68992055679e-09
3.06687197891e-07
-8.87732342049e-09
3.16943861297e-07
-9.11157838423e-09
3.27574705641e-07
-9.53958732562e-09
3.39166210196e-07
-1.00279095708e-08
3.51411941046e-07
-1.07539072538e-08
3.64923771673e-07
-1.15795559548e-08
3.79596612339e-07
-1.27014217332e-08
3.96095424703e-07
-1.4033761179e-08
4.14712776979e-07
-1.57618251505e-08
4.36385685309e-07
-1.80891266546e-08
4.62623860397e-07
-2.06008049319e-08
4.92789708068e-07
-2.38848278283e-08
5.27292393174e-07
-2.71373942416e-08
5.65596458356e-07
-3.07503900931e-08
6.08391740033e-07
-3.44701803066e-08
6.55139466026e-07
-3.84300388315e-08
7.05425510827e-07
-4.14170993052e-08
7.56487592477e-07
-4.24123387697e-08
8.06501736948e-07
-4.11014660225e-08
8.5440795744e-07
-3.93842995075e-08
9.02453157842e-07
-3.96500865457e-08
9.55826471463e-07
-4.54020712904e-08
1.02350015572e-06
-6.00032490917e-08
1.10023219529e-06
-6.98269721808e-08
1.20106668595e-06
-9.39392642318e-08
1.33666669114e-06
-1.29639703674e-07
1.47474882362e-06
-1.32542939254e-07
1.5386828937e-06
-6.04758049598e-08
1.31399320065e-06
2.26210517774e-07
9.37724840413e-07
3.75719642154e-07
7.65410308557e-07
1.71559744274e-07
6.63990452019e-07
1.00443695081e-07
5.95416243915e-07
6.79937309761e-08
5.45131417128e-07
4.99287641181e-08
5.06522532302e-07
3.87531930217e-08
4.75860972861e-07
3.1187962214e-08
4.51037065745e-07
2.58306604555e-08
4.30563617764e-07
2.18661706879e-08
4.1348828848e-07
1.89016806452e-08
3.99002034183e-07
1.66147405913e-08
3.86582966295e-07
1.48770580597e-08
3.75705948295e-07
1.34703155273e-08
3.66131675588e-07
1.23753050233e-08
3.57544731242e-07
1.14447329793e-08
3.49807236444e-07
1.06855436884e-08
3.42706264436e-07
9.99753171511e-09
3.36199618887e-07
9.40472526049e-09
3.30157092668e-07
8.80079809421e-09
3.24651115511e-07
8.24812785784e-09
3.19597662578e-07
7.62504038239e-09
3.15148664663e-07
7.02064044893e-09
3.11022805329e-07
6.51223638112e-09
3.07374908183e-07
6.06138193567e-09
3.04168537e-07
5.43327065358e-09
3.01809184828e-07
4.64824068969e-09
3.00172015889e-07
3.73478786527e-09
2.99460003855e-07
2.89749931294e-09
2.99414089976e-07
1.9643898603e-09
2.9998294008e-07
1.13210817374e-09
3.00765348203e-07
1.93308115236e-10
3.01832079813e-07
-6.76588173554e-10
3.03302608666e-07
-1.54108750938e-09
3.05293353748e-07
-2.25719612506e-09
3.07773058812e-07
-2.79996288222e-09
3.10544331501e-07
-3.11795138349e-09
3.13438927841e-07
-3.31657253826e-09
3.16359966798e-07
-3.33516141537e-09
3.19179408058e-07
-3.30608539192e-09
3.21890414122e-07
-3.14361720972e-09
3.24378368395e-07
-3.02626630479e-09
3.26722808228e-07
-2.8154439292e-09
3.2877172297e-07
-2.70511837893e-09
3.30659866453e-07
-2.46388525164e-09
3.32166031695e-07
-2.3708109979e-09
3.33584412863e-07
-2.17282603046e-09
3.34650683335e-07
-2.25018488635e-09
3.35790990593e-07
-2.19387391012e-09
3.36545179744e-07
-2.4593314345e-09
3.37481906157e-07
-2.54572352521e-09
3.37932771032e-07
-3.05997815327e-09
3.3861339269e-07
-3.30592119625e-09
3.38449235799e-07
-3.94957904134e-09
3.38207461921e-07
-4.06392175409e-09
3.36312065458e-07
-4.50928924386e-09
3.33779533955e-07
-4.27912674009e-09
3.28561453794e-07
-4.41211477179e-09
3.2174964446e-07
-3.48459608086e-09
3.10473045506e-07
-2.66473021678e-09
2.95923486314e-07
-3.65583362318e-10
2.74668291802e-07
1.78515032311e-09
2.48873367539e-07
5.05236404202e-09
2.14949284162e-07
7.68854064749e-09
1.76222035196e-07
1.09795618879e-08
1.28570251868e-07
1.35193377501e-08
7.67451109952e-08
1.60642787245e-08
1.50980186939e-08
1.87715613345e-08
-5.36857220154e-08
2.40292031606e-08
-1.38989826942e-07
3.28145242455e-08
-2.38602348382e-07
4.58086575058e-08
-3.59964112032e-07
6.11876291689e-08
3.2544645489e-08
-4.52040555697e-07
3.11426109489e-08
-1.48263676799e-07
2.07078081212e-08
-2.81108927987e-08
-2.62641480915e-08
5.58694051664e-08
-7.63100395968e-08
6.57523681966e-08
-1.2298737845e-07
4.82594182041e-08
-1.39145009655e-07
2.71651286021e-08
-1.31241939759e-07
1.01995998183e-08
-1.13973386828e-07
-2.14013461682e-09
-9.15824054302e-08
-1.04743671025e-08
-6.98051639352e-08
-1.55829320653e-08
-4.77251501762e-08
-1.82966072288e-08
-2.90917394257e-08
-1.94080665938e-08
-1.17028860701e-08
-1.94873482401e-08
1.94086252677e-09
-1.90028860764e-08
1.41806562728e-08
-1.82126573321e-08
2.35239371764e-08
-1.7342330054e-08
3.19078362681e-08
-1.64893833874e-08
3.85933956009e-08
-1.57514769919e-08
4.49163933921e-08
-1.5157427991e-08
5.06458917147e-08
-1.4738408852e-08
5.65015739692e-08
-1.45024242139e-08
6.25479511501e-08
-1.44334017897e-08
6.90568797914e-08
-1.45260470002e-08
7.62134673107e-08
-1.47545044243e-08
8.39718921996e-08
-1.51041902229e-08
9.2553128399e-08
-1.55385570033e-08
1.01756505211e-07
-1.60470834638e-08
1.11760241317e-07
-1.65961313831e-08
1.22326528691e-07
-1.71726087254e-08
1.33544876692e-07
-1.77536249203e-08
1.45222706281e-07
-1.83274023938e-08
1.57354128898e-07
-1.88809162508e-08
1.69822433128e-07
-1.94015493509e-08
1.82550761874e-07
-1.98913027849e-08
1.95475389784e-07
-2.03417835768e-08
2.08497819618e-07
-2.07528753509e-08
2.21591711051e-07
-2.11250443785e-08
2.34663291908e-07
-2.14629719719e-08
2.47700099185e-07
-2.17643057825e-08
2.60645861174e-07
-2.20343123715e-08
2.73471555871e-07
-2.22767818911e-08
2.86173320512e-07
-2.24925936883e-08
2.98691420748e-07
-2.26883140744e-08
3.11075350928e-07
-2.28615037687e-08
3.23229868884e-07
-2.30214989635e-08
3.35246799005e-07
-2.31621251504e-08
3.4701025072e-07
-2.32931101184e-08
3.58635247424e-07
-2.34051708149e-08
3.69992604357e-07
-2.35111345217e-08
3.81193587021e-07
-2.35916893819e-08
3.92149680746e-07
-2.36546536478e-08
4.02935276079e-07
-2.3693613295e-08
4.13497845948e-07
-2.37074004817e-08
4.23889368725e-07
-2.36876631211e-08
4.34083787351e-07
-2.36373157326e-08
4.44097757444e-07
-2.35515991049e-08
4.53925457016e-07
-2.34300805474e-08
4.63548305116e-07
-2.327706288e-08
4.72961554086e-07
-2.30901763842e-08
4.82115051388e-07
-2.28788952684e-08
4.91005494646e-07
-2.26370119849e-08
4.99622192056e-07
-2.24169823862e-08
5.08334686522e-07
-2.23779022224e-08
5.17748871021e-07
-2.23883244567e-08
5.26894872094e-07
-2.15005893828e-08
5.35428064995e-07
-2.05312351456e-08
5.43233490101e-07
-1.94286837327e-08
5.50066108384e-07
-1.8188868559e-08
5.55881695555e-07
-1.68138799746e-08
5.60485375177e-07
-1.53438620452e-08
5.6394126843e-07
-1.37905439009e-08
5.66093388752e-07
-1.22116085193e-08
5.67083536319e-07
-1.06189429597e-08
5.66797319961e-07
-9.06325439962e-09
5.65391062745e-07
-7.5556788834e-09
5.62761833025e-07
-6.13064949111e-09
5.59089197802e-07
-4.76943481527e-09
5.54281330362e-07
-3.49200125935e-09
5.48438756688e-07
-2.27427859095e-09
5.41405329559e-07
-1.13169642955e-09
5.33238970854e-07
-3.25541586894e-11
5.23784376336e-07