/*--------------------------------*- C++ -*----------------------------------*\
| =========                 |                                                 |
| \\      /  F ield         | OpenFOAM: The Open Source CFD Toolbox           |
|  \\    /   O peration     | Version:  v1806                                 |
|   \\  /    A nd           | Web:      www.OpenFOAM.com                      |
|    \\/     M anipulation  |                                                 |
\*---------------------------------------------------------------------------*/
FoamFile
{
    version     2.0;
    format      ascii;
    class       volVectorField;
    location    "13";
    object      U;
}
// * * * * * * * * * * * * * * * * * * * * * * * * * * * * * * * * * * * * * //

dimensions      [0 1 -1 0 0 0 0];


internalField   nonuniform List<vector> 
12225
(
(9.73883173704 0.0398388986099 0)
(9.50311631706 0.04085637262 0)
(9.24785406765 0.0400409278019 0)
(8.99717824039 0.0402638272244 0)
(8.75982888434 0.0402896590072 0)
(8.53479132417 0.039906276905 0)
(8.32004033689 0.0393102415476 0)
(8.1146211549 0.0386672018801 0)
(7.91812375607 0.0380531219368 0)
(7.73010044884 0.0374965023703 0)
(7.54989039845 0.0370146935006 0)
(7.37665962083 0.0366304628464 0)
(7.20946278358 0.0363781195269 0)
(7.04725302856 0.0363098241151 0)
(6.8887959713 0.036513537957 0)
(6.73237262155 0.0371789526703 0)
(6.57553071142 0.0389456769594 0)
(6.40281734889 0.0376176358203 0)
(10.0165067811 0.0711937158685 0)
(10.0368049778 0.0698848620546 0)
(10.024588187 0.0666794047436 0)
(9.99686332775 0.0673063267065 0)
(9.96331996414 0.0682462192242 0)
(9.92522070278 0.0686428868712 0)
(9.88241859036 0.0687986349074 0)
(9.83539486789 0.0690019548598 0)
(9.78492270673 0.0693551290155 0)
(9.73161066237 0.0698734114651 0)
(9.67577269639 0.0705691909901 0)
(9.61747079285 0.0714864820791 0)
(9.55657060337 0.0727113624166 0)
(9.4927453922 0.0743860298259 0)
(9.42540150737 0.076754593433 0)
(9.35346508397 0.0803019651754 0)
(9.27596296524 0.0862736262067 0)
(9.18272556711 0.098882039555 0)
(10.0212489866 0.0579991802546 0)
(10.053567419 0.0580798841108 0)
(10.0679068622 0.0558835760859 0)
(10.0723011426 0.0584021267124 0)
(10.0741645228 0.0613978436176 0)
(10.0742336329 0.0636187237371 0)
(10.0717397487 0.0654473225574 0)
(10.0664984955 0.0672912006188 0)
(10.0587277456 0.0692979263559 0)
(10.0486239069 0.0714925107225 0)
(10.0362133294 0.073902889241 0)
(10.0213745332 0.0766112676898 0)
(10.003885619 0.0797688863028 0)
(9.98343709721 0.0836159185579 0)
(9.95961016273 0.0885431922288 0)
(9.93183641125 0.0952424120136 0)
(9.9000572674 0.105049276951 0)
(9.85996329822 0.118908909499 0)
(10.0159969342 0.0475233855679 0)
(10.0433878171 0.0549333682485 0)
(10.0595645517 0.056253766217 0)
(10.0672136583 0.0601206321016 0)
(10.0726687734 0.0639007633131 0)
(10.0772127326 0.0666310371879 0)
(10.0802830377 0.0688310914189 0)
(10.0816162775 0.0710211465505 0)
(10.0813135095 0.0734089219102 0)
(10.079494971 0.076047751258 0)
(10.076149096 0.0789887183056 0)
(10.0711445588 0.0823444321326 0)
(10.0642806666 0.086306831938 0)
(10.0553197752 0.0911664237424 0)
(10.0440096512 0.0973653233147 0)
(10.0301296839 0.105596434987 0)
(10.0139597349 0.116950414427 0)
(9.99393613269 0.131982330479 0)
(10.0116732883 0.0394200046094 0)
(10.0338781012 0.0508017050101 0)
(10.0492841834 0.0534990916502 0)
(10.0572873827 0.0570195531384 0)
(10.0628671206 0.060602417245 0)
(10.0676119374 0.063462264033 0)
(10.0711791438 0.0659554902935 0)
(10.0732843872 0.0685253810576 0)
(10.0739731587 0.071365081084 0)
(10.0733549019 0.0745331145656 0)
(10.0714452702 0.0780930042348 0)
(10.0681601307 0.0821748265264 0)
(10.063361841 0.0869913872747 0)
(10.0569026156 0.092852284346 0)
(10.0486681645 0.100199493643 0)
(10.0386478798 0.109658585831 0)
(10.0272243055 0.122076581786 0)
(10.0139779161 0.137962115384 0)
(10.0084983982 0.0329466677575 0)
(10.0263162587 0.0464089865371 0)
(10.0404817527 0.0507869927188 0)
(10.048579378 0.0548244445517 0)
(10.054132556 0.0589865070329 0)
(10.0587686588 0.0625945496978 0)
(10.0623378507 0.0658034263584 0)
(10.0645647066 0.0689894135654 0)
(10.0654520288 0.0723800914852 0)
(10.0650986252 0.0760891392978 0)
(10.06354425 0.0802243981533 0)
(10.060747754 0.0849458568726 0)
(10.0566270911 0.0904842514156 0)
(10.0511078431 0.0971524633501 0)
(10.0441751035 0.105365484165 0)
(10.035943059 0.115657340332 0)
(10.0268359843 0.128664796717 0)
(10.0169209729 0.144814378449 0)
(10.0061756163 0.0277929791408 0)
(10.0203865117 0.0421233006074 0)
(10.0331003351 0.0480087073688 0)
(10.0410955502 0.0525761958256 0)
(10.0465898815 0.0570561925693 0)
(10.0510793854 0.0610313061441 0)
(10.054583391 0.0645868689174 0)
(10.0568674624 0.0680796974227 0)
(10.0579042377 0.0717847438183 0)
(10.0577760658 0.0758669526153 0)
(10.056536605 0.0804633328482 0)
(10.0541788891 0.0857424162267 0)
(10.050668008 0.0919288483208 0)
(10.0459897102 0.0993136008696 0)
(10.0402020921 0.108260900169 0)
(10.033493908 0.119201971945 0)
(10.0262958615 0.132593977962 0)
(10.0188299236 0.148722474294 0)
(10.0044944004 0.0236836237487 0)
(10.0157896306 0.0380787833436 0)
(10.0269843014 0.0451477501759 0)
(10.0347062746 0.0502710119987 0)
(10.0401284953 0.0550721412926 0)
(10.0445051816 0.0594431059095 0)
(10.0479733451 0.0634545775386 0)
(10.0503512936 0.0674212128916 0)
(10.0515906551 0.071622880488 0)
(10.0517539385 0.0762434075342 0)
(10.0509023377 0.0814290062206 0)
(10.0490585006 0.0873446355096 0)
(10.0462303594 0.0942001418842 0)
(10.0424549215 0.102256807139 0)
(10.0378440611 0.111823021779 0)
(10.0326284532 0.123233665977 0)
(10.0272226244 0.136802145078 0)
(10.0219187393 0.152683113185 0)
(10.0032830279 0.0203908340431 0)
(10.0122565194 0.0343567358064 0)
(10.0219731504 0.0422603292807 0)
(10.0292885378 0.0479234632774 0)
(10.0346125175 0.0530445280559 0)
(10.0389039849 0.0577756519971 0)
(10.0423588795 0.062202615788 0)
(10.0448499505 0.0665941772759 0)
(10.0463205349 0.0712201058768 0)
(10.0468169866 0.0762774599172 0)
(10.0464061348 0.0819243633111 0)
(10.0451369417 0.0883264152445 0)
(10.0430550098 0.0956800560676 0)
(10.0402383817 0.104215194422 0)
(10.0368344765 0.114183953512 0)
(10.0330898649 0.125834321873 0)
(10.0293816224 0.139365828924 0)
(10.0260123823 0.154830816618 0)
(10.002412948 0.0177308056583 0)
(10.0095630784 0.030986313631 0)
(10.0179158972 0.0393919914423 0)
(10.0247372185 0.0455255849581 0)
(10.0299314824 0.0509519164676 0)
(10.0341613946 0.0560067496213 0)
(10.0376314316 0.0608144076237 0)
(10.0402628124 0.0656100743732 0)
(10.0420016888 0.070647998966 0)
(10.0428831432 0.0761311067281 0)
(10.0429771108 0.0822239432461 0)
(10.0423527635 0.0890869160323 0)
(10.0410847437 0.0968956057632 0)
(10.039279704 0.105841285817 0)
(10.0371035926 0.116117342526 0)
(10.0347998582 0.127893650249 0)
(10.0326984719 0.141281106277 0)
(10.0311158519 0.156262064514 0)
(10.001787414 0.0155613091063 0)
(10.0075230981 0.0279757693291 0)
(10.0146693374 0.0366006354859 0)
(10.0209581039 0.0430963821909 0)
(10.0259972186 0.0487919840919 0)
(10.0301875129 0.0541268194728 0)
(10.0337052223 0.059268796721 0)
(10.0365079926 0.0644293346878 0)
(10.0385514323 0.06984137609 0)
(10.0398637352 0.0757031137475 0)
(10.0405154307 0.0821768956913 0)
(10.0405891662 0.0894117379522 0)
(10.0401794474 0.0975582497612 0)
(10.0394099812 0.106768189434 0)
(10.0384517678 0.117181618203 0)
(10.0375325254 0.128905135671 0)
(10.0369296459 0.141986350548 0)
(10.0369649046 0.156366300844 0)
(10.001372303 0.0138795340969 0)
(10.0061148573 0.0254759498232 0)
(10.0123124944 0.0341110851863 0)
(10.0181146486 0.0408395318043 0)
(10.0229990371 0.046743265341 0)
(10.0271735709 0.0522968636285 0)
(10.0307681432 0.0577022274694 0)
(10.0337605174 0.063155759849 0)
(10.0361171354 0.0688689584622 0)
(10.0378630979 0.0750291112079 0)
(10.0390675911 0.0817909589389 0)
(10.0398195351 0.0892899222833 0)
(10.0402232771 0.0976527613363 0)
(10.0404085517 0.106996897524 0)
(10.0405414147 0.117419552225 0)
(10.0408284273 0.128980913256 0)
(10.0415013985 0.141686687866 0)
(10.0428934177 0.155455118787 0)
(10.0010640647 0.0124729559545 0)
(10.0050299774 0.0232422437059 0)
(10.0104244667 0.0317171636187 0)
(10.0157682835 0.0385602900322 0)
(10.0204950907 0.0446158063907 0)
(10.0246663408 0.0503411149321 0)
(10.02835989 0.05595760749 0)
(10.0315633114 0.0616514079563 0)
(10.034253601 0.0676129208446 0)
(10.0364549651 0.0740135848789 0)
(10.0382343065 0.0809955983135 0)
(10.0396825808 0.0886781771691 0)
(10.0409079539 0.0971645612539 0)
(10.0420398244 0.106541080122 0)
(10.0432339051 0.116868990754 0)
(10.0446727061 0.128172205704 0)
(10.0465430608 0.140426350819 0)
(10.0491920699 0.153534139477 0)
(10.0008100806 0.0110857826153 0)
(10.0041144621 0.020930062653 0)
(10.0087795641 0.0290841901307 0)
(10.0136733772 0.0359309617626 0)
(10.018245106 0.0420822756195 0)
(10.0224449704 0.0479415054786 0)
(10.0262946504 0.0537333415513 0)
(10.0297818837 0.0596322184037 0)
(10.0328919229 0.0658048779469 0)
(10.0356482435 0.0724010398376 0)
(10.0381131152 0.0795440674764 0)
(10.0403741969 0.0873325518681 0)
(10.0425363187 0.0958437546045 0)
(10.0447206227 0.105133004622 0)
(10.0470648647 0.115228412189 0)
(10.049721693 0.126123503632 0)
(10.0528311292 0.137772051148 0)
(10.0567586022 0.150072162737 0)
(10.000613502 0.00971640475666 0)
(10.0033950313 0.0185499641085 0)
(10.0074502739 0.0262066607211 0)
(10.0119459569 0.0328948926453 0)
(10.0163903067 0.039029330755 0)
(10.0206647262 0.0449358213065 0)
(10.02473988 0.0508219722583 0)
(10.0285952925 0.0568444430173 0)
(10.032220011 0.063143245531 0)
(10.0356353036 0.0698409866594 0)
(10.0388959704 0.0770364872872 0)
(10.0420804915 0.0848036862948 0)
(10.0452825885 0.0931928816579 0)
(10.0486072496 0.102230594142 0)
(10.0521677763 0.111917005251 0)
(10.0560833419 0.122223083638 0)
(10.0604476105 0.133089245425 0)
(10.0656485609 0.14441566389 0)
(10.0004759573 0.00833591662003 0)
(10.0028885196 0.0160613541714 0)
(10.006498779 0.0230281567848 0)
(10.0107064594 0.0293543958019 0)
(10.0150972511 0.0353048389565 0)
(10.0195219927 0.0411186234057 0)
(10.0239126264 0.0469669096974 0)
(10.0282354897 0.0529793391068 0)
(10.0324774907 0.0592652686172 0)
(10.0366545668 0.0659161201665 0)
(10.0408102189 0.0730019956541 0)
(10.0450079011 0.0805698257879 0)
(10.0493231271 0.0886438983126 0)
(10.0538380256 0.0972260543797 0)
(10.0586370794 0.106295621826 0)
(10.0638048651 0.115809202423 0)
(10.0693917311 0.125702192738 0)
(10.0758118148 0.135882369608 0)
(10.000397362 0.00687739803484 0)
(10.0026047031 0.0133543765276 0)
(10.0059748582 0.0194078083771 0)
(10.0100658632 0.0251202641218 0)
(10.0145333209 0.0306516138476 0)
(10.0192227953 0.036157712691 0)
(10.0240422525 0.0417601666202 0)
(10.0289439596 0.0475525740023 0)
(10.033907278 0.0536097622954 0)
(10.0389381406 0.059989891415 0)
(10.0440646955 0.0667327770014 0)
(10.0493305093 0.0738590087202 0)
(10.0547876107 0.08137010117 0)
(10.060491209 0.0892494308821 0)
(10.0664952536 0.0974633430646 0)
(10.0728514209 0.105962539733 0)
(10.079571875 0.114684706601 0)
(10.0870978689 0.123550250319 0)
(10.0003770187 0.00521919363169 0)
(10.0025528348 0.0102180250601 0)
(10.005924364 0.0150766119082 0)
(10.0101294278 0.0198687789053 0)
(10.0148632275 0.0246804765806 0)
(10.0199741247 0.0295922900898 0)
(10.0253578513 0.0346702659413 0)
(10.0309547079 0.0399654780333 0)
(10.0367328973 0.0455153239738 0)
(10.0426845047 0.0513439508857 0)
(10.0488194983 0.0574618191144 0)
(10.0551593536 0.0638656742316 0)
(10.0617311472 0.0705388916203 0)
(10.0685630883 0.0774525841974 0)
(10.0756808908 0.0845668623765 0)
(10.0831081346 0.0918327578815 0)
(10.0908267799 0.0991944348512 0)
(10.0993056755 0.10658659193 0)
(10.0004300342 0.00312684287176 0)
(10.0027878517 0.0062279789013 0)
(10.0064687 0.00948168135004 0)
(10.01109701 0.0129540665384 0)
(10.0163587709 0.0166586626325 0)
(10.0220999498 0.0205993382658 0)
(10.028212305 0.0247835055276 0)
(10.034627795 0.0292177009665 0)
(10.0413021336 0.033901705866 0)
(10.0482118269 0.0388276198336 0)
(10.055348662 0.0439800122037 0)
(10.0627134935 0.0493368463042 0)
(10.0703108516 0.0548691596178 0)
(10.0781452132 0.0605419577452 0)
(10.0862184597 0.066314561421 0)
(10.0945314436 0.0721424852597 0)
(10.1030426703 0.0779786322146 0)
(10.1122438008 0.0837720216585 0)
(10.0005708306 0.000873152755429 0)
(10.0033375183 0.00194309251275 0)
(10.0076352503 0.00349849637615 0)
(10.0129473086 0.00557664388256 0)
(10.0188954536 0.00809434576544 0)
(10.0253266571 0.010972905787 0)
(10.0321471527 0.0141677328264 0)
(10.0392908764 0.0176487629867 0)
(10.0467060925 0.0213860057783 0)
(10.0543596792 0.0253471119848 0)
(10.0622340939 0.029499883593 0)
(10.0703198584 0.0338119031145 0)
(10.078609556 0.0382501292344 0)
(10.0870944251 0.0427792757286 0)
(10.0957632224 0.0473626838196 0)
(10.1046049254 0.0519624526935 0)
(10.1135670072 0.0565415788983 0)
(10.1231473369 0.0610621195173 0)
(10.0007574071 -0.00131352374902 0)
(10.0040706738 -0.00213153157299 0)
(10.0091400434 -0.00203496376392 0)
(10.0152121609 -0.0010854499218 0)
(10.0218270783 0.000481935784526 0)
(10.0288619028 0.00250299113964 0)
(10.0362597031 0.00489708249932 0)
(10.0439651929 0.00760787289432 0)
(10.0519236923 0.0105813884898 0)
(10.0601002554 0.0137664588383 0)
(10.0684772938 0.0171194922498 0)
(10.077044248 0.020602865119 0)
(10.0857895191 0.0241821396394 0)
(10.0946985386 0.0278229220303 0)
(10.1037539533 0.0314910481679 0)
(10.1129402413 0.0351523729136 0)
(10.122201726 0.0387743906453 0)
(10.1320531585 0.0423246055302 0)
(10.0010465178 -0.00370162746954 0)
(10.0051672971 -0.00641661763741 0)
(10.0112600096 -0.00758618512635 0)
(10.0182031091 -0.00753534068068 0)
(10.0254836646 -0.00673764802791 0)
(10.0330764713 -0.0054325083181 0)
(10.0409865483 -0.00371274881812 0)
(10.0491644237 -0.00164744238005 0)
(10.057551174 0.000689382150138 0)
(10.0661148848 0.00323431971209 0)
(10.0748446552 0.00593948791304 0)
(10.0837344611 0.00876646945045 0)
(10.0927714846 0.0116817741885 0)
(10.1019370658 0.0146525585907 0)
(10.1112091643 0.0176448931696 0)
(10.1205677311 0.0206263450807 0)
(10.1299527051 0.0235663546469 0)
(10.1398724936 0.0264379408934 0)
(10.0015040317 -0.006442290772 0)
(10.0068061136 -0.01104631455 0)
(10.0142049497 -0.01319420368 0)
(10.0220748458 -0.013775246221 0)
(10.0299663822 -0.0135729622131 0)
(10.0380536162 -0.0128509371152 0)
(10.0464157791 -0.0116891326197 0)
(10.0550005637 -0.0101797500399 0)
(10.0637466326 -0.00842288592406 0)
(10.0726343835 -0.00649263084076 0)
(10.0816656465 -0.00443357136638 0)
(10.0908365236 -0.00227268436714 0)
(10.1001319955 -3.48244273588e-05 0)
(10.1095281487 0.00225387869253 0)
(10.1189988419 0.00456535332666 0)
(10.1285234562 0.00686985319692 0)
(10.1380461712 0.00913721894805 0)
(10.1480993603 0.0113386061287 0)
(10.0022398554 -0.00973635136726 0)
(10.0092587938 -0.0161032349963 0)
(10.0182508816 -0.0187884340878 0)
(10.0270154997 -0.0197104617592 0)
(10.0354126467 -0.019935298579 0)
(10.0439161815 -0.0196311996364 0)
(10.0526511643 -0.01883252006 0)
(10.0615365806 -0.0176564893347 0)
(10.0705137548 -0.0162311661012 0)
(10.0795889601 -0.014641940547 0)
(10.088785908 -0.0129358545019 0)
(10.0981111254 -0.0111425965346 0)
(10.1075490231 -0.00928735144606 0)
(10.1170712794 -0.00739581588983 0)
(10.1266454371 -0.00549387022878 0)
(10.1362422871 -0.00360814448089 0)
(10.1457948334 -0.00176550312667 0)
(10.1558119375 4.44999521106e-06 0)
(10.0034444035 -0.0138657993156 0)
(10.0129106491 -0.021612140614 0)
(10.0237131991 -0.0242579753998 0)
(10.0332276755 -0.0253075115983 0)
(10.0420217753 -0.0259302528485 0)
(10.0509270818 -0.0260906483491 0)
(10.0600467128 -0.0257842796301 0)
(10.0692438872 -0.0251453798562 0)
(10.0784648808 -0.0242925485279 0)
(10.0877427627 -0.023284144116 0)
(10.0971185542 -0.0221454645013 0)
(10.1066036123 -0.0208963451001 0)
(10.1161815442 -0.0195607845664 0)
(10.1258223164 -0.0181656617088 0)
(10.1354919464 -0.0167380056645 0)
(10.1451601761 -0.0153050659104 0)
(10.1547604328 -0.0138992444909 0)
(10.1648283477 -0.012565233381 0)
(10.0053530208 -0.0191993508093 0)
(10.0181888176 -0.0274653315025 0)
(10.0308367506 -0.02939028366 0)
(10.0407876133 -0.0302316794916 0)
(10.0497699186 -0.0307817130296 0)
(10.058924588 -0.0307876132474 0)
(10.0682667343 -0.0303469154955 0)
(10.0776214951 -0.0296883060508 0)
(10.0869668996 -0.0289383659031 0)
(10.0963667385 -0.0281219846678 0)
(10.1058694108 -0.0272293779852 0)
(10.1154798476 -0.0262569662313 0)
(10.1251734735 -0.025214825427 0)
(10.1349150994 -0.0241209633527 0)
(10.1446669381 -0.0229940681979 0)
(10.154389524 -0.02185247072 0)
(10.1639933868 -0.0207242940759 0)
(10.1739450287 -0.0196682047914 0)
(10.0084548964 -0.0262113328865 0)
(10.0257752982 -0.0334677517532 0)
(10.0401177037 -0.0347083063416 0)
(10.0503409997 -0.0362900085931 0)
(10.0596004305 -0.037698734726 0)
(10.0690803249 -0.038294341956 0)
(10.0786174481 -0.0382815272626 0)
(10.0880378494 -0.0379998230356 0)
(10.0973924757 -0.0376142514536 0)
(10.1067930687 -0.0371531623389 0)
(10.11629905 -0.0366027157663 0)
(10.125909303 -0.0359557032777 0)
(10.1355918192 -0.0352203106813 0)
(10.1453085867 -0.0344119836046 0)
(10.1550230295 -0.0335430838714 0)
(10.1646935532 -0.0326180789727 0)
(10.1742126667 -0.031645565189 0)
(10.1839998875 -0.0306852461084 0)
(10.0128190773 -0.0354168902218 0)
(10.035382894 -0.0377920470287 0)
(10.0501559628 -0.035810618755 0)
(10.0596604405 -0.0363584503216 0)
(10.0685457645 -0.037417940974 0)
(10.0776622947 -0.0379263083993 0)
(10.0865676021 -0.0380066527231 0)
(10.0950918315 -0.037942264838 0)
(10.1033686633 -0.0378528297099 0)
(10.1115664771 -0.0377390084482 0)
(10.1197684521 -0.0375699682156 0)
(10.1279822692 -0.0373251425018 0)
(10.1361839343 -0.0370010777985 0)
(10.1443491088 -0.0366013645389 0)
(10.1524609878 -0.0361233903312 0)
(10.1604968902 -0.035542301559 0)
(10.1683407962 -0.034798491248 0)
(10.1761539125 -0.0337892737332 0)
(10.0162209064 -0.0493165725084 0)
(10.0397333033 -0.051120385638 0)
(10.0457817756 -0.0487145246392 0)
(10.0437659929 -0.048639907942 0)
(10.0401861 -0.0489238908121 0)
(10.0358154258 -0.0487756655203 0)
(10.0302472886 -0.0483333018412 0)
(10.0235476844 -0.0478178996135 0)
(10.0161039489 -0.047320133156 0)
(10.0082861413 -0.0468433707661 0)
(10.0003280715 -0.0463661183625 0)
(9.99235405408 -0.0458721086538 0)
(9.9844360861 -0.045355131368 0)
(9.9766350275 -0.0448125774208 0)
(9.96901914052 -0.0442347549308 0)
(9.96166946626 -0.0435824160224 0)
(9.95463679946 -0.0427430175648 0)
(9.94784320805 -0.0410376638308 0)
(9.8526454201 -0.0291516823848 0)
(9.72353463264 -0.0316695127083 0)
(9.57928019831 -0.0316224098984 0)
(9.43592565372 -0.0321331737075 0)
(9.30041591911 -0.032498747892 0)
(9.17254370532 -0.0325053993775 0)
(9.05108076433 -0.0322713253041 0)
(8.93550779774 -0.0319241164097 0)
(8.82573869553 -0.0315285152284 0)
(8.72170844051 -0.0311069977118 0)
(8.62323288378 -0.0306658263373 0)
(8.53003816665 -0.0302085860216 0)
(8.44182653769 -0.0297395854479 0)
(8.35832186678 -0.0292624259723 0)
(8.27929111807 -0.0287763776071 0)
(8.20455480465 -0.0282645456453 0)
(8.13422063849 -0.0276611275134 0)
(8.06660624261 -0.0263218080582 0)
(0.0275886189017 -0.110728340137 1.96099515407e-19)
(0.0563629167182 -0.109097638579 0)
(0.084412388044 -0.106963835214 0)
(0.0838377889152 -0.071174336262 0)
(0.0514953017183 0.0182174785631 0)
(-0.0730198923167 0.118440523141 -1.34677416215e-19)
(-0.185816749443 0.137670984171 0)
(-0.306233726799 0.146065613436 0)
(-0.43351267647 0.152229903355 4.60552945481e-20)
(-0.566923110528 0.156916600258 0)
(-0.705628328925 0.160392933052 -3.23253191079e-20)
(-0.848840329639 0.162873615417 0)
(-0.995844687893 0.164536178296 -2.57431035847e-20)
(-1.14600962605 0.165527453281 -2.37346245478e-20)
(-1.298782613 0.165969755257 0)
(-1.45368676238 0.1659659816 2.11592174102e-20)
(-1.61031463778 0.165603054727 2.03557463056e-20)
(-1.76832275718 0.16495466238 1.97752990285e-20)
(-1.9274256036 0.164082873249 0)
(-2.08738960919 0.163039763227 0)
(-2.24802704925 0.161868140873 0)
(-2.4091900006 0.160602657042 0)
(-2.57076410877 0.15927025631 0)
(-2.73266247015 0.157891116812 0)
(-2.89481933329 0.156478927017 -1.90437878848e-20)
(-3.05718432908 0.155041847089 -1.91949694807e-20)
(-3.21971611221 0.153582813605 0)
(-3.38237719085 0.152100378822 1.95944650969e-20)
(-3.5451281647 0.150589101039 1.98329829427e-20)
(-3.70792324676 0.149040345796 2.00922477178e-20)
(-3.87070524934 0.147442679124 0)
(-4.03340210047 0.14578257695 0)
(-4.19592283708 0.144044850281 -2.09668791209e-20)
(-4.35815505014 0.14221322964 0)
(-4.51996199893 0.140270737556 0)
(-4.68118109735 0.138200174729 -2.19437066811e-20)
(-4.84162204514 0.135984482876 0)
(-5.0010663643 0.133607070012 0)
(-5.15926657731 0.131052104169 0)
(-5.31594646067 0.128304730231 0)
(-5.47080091615 0.125351416949 0)
(-5.6234971128 0.12218025408 4.80710330774e-20)
(-5.77367593262 0.118781462535 0)
(-5.92095480801 0.115147620704 0)
(-6.06493056234 0.111273929666 5.01318868512e-20)
(-6.20518249634 0.107158339638 5.07898533842e-20)
(-6.34127537658 0.102802401255 0)
(-6.47276416602 0.098211998959 0)
(-6.59920096523 0.0933979438023 5.26170070441e-20)
(-6.72014399913 0.0883757945575 0)
(-6.8351675152 0.0831658057396 -5.36683074692e-20)
(-6.94387185635 0.0777921368194 0)
(-7.04589277124 0.0722819725983 5.45468773638e-20)
(-7.14090729247 0.066665071041 0)
(-7.22863607076 0.0609742793537 5.52232397303e-20)
(-7.3088434271 0.055245767507 5.54772609629e-20)
(-7.3813376372 0.0495184814619 0)
(-7.44597473825 0.0438322263401 0)
(-7.50266767694 0.0382246278021 0)
(-7.55139764516 0.0327278089417 5.58667413987e-20)
(-7.59222182641 0.027364498053 0)
(-7.62526619633 0.0221431031591 0)
(-7.65069879011 0.0170512274014 0)
(-7.66868197335 0.0120674361847 0)
(-7.67934235658 0.00720629114096 0)
(-7.68282242443 0.00255147170939 0)
(-7.67946452203 -0.00182321248556 0)
(-7.66961728429 -0.00590515779375 -5.32280835939e-20)
(-7.65364107843 -0.0097137376561 0)
(-7.63186052796 -0.0132897754997 -5.18193405744e-20)
(-7.60453713978 -0.0166930999148 -5.10160587499e-20)
(-7.5718398081 -0.020000615203 0)
(-7.53381099381 -0.023308388161 4.9201950398e-20)
(-7.49032553793 -0.0267307135406 0)
(-7.4410445566 -0.0304013447183 -4.70728772e-20)
(-7.38536548872 -0.0344688261905 0)
(-7.32237724414 -0.0390929607366 4.4531515424e-20)
(-7.25083154379 -0.0444316156101 -4.30535566304e-20)
(-7.16914297155 -0.0506279121887 0)
(-7.0754280812 -0.0577902119818 0)
(-6.96759548321 -0.0659759764526 0)
(-6.84348607078 -0.0751682580222 0)
(-6.70104624322 -0.0852663429843 -3.21946247461e-20)
(-6.53851307388 -0.09608172418 2.90329043194e-20)
(-6.35460535465 -0.107351464393 -5.08893751404e-20)
(-6.14869899805 -0.11874602053 -4.27924138333e-20)
(-5.92092938684 -0.129899377741 -3.37172460772e-20)
(-5.67219825357 -0.14044311158 0)
(-5.40412069108 -0.150047371306 0)
(-5.1189619678 -0.158434189507 0)
(-4.81950694246 -0.16538218807 1.34228026808e-20)
(-4.50887226175 -0.170746348188 0)
(-4.19031583007 -0.174445582982 0)
(-3.86708204493 -0.176455590568 6.23599368218e-20)
(-3.54229932646 -0.176786474713 0)
(-3.21889110685 -0.175485127232 -1.04020559312e-19)
(-2.89951279911 -0.172613482827 0)
(-2.58644144423 -0.168291127117 1.56655223643e-19)
(-2.28153381286 -0.162735911315 0)
(-1.98634836651 -0.156289845579 0)
(-1.70221533343 -0.14945861812 0)
(-1.43029859036 -0.143064346958 3.29347052525e-19)
(-1.17136202969 -0.138428233211 0)
(-0.925017931751 -0.136999093562 4.98369356303e-19)
(-0.69226324815 -0.140264580491 6.33941960745e-19)
(-0.475357662901 -0.147844684769 0)
(-0.264070256448 -0.158649872164 0)
(-0.0716615529573 -0.172117756253 0)
(0.157853580187 -0.169792280361 2.30392624443e-18)
(0.323519137866 -0.146158829916 0)
(0.467051404612 -0.121293230657 0)
(0.605957384475 -0.100651271435 8.77763303719e-19)
(0.737274257584 -0.0843429309117 7.38355022994e-19)
(0.858661323268 -0.0712973765116 0)
(0.969620105061 -0.0606366822253 -5.80122695985e-19)
(1.07034850661 -0.0517279873425 -5.31070049921e-19)
(1.16129322225 -0.0441518806732 4.93241582376e-19)
(1.24296346681 -0.0376083054075 0)
(1.31588379471 -0.0318958803002 0)
(1.38057221088 -0.0268595009104 0)
(1.4375416447 -0.022390659846 -4.03881462495e-19)
(1.48728156337 -0.0183999077628 0)
(1.53025292212 -0.0148259648183 -3.79805808402e-19)
(1.5668845728 -0.0116144345453 0)
(1.59758612445 -0.00873408690616 0)
(1.62274727074 -0.00615299654176 0)
(1.6427481497 -0.00385466381167 3.52903455637e-19)
(1.65795357645 -0.00181957926895 3.49285389489e-19)
(1.66872793609 -5.56160250203e-05 0)
(1.67545659485 0.00142426568007 0)
(1.6789134059 0.00261577486409 0)
(1.67964858259 0.00357688418342 0)
(1.67780608885 0.00437373379519 0)
(1.67354975155 0.00504301503592 0)
(1.66705693131 0.00559934682424 6.83700022281e-19)
(1.65850875392 0.0060624394243 0)
(1.64807809578 0.00644440776178 0)
(1.63592238646 0.00675930451761 0)
(1.62218651263 0.0070149592456 -6.96747418661e-19)
(1.60700400185 0.00722103989231 -7.02078371211e-19)
(1.59050157132 0.00738386511652 7.08174945241e-19)
(1.57279274862 0.00751120072193 7.15019230646e-19)
(1.55397717351 0.0076085203652 0)
(1.53413985138 0.00767832044059 0)
(1.51335457616 0.00772164715031 0)
(1.49168768529 0.00774042173917 7.49718851647e-19)
(1.4691954773 0.00773568945916 0)
(1.44592583351 0.00771562968949 0)
(1.42192756348 0.00768980256031 -7.83676269259e-19)
(1.39724570595 0.00766291215259 0)
(1.37191387099 0.00763517755121 -8.10438077442e-19)
(1.34595699464 0.00760829831339 0)
(1.31939480628 0.0075852450083 -8.40874686492e-19)
(1.29224640451 0.00756445516276 0)
(1.2645331734 0.00754117579416 0)
(1.23626546578 0.00750945216338 0)
(1.20743930158 0.00748205394712 0)
(1.17806157298 0.00747585398218 0)
(1.14815421242 0.00748380699657 0)
(1.11771362883 0.00748807764176 0)
(1.08670238231 0.00750082316605 0)
(1.0551016481 0.00756096775699 -1.03933374627e-18)
(1.02290862814 0.00768803573502 0)
(0.990099792442 0.007885756726 0)
(0.956636048989 0.00815045211273 -1.13839953005e-18)
(0.922497111064 0.00846312798764 0)
(0.887711487302 0.0087806048478 0)
(0.852333819798 0.00906591612704 -1.26319030393e-18)
(0.816460741563 0.00933743780795 0)
(0.780312070748 0.00961415756976 0)
(0.744269169694 0.00986112452492 -1.42182767013e-18)
(0.708816003832 0.0100222718554 1.48314172263e-18)
(0.674455318296 0.0100545345308 -1.5481764107e-18)
(0.641710418961 0.00995505769654 0)
(0.611088258934 0.00969228507523 0)
(0.582953376579 0.00920838723459 -3.50480930667e-18)
(0.557482777678 0.0084576751694 0)
(0.533790744194 0.00755347809511 3.75105207149e-18)
(0.521476376917 0.00613921820794 3.85810497571e-18)
(0.387343384037 0.00170763482315 0)
(0.00161870869386 -0.121922881821 -6.04491614058e-19)
(-0.04073499235 -0.0208777842812 0)
(-0.145100155714 0.122617341565 2.12742622834e-19)
(-0.233249341663 0.196253276228 -1.35321941895e-19)
(-0.317059926116 0.254447373146 -9.86629790721e-20)
(-0.411492171204 0.303685292053 3.92849267019e-20)
(-0.517235849863 0.336183227048 6.6777798046e-20)
(-0.633243786811 0.360461825904 0)
(-0.757768105609 0.379515981666 -2.52843470309e-20)
(-0.889081227605 0.394555301175 4.60707038667e-20)
(-1.02585944062 0.406329574299 6.303444402e-20)
(-1.16706565454 0.415384015903 -3.93267621493e-20)
(-1.31185239401 0.422147271306 5.53749533855e-20)
(-1.45951339341 0.426974221358 1.74224734318e-20)
(-1.6094549031 0.430168490394 0)
(-1.76117843235 0.431995295767 -1.6404644363e-20)
(-1.91426811674 0.432688569064 -1.61263509116e-20)
(-2.06838126745 0.432455452748 -1.5963649947e-20)
(-2.2232401413 0.431478589481 3.23893705687e-20)
(-2.37862449536 0.429917889154 0)
(-2.53436445953 0.427911167752 3.25219148074e-20)
(-2.69033343229 0.4255751115 0)
(-2.84644103353 0.42300550392 -3.30834985543e-20)
(-3.00262625507 0.420278203293 0)
(-3.158850293 0.417449569145 5.06753640609e-20)
(-3.31508990386 0.41455772649 -1.74651936624e-20)
(-3.47133060184 0.411623416704 -3.5023217434e-20)
(-3.62756059968 0.40865160119 -5.32183159084e-20)
(-3.78376461397 0.405632713799 -1.79197224995e-20)
(-3.93991876041 0.402544526416 -1.82584231902e-20)
(-4.09598535304 0.399353683387 0)
(-4.25190887527 0.396017648857 -3.83178628723e-20)
(-4.40761198871 0.392486365381 1.93400596725e-20)
(-4.56299270553 0.388704117585 0)
(-4.71792158976 0.384611137761 0)
(-4.87223999085 0.380145295025 2.04920524962e-20)
(-5.02575844354 0.375243573269 0)
(-5.17825609463 0.369843487087 0)
(-5.32948010805 0.363884296191 0)
(-5.47914568837 0.357308116592 0)
(-5.62693594604 0.350061165875 0)
(-5.77250273732 0.342095064955 4.64757258006e-20)
(-5.91546842411 0.333368415175 9.3863413276e-20)
(-6.05542918354 0.323847992106 0)
(-6.19195840825 0.313509726052 4.88711046384e-20)
(-6.32460934984 0.302339629331 -4.89122324324e-20)
(-6.45291783379 0.290336015919 0)
(-6.57640799789 0.277511921408 0)
(-6.69460129513 0.263896936373 -1.53981777966e-19)
(-6.80702707192 0.249537239086 -1.04243407537e-19)
(-6.91323415539 0.23449551028 5.23634497871e-20)
(-7.01280215098 0.218848883193 1.06684415901e-19)
(-7.10535080516 0.202686539945 5.42775465772e-20)
(-7.19054389746 0.186108565398 0)
(-7.26809042863 0.169225981891 -1.64107121641e-19)
(-7.33774635296 0.152159834864 -5.48410778095e-20)
(-7.39931557174 0.135038288682 0)
(-7.45265745879 0.11799216798 1.11640637635e-19)
(-7.49769700818 0.101149080432 -1.12049007188e-19)
(-7.53443664717 0.0846280006937 -5.58196066121e-20)
(-7.56296942347 0.068529409427 0)
(-7.583466407 0.0529196578977 0)
(-7.59613152913 0.0378272440439 0)
(-7.60108781107 0.0232890331438 1.1207419708e-19)
(-7.59832207812 0.00944189458438 0)
(-7.58869887489 -0.00352513949899 -1.10554138858e-19)
(-7.57258881291 -0.0155394546485 0)
(-7.55039014881 -0.0266275085337 -5.44028480924e-20)
(-7.52245151191 -0.0368687437364 0)
(-7.48907365071 -0.0463901460998 -5.30214616609e-20)
(-7.45049515582 -0.0553657532267 -5.22414090997e-20)
(-7.40687114992 -0.0640144275714 0)
(-7.35824396335 -0.072602363081 -5.00458637264e-20)
(-7.30450415831 -0.0814409619262 0)