/*--------------------------------*- C++ -*----------------------------------*\
| =========                 |                                                 |
| \\      /  F ield         | OpenFOAM: The Open Source CFD Toolbox           |
|  \\    /   O peration     | Version:  v1806                                 |
|   \\  /    A nd           | Web:      www.OpenFOAM.com                      |
|    \\/     M anipulation  |                                                 |
\*---------------------------------------------------------------------------*/
FoamFile
{
    version     2.0;
    format      ascii;
    class       volScalarField;
    location    "14";
    object      alpha;
}
// * * * * * * * * * * * * * * * * * * * * * * * * * * * * * * * * * * * * * //

dimensions      [0 0 -1 0 0 0 0];


internalField   nonuniform List<scalar> 
12225
(
0.392866181243
0.332753602409
0.352011337078
0.352076093075
0.363666019569
0.367908760112
0.373745764383
0.377744005391
0.37991167435
0.379097658845
0.373842390414
0.365464821138
0.358661150481
0.347044962042
0.324197480838
0.294948802788
0.257862952546
0.226395393425
0.230853784829
0.285225301727
0.3173028093
0.31268649702
0.321699034398
0.324119980711
0.32790683492
0.330330858965
0.331757924899
0.331511317725
0.328250481008
0.32217240862
0.315737112559
0.306132127738
0.289183068268
0.267720249825
0.244553589127
0.242082835842
0.368163432764
0.304313299855
0.320773982399
0.319532313814
0.328876839967
0.332210056408
0.336643255542
0.339668742581
0.341776798362
0.342473534605
0.341057142618
0.337366944304
0.331874283776
0.323076810927
0.308889722363
0.291511979241
0.275795944339
0.280520807193
0.316092453399
0.290670920127
0.317464354423
0.311534386595
0.320202352389
0.321920951936
0.325096535982
0.32704425221
0.328394035817
0.328728778337
0.327705742353
0.325125981979
0.320839068023
0.313987718707
0.303848934418
0.29257766637
0.285442567957
0.294390237292
0.337596397764
0.292020390089
0.315535366332
0.309021955726
0.316701256487
0.317522315747
0.319799096667
0.320838054771
0.321259772387
0.320745144153
0.319144723572
0.316345809633
0.312126398977
0.306110201531
0.298457315938
0.291407895529
0.289535226616
0.299279355824
0.331956313663
0.288198428849
0.31261719597
0.304656914612
0.311814902645
0.311909533958
0.313633607527
0.314151469562
0.314104631396
0.313232939449
0.311473547391
0.308774919451
0.304993467281
0.30007880507
0.294657708052
0.29085453022
0.292053455077
0.301292105934
0.332370281648
0.286669636182
0.31011255499
0.301284369765
0.307802617156
0.307260164578
0.308483875906
0.308565447065
0.308167746935
0.307077714141
0.305286223726
0.302792558098
0.299581765148
0.295817941904
0.29231922625
0.290892191048
0.293791337951
0.302251679614
0.331182221014
0.285311265944
0.307995597587
0.298437513346
0.304404542255
0.30333675393
0.304167985325
0.303930444763
0.303331218333
0.302175472902
0.300480889968
0.298293817426
0.295717163273
0.293045120274
0.291126279595
0.291364938719
0.295162537522
0.302825325446
0.33020529639
0.284520436044
0.306300984025
0.296210692297
0.301665979032
0.300149048231
0.300655467145
0.300193521271
0.299506152638
0.298392471117
0.296884494529
0.295079503783
0.293164509914
0.291495270522
0.290833159742
0.29222492796
0.296453901
0.303436737636
0.329470294965
0.284188261561
0.305146735789
0.294669963164
0.299693218105
0.297806822419
0.298073355151
0.297477710479
0.296772774662
0.295751280683
0.294481592454
0.293108886352
0.291864666386
0.291095532091
0.2914249072
0.293588621976
0.297979606069
0.304323735767
0.329629414958
0.284104527874
0.304819224098
0.293989374291
0.298765408891
0.29666514197
0.296846285198
0.296217066198
0.295553471401
0.294676502847
0.293691746251
0.292748810584
0.292077771199
0.29197871247
0.292939687395
0.295454176279
0.29967430435
0.305303137437
0.333612181129
0.28421511693
0.306284858653
0.294876765701
0.299712804132
0.297512652142
0.297672021526
0.297036820608
0.296458730508
0.295730913787
0.294903824669
0.294146876736
0.293698215702
0.293841971188
0.294951387843
0.297365482388
0.301146455469
0.306004322317
0.336896314398
0.284876249624
0.307758391774
0.295939116993
0.300603039405
0.298231389115
0.298288279301
0.2975720102
0.296900067573
0.296087639969
0.295243423786
0.294540906533
0.294249761116
0.294574673609
0.295822056884
0.298193865377
0.3016593374
0.305963105365
0.340878542263
0.285703829963
0.309435588265
0.297082255754
0.301537899543
0.298816447214
0.298569979602
0.297632696734
0.296846426948
0.296024142457
0.295281308415
0.29480543902
0.294830049239
0.295496539859
0.296965882908
0.299359638696
0.302539870873
0.306364567551
0.346056276527
0.286611517495
0.311540631415
0.298469660447
0.30271040033
0.299576141554
0.298985338608
0.297787774541
0.296869448651
0.296077631169
0.295494336282
0.295315538583
0.295713824701
0.296709421895
0.298380548341
0.300751320595
0.303670553538
0.307003152076
0.351504429865
0.28758840411
0.313945206187
0.30016643797
0.304294921886
0.300805095114
0.299957417145
0.29856753053
0.297589973966
0.296839178476
0.296439405893
0.296502449482
0.297184221274
0.298381727778
0.30013564229
0.302395780275
0.305031117596
0.307948475047
0.356426026402
0.28848537408
0.316383800539
0.302030866942
0.306192956696
0.302489633196
0.301532725553
0.300080736293
0.299123736642
0.298481101792
0.298220299266
0.298463714905
0.299291648068
0.30057407652
0.302282682248
0.304387917759
0.306726018494
0.30930295467
0.361074863004
0.289176847273
0.31870945678
0.303889818647
0.308225507215
0.30445234984
0.303529882266
0.302112694522
0.301238312937
0.300705344904
0.300562909288
0.300915152416
0.301808597159
0.303082063547
0.304695743373
0.306624557714
0.308709734291
0.310988018892
0.363637636018
0.289280442994
0.319944730697
0.304943482934
0.309561985725
0.305926800538
0.305221356736
0.304000225191
0.303331752802
0.302994249966
0.303021779569
0.303496905894
0.304452519883
0.305713012417
0.307245148622
0.309035474992
0.310936079465
0.31299220486
0.358299555364
0.288637502634
0.31838471623
0.30422514298
0.309307961074
0.306326036044
0.306242517715
0.305657136918
0.305561053946
0.30573279689
0.306176772978
0.306958829545
0.308115905581
0.309485866045
0.311040189067
0.312775113388
0.314557684278
0.316423503377
0.35414890444
0.287614736489
0.316535892282
0.302989468617
0.308429512432
0.305968640822
0.306376953023
0.306251739101
0.306593634191
0.307126063009
0.307861116768
0.308841723928
0.310137660936
0.311563355673
0.313128488756
0.314810256302
0.316517887927
0.318262118938
0.350933959719
0.286557117979
0.314746609259
0.301722588009
0.307441160162
0.305435353032
0.306243508674
0.306518532544
0.3072023303
0.308024043111
0.308995168584
0.310135617757
0.311528104506
0.313009378361
0.314576982908
0.316231973296
0.317877735333
0.319556344698
0.346848042258
0.285240012296
0.312965203217
0.300425601026
0.30642768871
0.304862989631
0.306055471067
0.306696035643
0.307698107521
0.308800616524
0.309972587778
0.311277417461
0.312779279559
0.314336246207
0.315923378334
0.317589443302
0.31921564101
0.320859685992
0.344807250118
0.284373486751
0.310898395343
0.298993628279
0.305253561411
0.304119659743
0.305673672904
0.3066670945
0.307959275351
0.30929354839
0.310660185892
0.312099187774
0.313695391949
0.315301497889
0.316934926758
0.318607577814
0.320235649553
0.321817024604
0.335312763858
0.282124352813
0.309453481467
0.297998014305
0.304557119695
0.303852022966
0.305753159467
0.307049523886
0.30860943829
0.310176774555
0.311738748055
0.313313803762
0.31501827551
0.316710520297
0.318398861621
0.320137943222
0.321847584507
0.32353102447
0.348726614386
0.283480998288
0.305861425467
0.295806189462
0.302313562633
0.302015271844
0.304130383894
0.305673670713
0.307438566149
0.309198707962
0.310910949028
0.312601360539
0.314377547951
0.316134913747
0.317877243294
0.319643941713
0.321366493271
0.32289726207
0.294140814769
0.276492318914
0.305058698504
0.295001327634
0.302051223938
0.302205215928
0.304715974608
0.30660735624
0.308704537711
0.310795402175
0.312856726271
0.314757320389
0.31667244844
0.318565449993
0.320389948507
0.322240347904
0.324112006959
0.32617144205
0.398093507684
0.286685325286
0.295249901766
0.289607026675
0.29571463664
0.296218266468
0.29852723311
0.300235111409
0.302062401349
0.303882079306
0.305558769636
0.307119042815
0.308749740743
0.310369782298
0.311971199346
0.313699701481
0.315526464926
0.316962750482
0.167086579512
0.263534687733
0.290327818633
0.283333587796
0.289755506881
0.29071149179
0.293658318211
0.296274875438
0.299266054338
0.302497035604
0.305862849308
0.309013588664
0.312204959523
0.315527495468
0.31889662622
0.322323748756
0.325849777088
0.329277714434
0.330027857604
0.300535352456
0.304243371596
0.302792570816
0.310199678867
0.311131857993
0.313640829728
0.315571018924
0.317532388755
0.319249082894
0.32062500444
0.321907951434
0.323254593807
0.324283943941
0.324997977674
0.325589802835
0.325880047374
0.326605543841
0.476036335247
0.476394020731
0.476577147524
0.476559900284
0.476350309505
0.475988495087
0.47556674911
0.475121947393
0.474679328198
0.474256295787
0.473864479544
0.47351100083
0.473199730481
0.472932099111
0.472707800768
0.472525102808
0.472381570834
0.472273817059
0.472198623991
0.472152814992
0.472132883746
0.472136409701
0.472159894016
0.472202474661
0.472262055655
0.472338986336
0.472431516312
0.472539904299
0.472663422093
0.472802900448
0.472958035514
0.473129385348
0.473316538728
0.473520323495
0.473740530528
0.473977038358
0.474228725622
0.474496303845
0.474778590044
0.47507546465
0.475385536146
0.475707960382
0.476041024919
0.476382978735
0.476731686984
0.477084535293
0.47743891933
0.47779170265
0.478139646893
0.478479827956
0.478809432238
0.479127171152
0.47942992141
0.479713595329
0.479972898958
0.480202838805
0.480398090029
0.480553412127
0.480663384465
0.480722898322
0.480728001468
0.480677655554
0.480571149432
0.48040613813
0.480182196509
0.479902114807
0.479567827407
0.479181365603
0.478746040169
0.478264706932
0.477741732761
0.477181107561
0.476587729455
0.475965972079
0.475320646591
0.474655884198
0.47397581991
0.473285131724
0.472587746006
0.471886402821
0.47118326811
0.470481703106
0.46978380022
0.469092212839
0.468406100559
0.467728000151
0.467057831623
0.466389255046
0.465725870405
0.465064170453
0.464403546139
0.463743980623
0.463083873352
0.46245037529
0.461858902776
0.461272337182
0.460659503422
0.46003542392
0.459402340615
0.4587666218
0.458023470938
0.457194782553
0.457101499809
0.457111042662
0.45695780057
0.456588663938
0.456034475149
0.455767632278
0.455439802642
0.455141112084
0.454878096038
0.454645436808
0.454438081047
0.454250490708
0.454078321811
0.453918628189
0.453768404125
0.4536244086
0.453485753353
0.453353470488
0.453230965522
0.453119508324
0.453017783525
0.452924667595
0.452837299144
0.452754413283
0.452675235319
0.452599219394
0.452525929868
0.452454900608
0.452385675236
0.452317967328
0.452251598113
0.452186597336
0.452122970744
0.452060882646
0.452000428379
0.451941309803
0.451884085602
0.451829060789
0.451778203378
0.451730275343
0.451686161666
0.451647350386
0.451615498173
0.451592387936
0.451579109537
0.451576452999
0.451585106707
0.451605609929
0.451639046366
0.451686941958
0.451751015214
0.451832896967
0.451934348385
0.452057176218
0.452203409492
0.452375258357
0.452575634072
0.452808089159
0.453077950395
0.453390911975
0.453755010996
0.454181529081
0.454685889452
0.455285047493
0.45599987593
0.456846846024
0.457839036983
0.45899901865
0.460339530821
0.461857046673
0.463533768679
0.465329239516
0.467185099196
0.469157411984
0.47119508046
0.473221403739
0.475127598359
0.476620564473
0.476136426973
0.476375662673
0.476278796267
0.47599040628
0.475640002708
0.475282242043
0.474938519656
0.474618307237
0.474325335401
0.47406141503
0.473826947168
0.473622822193
0.473448537532
0.473303994358
0.473188046932
0.473099692922
0.473037165532
0.472998664059
0.472981691484
0.472984711992
0.473005125384
0.473041464658
0.473091298177
0.473154362515
0.473229144502
0.473316407699
0.473415139731
0.47352605974
0.473649175545
0.473785649224
0.473935438057
0.474099369095
0.47427782587
0.47447183185
0.474680896429
0.474905602193
0.47514553357
0.475400878376
0.475671075455
0.475956202363
0.476255283489
0.476567542857
0.476891550583
0.477225605452
0.477567556437
0.477914740664
0.47826393393
0.478611675906
0.478953514696
0.479284506149
0.47959725018
0.479886939624
0.480150881649
0.480386356015
0.480589683431
0.480757256568
0.480885474323
0.480968865053
0.481001697579
0.480982099816
0.480908798104
0.480779639965
0.480594869273
0.480357879216
0.480067981468
0.47972374321
0.479325740995
0.478874805264
0.478372270192
0.477819491583
0.477218669242
0.476572135806
0.4758833491
0.475155928565
0.474393980771
0.473602099735
0.472785306149
0.471948808165
0.471098032909
0.470236990543
0.469368903101
0.468497858639
0.46762845733
0.466763130367
0.465900930338
0.465047882149
0.464211366379
0.463382263506
0.462539923671
0.461702200828
0.460898539164
0.460094301698
0.459248135623
0.458388560444
0.457598720464
0.456882273533
0.456130026423
0.455523409024
0.454920238254
0.454282419247
0.453669634651
0.452923555037
0.452387818669
0.451807422028
0.451277623284
0.450766791279
0.45049315312
0.450313101968
0.450160858872
0.449969130374
0.449754415693
0.449533256452
0.44931137857
0.449090611287
0.448871005185
0.448652344036
0.448433208072
0.448211799091
0.447987520612
0.447763201366
0.44754277218
0.447328146055
0.447119446612
0.446915025633
0.446713002717
0.446512505528
0.446312905241
0.446113854345
0.445914962728
0.445716139697
0.445517376106
0.445318711097
0.445120062777
0.444921466384
0.444722749976
0.444523683363
0.44432364209
0.444121794356
0.443917479416
0.443711152465
0.443503229132
0.443292620705
0.443078987574
0.442862605896
0.442644323387
0.442424564222
0.442202942902
0.441978502517
0.441750057067
0.44151663172
0.441277149431
0.44103043952
0.440775319899
0.440511134098
0.440238038742
0.43995686587
0.439669571201
0.439378714347
0.439087819774
0.438800117562
0.438520534162
0.438254549454
0.438007510681
0.437783442912
0.43758604073
0.437418278842
0.437276517232
0.437168346405
0.437092846722
0.437048338502
0.437036365802
0.437063970531
0.437141387813
0.437272910651
0.437527372845
0.437813989912
0.438153775327
0.438538006868
0.438922994897
0.439327751262
0.475775432563
0.475846457835
0.475806305923
0.475684774568
0.475555799227
0.475448393179
0.475353083164
0.475262318358
0.475171614989
0.475080893351
0.474991305357
0.474905136231
0.47482461309
0.474751994866
0.474688912191
0.474636687481
0.474595876758
0.474566821727
0.474549107351
0.474542271501
0.474545361292
0.474558330114
0.474579577975
0.474609441073
0.474647467014
0.474694369937
0.474749896807
0.47481527246
0.474890859299
0.4749779696
0.4750771071
0.475189679509
0.475315994007
0.475457053297
0.475613148201
0.47578477502
0.475971467797
0.4761737824
0.47639115987
0.476623325445
0.476869391978
0.477128363282
0.477398725456
0.477678632848
0.477965812345
0.47825761581
0.478550852542
0.478842045114
0.479127264883
0.479402293811
0.479661084457
0.479897356942
0.480104285142
0.480277470491
0.480413493589
0.480509641836
0.480563647075
0.480575659507
0.480546624261
0.480475089301
0.480358459986
0.480194675053
0.479978854548
0.479707063474
0.479379968874
0.478996104789
0.478554012067
0.478053372379
0.477495509896
0.476882642823
0.476218339983
0.475506942157
0.474753528948
0.473963541687
0.473142585353
0.472296334506
0.471430308604
0.470550044671
0.469660825304
0.468767813216
0.467873680054
0.466981986391
0.466097870298
0.465224929761
0.464360287638
0.463503337309
0.462669283787
0.46186206915
0.461058784155
0.460250311984
0.459470681078
0.458747500411
0.458005122801
0.45726623256
0.45656488766
0.455898187772
0.455290792712
0.454838301022
0.454310764899
0.4535918039
0.452798355568
0.452245212291
0.451975523359
0.451686793449
0.451539162702
0.451348281455
0.45102065957
0.450533337631
0.450050264758
0.44961962987
0.449236735327
0.448889453657
0.448567789182
0.448265001173
0.447976493465
0.44769913422
0.447429966687
0.447166662003
0.446908520485
0.4466578589
0.446417147578
0.446187008479
0.44596613221
0.445752293228
0.445544380126
0.445341715952
0.445143892419
0.44495060675
0.444761602286
0.444576461797
0.444394575454
0.444215319468
0.444038257738
0.443863045411
0.443689327795
0.443516638866
0.443344339204
0.443172047061
0.442999734646
0.442828760383
0.442659410923
0.442490844431
0.442321884374
0.44215278997
0.441984953573
0.441819438117
0.441656662852
0.441496541011
0.441339099656
0.441184401011
0.441032542547
0.440883431966
0.440737132435
0.440593575081
0.44045248443
0.440313337291
0.440175416535
0.440037594341
0.439898731081
0.439757202395
0.439611392986
0.439459716816
0.439300600753
0.439132337531
0.438953721894
0.438763276663
0.438558422836
0.438338677315
0.43810710866
0.437866534275
0.437621865579
0.437383191054
0.43716331196
0.436987791925
0.436883338975
0.436867966151
0.436959483475
0.437161656037
0.437426073144
0.43760016862
0.475311815164
0.475416801626
0.475661994505
0.475789725531
0.475854794782
0.475905046461
0.47593364001
0.475938547713
0.475920506663
0.475882512354
0.475828413312
0.475762882507
0.475689778167
0.475612927074
0.475535252436
0.475459344472
0.475386966297
0.475319513054
0.475257497133
0.475201937201
0.475152461812
0.475109382698
0.475072504335
0.475042453753
0.475018816118
0.475002962399
0.474995166451
0.474996704998
0.475008316627
0.475031606488
0.475067409195
0.475117030808
0.475181292538
0.475261525941
0.475357660948
0.475470634439
0.47560039179
0.475747091948
0.475910187867
0.476089437167
0.476283704127
0.476491781422
0.476711824336
0.476941610842
0.477178453846
0.477419211944
0.47766018384
0.477897585887
0.478127010106
0.478343715256
0.478543097077
0.478721648553
0.478873700135
0.478994417266
0.479079309755
0.479124619494
0.47912687874
0.479084396948
0.478998519677
0.478871917889
0.478705150637
0.478497002446
0.478244453265
0.477942889968
0.477586696088
0.477172368408
0.47669805551
0.476162916215
0.475567449105
0.474913667933
0.474205021479
0.473446515991
0.472644506927
0.471805697135
0.470937193811
0.470046990023
0.469142163277
0.468228057337
0.467311586223
0.466399352056
0.465493560439
0.464593606922
0.463707734082
0.462845539815
0.461999235331
0.461161536315
0.460347130714
0.459589860718
0.458844242918
0.458100295825
0.457392341574
0.456737504209
0.45612404081
0.455531199612
0.454989819129
0.454449433404
0.453848903498
0.453193621365
0.452434203089
0.451712280035
0.451221270294
0.451033101992
0.450903674911
0.450721664595
0.450563267865
0.45027278855
0.449787657657
0.449164798745
0.44855385081
0.44802121128
0.447565287744
0.447168184073
0.446814066187
0.446491820876
0.446193823688
0.445914617535
0.445649888479
0.44539630703
0.44515289796
0.444920763885
0.444701013555
0.444492628699
0.44429260654
0.44409868113
0.443909741793
0.443725217694
0.443544612602
0.44336744415
0.443193181576
0.443021312358
0.442851080334
0.442681988794
0.442513853401
0.44234636275
0.442179136908
0.442011570116
0.441843223506
0.441674126279
0.441505207015
0.441338013198
0.44117307352
0.441008889865
0.440843609558
0.440677221863
0.440510807681
0.440345249422
0.440180780341
0.440017214881
0.4398542806
0.439691675959
0.439529178241
0.439366562828
0.439203936693
0.439041401474
0.438879052174
0.438717011122
0.438555553287
0.438395189316
0.43823657438
0.438080421953
0.437927161367
0.437777284367
0.437631236305
0.437488876238
0.437349630236
0.437212163412
0.437073107295
0.436930199425
0.436781462096
0.436623684985
0.436455100969
0.436277416557
0.436094580506
0.435915186364
0.435758060302
0.435630623307
0.435544578496
0.435497859269
0.435435023985
0.43522709556
0.474783372225
0.475386439914
0.476013694877
0.476249950839
0.476333109308
0.476387446859
0.47641877571
0.476427944707
0.476413622851
0.476377694384
0.476322268985
0.476250689402
0.476166192947
0.476072447138
0.475972340529
0.475868865862
0.475763969942
0.475659861474
0.475557622085
0.475458337682
0.475362478878
0.475271228405
0.475184220001
0.475102619503
0.475026854804
0.474957960665
0.474896514078
0.474844172419
0.474801832362
0.474771114477
0.474753014841
0.474749265891
0.474760506545
0.47478791698
0.474832064761
0.474893711643
0.474972575256
0.475069249621
0.475183185569
0.475314049433
0.475460791571
0.475622294301
0.475796755897
0.475982125708
0.476175795644
0.476374934868
0.476576070608
0.476775559685
0.476969479981
0.477153319733
0.477321036262
0.477468384289
0.477590106302
0.477681123242
0.477737427545
0.477755548811
0.477731669825
0.477663276981
0.477549906912
0.477390112549
0.477182751822
0.476927369297
0.47662325593
0.476270138656
0.475866443762
0.475409139678
0.474895567884
0.474323872327
0.473694070454
0.473007410767
0.472266873241
0.471477047029
0.470645093996
0.469777116044
0.468880082892
0.467962815795
0.46703422735
0.466097937798
0.46515788054
0.464227033402
0.463311934539
0.46240286781
0.46150660093
0.460641905768
0.459797827578
0.458960826511
0.458151745857
0.457390581648
0.456685925027
0.456003079076
0.455324975061
0.45470359158
0.454100304884
0.453531421915
0.452942663832
0.452247973817
0.451496710797
0.450766013092
0.450140190457
0.449752842083
0.449615955844
0.449598190584
0.449503917121
0.449322267435
0.449075776342
0.448695386797
0.448191702456
0.44762765186
0.447085341091
0.446602280197
0.446181604693
0.445813271185
0.445485582308
0.445188938339
0.444916002894
0.444661185372
0.444420084258
0.444189719106
0.443969378411
0.443759888848
0.443561656301
0.443372795864
0.443190273407
0.443012335006
0.442838456414
0.442668564494
0.442502579611
0.442340312411
0.442181429655
0.442025552428
0.441872377359
0.441721587632
0.441572741749
0.441425422381
0.441279043157
0.441132911544
0.440986674106
0.440840763956
0.440696884367
0.44055660043
0.440420300727
0.44028558262
0.440150148852
0.440013546548
0.439876455764
0.439739673906
0.439603439154
0.439467667703
0.43933211099
0.439196479852
0.439060587611
0.438924280722
0.438787392332
0.438649814541
0.438511461625
0.438372387368
0.438232622472
0.438092189736
0.437951243191
0.437809969585
0.437668282418
0.437526130734
0.437383393555
0.437239584596
0.437094235579
0.436946393976
0.436793833779
0.436635495555
0.436471005148
0.436298848726
0.436119539332
0.435935985153
0.435751423443
0.435572149829
0.43540890169
0.435264281963
0.435135974588
0.435006219824
0.43480973574
0.434433667031
0.474303882398
0.475973419542
0.476824804102
0.476853132471
0.476765816602
0.476725405803
0.476705718825
0.476687905897
0.476658647686
0.476612674143
0.476548017584
0.476466624586
0.476370317926
0.476262445853
0.476145376661
0.476022153373
0.475894687623
0.475765223273
0.475634860516
0.475505534677
0.475377548227
0.475252004808
0.475129554814
0.475011276704
0.474897363801
0.47478953449
0.474688561392
0.474596007629
0.474512987456
0.47444129495
0.474382083851
0.474336858943
0.474306627695
0.474292800709
0.474295516915
0.474315745494
0.474353497507
0.474408939923
0.474481443706
0.474570679947
0.474675327084
0.474794156202
0.474925145324
0.475066156882
0.475214478617
0.475367302828
0.47552118431
0.475672861755
0.475818487912
0.475953637617
0.476072461486
0.476170725411
0.476242658538
0.476282988219
0.476286971308
0.476250381521
0.476169332794
0.476044395748
0.475876955316
0.475667813481
0.475416808735
0.475123640889
0.47478658883
0.474404403531
0.473972522695
0.473487387469
0.472945334569
0.472343953448
0.471683290704
0.470965916957
0.470193948198
0.469372975734
0.468511731947
0.467618633999
0.466697670482
0.465758633742
0.464815248155
0.463873045743
0.462928327421
0.461990556183
0.461084389123
0.460174824707
0.45927883925
0.458410342695
0.457581414372
0.456797088648
0.456035889742
0.45530481195
0.454604175107
0.453915959882
0.453281891155
0.45265782876
0.45196789393
0.451270547833
0.450558540269
0.449863821141
0.449252622437
0.448768743777
0.448436647467
0.44828691125
0.448248526092
0.448193161005
0.448041101104
0.447807865595
0.44749635568
0.447093168646
0.44662881052
0.446145519263
0.445682732295
0.445258959544
0.444878535524
0.444537909302
0.444230855664
0.443951090962
0.443693159565
0.443452511726
0.443225433741
0.443009780177
0.442805140837
0.442612279487
0.442431001345
0.44225883972
0.442093067382
0.441932157777
0.441775700966
0.441623651511
0.441475960807
0.441332419554
0.441192666247
0.441056220939
0.440922533464
0.440790859321
0.440660586272
0.44053116211
0.440401870326
0.440271999493
0.440141416774
0.440011236821
0.439883506607
0.439760227245
0.439641307867
0.439524213767
0.439406662879
0.439287962737
0.439168642257
0.439049307111
0.438930223291
0.438811362007
0.438692558976
0.438573794968
0.438454971738
0.43833600935
0.43821681842
0.438097241194
0.437977191246
0.437856566957
0.437735317203
0.437613370653
0.437490746797
0.437367429061
0.437243185234
0.43711780698
0.436990926983
0.436861841052
0.436729698629
0.436593313138
0.436450510141
0.436300116234
0.436141465959
0.435973036863
0.435795535352
0.43561167416
0.435423915536
0.435236817925
0.435058983555
0.43489088057
0.434726529658
0.434543282688
0.434278940883
0.433845715993
0.474035292533
0.477217819924
0.477858083384
0.477361977992
0.477048567197
0.47690980378
0.476837409083
0.476782635086
0.476720397767
0.476643707401
0.476549275687
0.476438730312
0.476313365943
0.476176398489
0.476029680149
0.47587620879
0.475717462294
0.475555943711
0.475392635984
0.475228996291
0.475065792513
0.474904574635
0.474745352045
0.474589616704
0.474438087654
0.474291959712
0.474152076838
0.474020215547
0.473897403999
0.473785366533
0.473685206177
0.473598670014
0.473526485086
0.473469816127
0.473429261763
0.473405496366
0.473398251069
0.473407930783
0.473433798786
0.473475324492
0.4735311734
0.473600093614
0.473680087304
0.473769191545
0.473864921006
0.473965020125
0.474066562478
0.474166910521
0.474263264645
0.47435223722
0.474427260167
0.474484750248
0.474518270362
0.474520485142
0.474484873816
0.474405425757
0.474278810899
0.474108171729
0.473895192479
0.473641723182
0.473348750961
0.473018574756
0.472650773404
0.472243122501
0.471788154509
0.471281767543
0.470718394984
0.47009371938
0.469408098009
0.468665618962
0.467869396935
0.467022255728
0.466136934763
0.465227461325
0.464296745206
0.463350622091
0.462404017979
0.461462732311
0.460517203219
0.459584613166
0.458673748559
0.457798841464
0.456963739006
0.456142980213
0.455346983927
0.454587516945
0.453866571186
0.453184268096
0.452504115119
0.4518022567
0.451121325494
0.450427100039
0.449729118619
0.44907166259
0.448457734736
0.44793353832
0.447527314455
0.447243851412
0.447062264119
0.44696447806
0.446877440099
0.446734710524
0.446518778088
0.446243719504
0.445911921539
0.445530175058
0.445121821484
0.444710051336
0.444314118886
0.443944346336
0.443605022294
0.443295807201
0.443014029925
0.442756019281
0.442518029011
0.442296420222
0.442088276397
0.4418919261
0.441707201773
0.441534498634
0.441372941627
0.441220053883
0.441073288834
0.440931264887
0.440793496183
0.440659869517
0.440530265822
0.440404450855
0.440282029396
0.440162488158
0.440045286338
0.439929935154
0.439815991259
0.439702879471
0.439589846441
0.439476166597
0.439361938201
0.439248652943
0.439138604303
0.439033719705
0.438933375616
0.43883506552
0.438736509656
0.438637023013
0.438536953938
0.438436693512
0.438336374067
0.438235846738
0.438135069665
0.438033946091
0.437932456012
0.437830526337
0.437728089246
0.437625091207
0.437521429603
0.437416976855
0.437311655378
0.43720538185
0.437098141855
0.43698982408
0.436880126669
0.436768724305
0.436655193219
0.436538660227
0.436418131962
0.43629236952
0.436159338385
0.436017833273
0.435867074048
0.435705585055
0.435533879689
0.435354254548
0.43516817243
0.43497837
0.434790878439
0.434604096002
0.434409386585
0.434181784202
0.433865669879
0.433395356562
0.474090004652
0.478935418864
0.478795746583
0.47764494018
0.477195990918
0.476992281583
0.476865929238
0.476755349993
0.47663716528
0.476506873831
0.476361411102
0.476203399333
0.476033155594
0.475853791192
0.475666269441
0.475473368138
0.475276060207
0.475076532563
0.474875352107
0.474674480348
0.474474127955
0.474275660684
0.474079738381
0.473887443491
0.473699000656
0.473516097012
0.47333936654
0.473170258833
0.47300972707
0.472859400653
0.472720215594
0.472593487532
0.47248003419
0.472380989572
0.472296409905
0.472227044204
0.47217275348
0.472133503576
0.472108554413
0.472097425716
0.472098706314
0.472111230415
0.472133197191
0.47216298186
0.47219871591
0.47223887259
0.472281852381
0.472326329536
0.472370783975
0.472413450128
0.472449049338
0.472471412342
0.472472421897
0.472440374235
0.472363507172
0.472231507774
0.472043926078
0.471807512008
0.471526489568
0.471206014721
0.470853054075
0.470475133799
0.470077655575
0.469650536215
0.469185205775
0.468673758365
0.468108411511
0.467480268496
0.466786073934
0.466034017987
0.465231753461
0.464378607433
0.463484953521
0.462577242788
0.461640963427
0.460690036973
0.459746939595
0.458819295479
0.457918556855
0.457049449289
0.456190856363
0.455354808583
0.454553253891
0.453785908674
0.453056490781
0.452360779846
0.451677212141
0.450986459312
0.450286157375
0.449592043209
0.448934998644
0.448292543088
0.447700689591
0.447172651078
0.446710011004
0.446335281618
0.446052581113
0.445851909693
0.445702915779
0.445577637717
0.445426300655
0.445224858355
0.444976549408
0.4446914554
0.444374118298
0.44403295327
0.443680885235
0.443329842909
0.442990171412
0.442668695739
0.442369287306
0.442092998633
0.441839010619
0.441605364918
0.44138948168
0.441188554344
0.441000332951
0.440823610418
0.440658351154
0.440504697274
0.440361485449
0.440226408223
0.440097292702
0.43997288486
0.439852660669
0.439736454388
0.439624135185
0.439515496804
0.439410190523
0.439307769774
0.439207743541
0.439109639166
0.439012893448
0.438916830198
0.438820537543
0.438723367394
0.438625714845
0.438529309199
0.43843661058
0.438349120578
0.438265983181
0.438184814439
0.438103583378
0.438021680775
0.437939289138
0.437856668641
0.437773784122
0.437690527921
0.437606786918
0.437522514178
0.4374377263
0.437352384446
0.437266445569
0.437179819151
0.437092387118
0.437003992033
0.436914506918