/*--------------------------------*- C++ -*----------------------------------*\
| =========                 |                                                 |
| \\      /  F ield         | OpenFOAM: The Open Source CFD Toolbox           |
|  \\    /   O peration     | Version:  v1806                                 |
|   \\  /    A nd           | Web:      www.OpenFOAM.com                      |
|    \\/     M anipulation  |                                                 |
\*---------------------------------------------------------------------------*/
FoamFile
{
    version     2.0;
    format      ascii;
    class       surfaceScalarField;
    location    "14";
    object      phia;
}
// * * * * * * * * * * * * * * * * * * * * * * * * * * * * * * * * * * * * * //

dimensions      [0 3 -1 0 0 0 0];
oriented        oriented;


internalField   nonuniform List<scalar> 
24170
(
1.52149564886e-07
1.72347809807e-07
2.15470894861e-07
-5.73355999906e-08
2.36009455538e-07
-1.66733343063e-08
2.37962912671e-07
-1.0889393373e-09
2.46905840026e-07
-7.63494444074e-09
2.56296192416e-07
-9.3356627464e-09
2.66697400609e-07
-9.80059342334e-09
2.77172120244e-07
-1.17000710365e-08
2.89286831613e-07
-1.34138073763e-08
3.03146399302e-07
-1.71384238156e-08
3.20999389451e-07
-2.13735906284e-08
3.45149254518e-07
-2.84336250818e-08
3.80034494998e-07
-3.89341997033e-08
4.28203911096e-07
-5.17435918344e-08
4.85522704661e-07
-6.0256159068e-08
5.34363207787e-07
-5.08648289405e-08
6.03915445981e-07
-7.06152986805e-08
-5.46493458002e-07
1.14999378717e-06
5.95271524305e-07
-6.51247743403e-08
2.95141313282e-07
2.52999052059e-07
3.6427420025e-07
-8.03015761637e-08
3.68826389408e-07
-3.35448981925e-09
3.91547621843e-07
-2.82865762627e-08
4.10107794068e-07
-2.68310939698e-08
4.31716046348e-07
-3.04299429677e-08
4.52917645339e-07
-3.35547628949e-08
4.75817072591e-07
-3.78617906719e-08
4.99757132903e-07
-4.45786272494e-08
5.26676029978e-07
-5.26310570563e-08
5.58201156931e-07
-6.50396169591e-08
5.95959899567e-07
-8.15247457446e-08
6.38968070245e-07
-9.8913415927e-08
6.80133030401e-07
-1.04673229005e-07
7.18453328665e-07
-9.14455674163e-08
8.11724807325e-07
-1.65175599185e-07
-6.70190284521e-07
9.34160407877e-07
-5.32643045733e-08
3.54940731566e-07
4.35011327126e-07
-2.34018557194e-07
2.99516115878e-07
5.6490583041e-08
3.24382383104e-07
-2.85079528148e-08
3.22736656398e-07
-2.66210414596e-08
3.30447028726e-07
-3.53416409914e-08
3.37473980989e-07
-3.80065882568e-08
3.45422958611e-07
-4.30558785826e-08
3.54793372309e-07
-4.88206416034e-08
3.6547122038e-07
-5.76621120466e-08
3.79524752003e-07
-6.9035707521e-08
3.9822715464e-07
-8.62340007772e-08
4.22665575735e-07
-1.08215809824e-07
4.51709776877e-07
-1.29960041119e-07
4.8462200121e-07
-1.39254174674e-07
5.39475395053e-07
-1.47541002453e-07
6.52543223409e-07
-2.79092819878e-07
-6.90674950684e-07
6.72008435878e-07
7.77068299322e-07
-2.07942848302e-08
3.24193815899e-07
2.23815798946e-07
3.73363630884e-07
9.79440302002e-09
3.88148225867e-07
-4.27647757219e-08
3.97504868762e-07
-3.57813589499e-08
4.09322378464e-07
-4.76582048446e-08
4.21279280436e-07
-5.07405490401e-08
4.33312866702e-07
-5.68560384689e-08
4.45623899937e-07
-6.35568589497e-08
4.57841484408e-07
-7.32321184936e-08
4.71107871333e-07
-8.59817051284e-08
4.85478601306e-07
-1.04415435343e-07
5.00579953706e-07
-1.26818677329e-07
5.14651800516e-07
-1.47060978845e-07
5.31441464904e-07
-1.58495402722e-07
5.71803174149e-07
-1.89743006142e-07
6.33815802689e-07
-3.42431916726e-07
-6.39869052588e-07
5.81674145128e-07
2.10219119787e-08
3.7551877858e-07
4.0103573906e-07
-1.57687476022e-07
3.81654473275e-07
2.88806922218e-08
3.81272993382e-07
-4.31037319094e-08
3.90053509782e-07
-4.50899157304e-08
3.98918599923e-07
-5.75701968484e-08
4.10068099689e-07
-6.2916586368e-08
4.22472242375e-07
-7.08183096468e-08
4.36786178902e-07
-7.94786721664e-08
4.52780099922e-07
-9.10894289511e-08
4.71145433294e-07
-1.06078506097e-07
4.91041114698e-07
-1.25972301069e-07
5.10987829556e-07
-1.48261620563e-07
5.29832410579e-07
-1.67280140798e-07
5.53645646279e-07
-1.83514850191e-07
5.94389875299e-07
-2.31487922077e-07
6.24553767155e-07
-3.73447406876e-07
-5.73563963958e-07
5.57302971502e-07
5.64938293899e-07
2.60929741636e-07
4.09395607602e-07
-2.3503678266e-09
4.26987032938e-07
1.12487539174e-08
4.33522383647e-07
-5.02245737332e-08
4.3966283323e-07
-5.2085299096e-08
4.47079162475e-07
-6.6265209902e-08
4.55781482279e-07
-7.32174296773e-08
4.65496099272e-07
-8.260178651e-08
4.76641302335e-07
-9.30122637031e-08
4.89302279002e-07
-1.06371084305e-07
5.03877932031e-07
-1.23246579081e-07
5.19489386046e-07
-1.44040460586e-07
5.34993248465e-07
-1.65975228445e-07
5.51173127605e-07
-1.85396223488e-07
5.74439664023e-07
-2.08420566639e-07
6.06641891122e-07
-2.65017158301e-07
6.14789988312e-07
-3.82676870597e-07
-5.14002852185e-07
5.5414109909e-07
3.91426866493e-07
3.48154415927e-07
4.50543399682e-07
-6.41096391998e-08
4.58978331652e-07
1.73827236226e-09
4.63984425309e-07
-5.59874263992e-08
4.71483906266e-07
-6.02326617191e-08
4.79375536175e-07
-7.50520217911e-08
4.88639173037e-07
-8.34972109401e-08
4.9883219329e-07
-9.40208986134e-08
5.10240942269e-07
-1.05669373465e-07
5.22804234353e-07
-1.20160797273e-07
5.36403148205e-07
-1.37932894889e-07
5.50029864517e-07
-1.58665507496e-07
5.63023653025e-07
-1.79889684821e-07
5.77239231256e-07
-2.00494090385e-07
5.97034614551e-07
-2.29038032263e-07
6.17388386863e-07
-2.86120072583e-07
6.11457104727e-07
-3.77459084444e-07
-4.64023069359e-07
5.60694596009e-07
4.91664500272e-07
3.70028567401e-07
4.85922826256e-07
-6.09317798236e-08
4.99678118731e-07
-1.32600207894e-08
5.0419008213e-07
-6.14679607272e-08
5.11123231043e-07
-6.81969155945e-08
5.1809202673e-07
-8.33187338455e-08
5.26483831597e-07
-9.33918808896e-08
5.35874216375e-07
-1.05111524197e-07
5.46459810324e-07
-1.17999823332e-07
5.58015787635e-07
-1.33404746888e-07
5.70063764361e-07
-1.51523926339e-07
5.81674501384e-07
-1.71654216351e-07
5.92678253216e-07
-1.92127900251e-07
6.0493006512e-07
-2.13841937952e-07
6.1983879178e-07
-2.44925108765e-07
6.29534066148e-07
-2.96645669179e-07
6.1602669209e-07
-3.64711316059e-07
-4.22698319887e-07
5.73788049295e-07
5.2809337141e-07
3.93488474271e-07
5.3010530112e-07
-6.51788480681e-08
5.42365850863e-07
-2.6554985736e-08
5.47170679822e-07
-6.68487859162e-08
5.53702525312e-07
-7.52097701931e-08
5.60080967727e-07
-9.02931361959e-08
5.67657622246e-07
-1.01672232488e-07
5.76126976034e-07
-1.14356312533e-07
5.85580733854e-07
-1.28206792695e-07
5.95672209845e-07
-1.44168212218e-07
6.05794722873e-07
-1.62234869464e-07
6.15256369731e-07
-1.81670276841e-07
6.24217023171e-07
-2.01622132701e-07
6.3384477171e-07
-2.24014614151e-07
6.43230721147e-07
-2.54838191946e-07
6.44684543836e-07
-2.98609571439e-07
6.27604023818e-07
-3.4833065748e-07
-3.87501050647e-07
5.91865160358e-07
5.76679070319e-07
4.07874429326e-07
5.76871776599e-07
-6.78036435629e-08
5.88762228487e-07
-3.97759224613e-08
5.93309333658e-07
-7.23014300957e-08
5.99343263138e-07
-8.21706212196e-08
6.05052032841e-07
-9.70657604038e-08
6.11729942123e-07
-1.09575972063e-07
6.19126773794e-07
-1.2304011763e-07
6.27230301302e-07
-1.37568158508e-07
6.35598751561e-07
-1.53723984874e-07
6.43646960555e-07
-1.71341781613e-07
6.50942896721e-07
-1.89855427415e-07
6.57661051162e-07
-2.09134443748e-07
6.64088751289e-07
-2.31157748032e-07
6.6809543939e-07
-2.59491851883e-07
6.63621751261e-07
-2.94736059839e-07
6.45179077846e-07
-3.3041511142e-07
-3.57235573826e-07
6.14023918508e-07
6.27721831055e-07
4.15627265527e-07
6.26909088431e-07
-6.84531817065e-08
6.38387255889e-07
-5.20172479407e-08
6.42368129534e-07
-7.67514514073e-08
6.47814279853e-07
-8.80426616267e-08
6.52770500137e-07
-1.0256247713e-07
6.58464301793e-07
-1.15905173779e-07
6.6463748345e-07
-1.2991816043e-07
6.71197750869e-07
-1.44851121078e-07
6.77679953953e-07
-1.60881442017e-07
6.83595638547e-07
-1.77861358463e-07
6.88676716851e-07
-1.95530957699e-07
6.92929213398e-07
-2.13956476321e-07
6.95896738113e-07
-2.34683384431e-07
6.95199082384e-07
-2.59320744523e-07
6.86702634065e-07
-2.86727734887e-07
6.67731148939e-07
-3.12180640843e-07
-3.30089723566e-07
6.40063680588e-07
5.70912073387e-07
4.16664422656e-07
5.70083861257e-07
-6.89222553101e-08
5.78588822459e-07
-6.1272496172e-08
5.81600422157e-07
-8.02533845837e-08
5.85615910132e-07
-9.25408943048e-08
5.89206357316e-07
-1.06699018579e-07
5.93208681295e-07
-1.20495438819e-07
5.9741602386e-07
-1.34731990809e-07
6.01704387575e-07
-1.49653434483e-07
6.05677577183e-07
-1.65335645236e-07
6.0900523657e-07
-1.81727669433e-07
6.11602711081e-07
-1.98226620167e-07
6.13195092522e-07
-2.15619025547e-07
6.13097630197e-07
-2.34700673211e-07
6.09570397194e-07
-2.55864295538e-07
6.00318763245e-07
-2.77657446543e-07
5.8443841974e-07
-2.96389243556e-07
-3.09226136894e-07
5.63017688991e-07
7.01842716414e-07
4.13829431768e-07
7.01038659004e-07
-6.87338997264e-08
7.08402861816e-07
-6.90321899897e-08
7.11590527989e-07
-8.37925089995e-08
7.1544907929e-07
-9.67944190527e-08
7.18897911004e-07
-1.10605676369e-07
7.22542782339e-07
-1.24685568513e-07
7.2620634492e-07
-1.38914413537e-07
7.29658545698e-07
-1.53659972732e-07
7.32468856624e-07
-1.68822464889e-07
7.34553783446e-07
-1.83808394709e-07
7.35486222478e-07
-1.99205667472e-07
7.34983096885e-07
-2.14943879474e-07
7.32139366865e-07
-2.31570672126e-07
7.25329811676e-07
-2.48878475945e-07
7.13197900057e-07
-2.65183760803e-07
6.95087641641e-07
-2.78501826103e-07
-2.86614439859e-07
6.72539512769e-07
8.61678351672e-07
4.0466665438e-07
8.60643487271e-07
-6.79786387431e-08
8.66037911736e-07
-7.46013064794e-08
8.69003654091e-07
-8.68186040576e-08
8.72328669342e-07
-1.00182626237e-07
8.75262476269e-07
-1.13676455902e-07
8.78143787201e-07
-1.27666698852e-07
8.80732525729e-07
-1.41697174153e-07
8.82721553963e-07
-1.55904971734e-07
8.83954815392e-07
-1.69833790183e-07
8.83853380094e-07
-1.83820379968e-07
8.82438390992e-07
-1.97394942599e-07
8.7898413826e-07
-2.11105739938e-07
8.725956714e-07
-2.24842506974e-07
8.62248605087e-07
-2.38054322139e-07
8.46860696954e-07
-2.49631014409e-07
8.26872988987e-07
-2.58107344756e-07
-2.62801526812e-07
8.02841879415e-07
1.0578468649e-06
3.86606568566e-07
1.05536721067e-06
-6.5622831949e-08
1.05845634551e-06
-7.7713570508e-08
1.06037946819e-06
-8.85136107064e-08
1.06246921586e-06
-1.02077975061e-07
1.06421548902e-06
-1.1501710503e-07
1.06551490195e-06
-1.28677603069e-07
1.066234311e-06
-1.41983032977e-07
1.06611260125e-06
-1.55198946272e-07
1.06456096238e-06
-1.68106142519e-07
1.06171468991e-06
-1.80316154737e-07
1.05681300462e-06
-1.92177251809e-07
1.04953846645e-06
-2.03477750964e-07
1.03907083643e-06
-2.14129665968e-07
1.02480745898e-06
-2.23496698392e-07
1.00636888564e-06
-2.30961513617e-07
9.8406652622e-07
-2.3571482457e-07
-2.37541659242e-07
9.58953278348e-07
1.29649243845e-06
3.57224641325e-07
1.2924018946e-06
-6.18014719597e-08
1.29284728282e-06
-7.80127816105e-08
1.29290841637e-06
-8.83936543028e-08
1.29306747216e-06
-1.01616158333e-07
1.29258475814e-06
-1.14037956962e-07
1.29148479734e-06
-1.26773422016e-07
1.289373418e-06
-1.39121131019e-07
1.28591095427e-06
-1.5110568167e-07
1.28100284393e-06
-1.62376295586e-07
1.27400905613e-06
-1.72980241729e-07
1.26487973858e-06
-1.82704505727e-07
1.25294520084e-06
-1.91522539004e-07
1.23811049107e-06
-1.99087587356e-07
1.21971362464e-06
-2.05172288253e-07
1.19825021821e-06
-2.09264203832e-07
1.17361720833e-06
-2.1124553025e-07
-2.10938848352e-07
1.14722782929e-06
1.58190757554e-06
3.20509682879e-07
1.57791108962e-06
-5.81849782132e-08
1.57562374238e-06
-7.57477803649e-08
1.57312130978e-06
-8.55558414031e-08
1.57024492829e-06
-9.82785846967e-08
1.56666558942e-06
-1.0979733123e-07
1.56193408763e-06
-1.21386758482e-07
1.55587532172e-06
-1.32350976618e-07
1.54817815313e-06
-1.42695288681e-07
1.53849282799e-06
-1.52233912004e-07
1.526669143e-06
-1.60773446622e-07
1.51236949704e-06
-1.68257621196e-07
1.49555076532e-06
-1.74507983901e-07
1.47589562337e-06
-1.79411393973e-07
1.45364525483e-06
-1.82745809071e-07
1.42880095007e-06
-1.84422461511e-07
1.40211280159e-06
-1.8437815238e-07
-1.82773323366e-07
1.37388597761e-06
1.92661860724e-06
2.75450548153e-07
1.92160929824e-06
-5.41679167896e-08
1.91521458966e-06
-7.00969569838e-08
1.90938846692e-06
-7.95876878758e-08
1.90245540436e-06
-9.10243186447e-08
1.89463380763e-06
-1.01367882475e-07
1.8851477479e-06
-1.1139748163e-07
1.8740315678e-06
-1.20643895738e-07
1.86086742392e-06
-1.29074214659e-07
1.84561176672e-06
-1.36514774869e-07
1.82807503052e-06
-1.42880856301e-07
1.80823447466e-06
-1.48075110743e-07
1.78609317292e-06
-1.52048733982e-07
1.761714386e-06
-1.5471837757e-07
1.73535574549e-06
-1.56040809449e-07
1.70727676676e-06
-1.56023980446e-07
1.67802992652e-06
-1.54739295147e-07
-1.52395389657e-07
1.64797989307e-06
2.3466089329e-06
2.21603517539e-07
2.33702939145e-06
-4.75390510872e-08
2.32497961327e-06
-5.96987161884e-08
2.31451271955e-06
-6.95554600533e-08
2.302320725e-06
-7.88992979039e-08
2.28916598735e-06
-8.74647927532e-08
2.27396221246e-06
-9.54554812009e-08
2.25679036274e-06
-1.02541029977e-07
2.23746159144e-06
-1.08831959925e-07
2.21584848959e-06
-1.14112568396e-07
2.19220748189e-06
-1.18395260965e-07
2.16641655637e-06
-1.21597660181e-07
2.13886583321e-06
-1.23736769511e-07
2.10959816675e-06
-1.24814612446e-07
2.07904370798e-06
-1.24830744097e-07
2.04748455584e-06
-1.23864295055e-07
2.01522536217e-06
-1.21986743302e-07
-1.19275648863e-07
1.98259938414e-06
1.70726349772e-06
1.87309039459e-07
1.70764083818e-06
-5.39965688596e-08
1.69784546821e-06
-5.48593383435e-08
1.68832180911e-06
-6.27981771672e-08
1.67829408848e-06
-6.93885745192e-08
1.66663132517e-06
-7.61929637708e-08
1.65423230162e-06
-8.20994093966e-08
1.63998430803e-06
-8.76435196238e-08
1.62471563752e-06
-9.22929154426e-08
1.60784885467e-06
-9.62652408803e-08
1.58994989502e-06
-9.92930055208e-08
1.5708440883e-06
-1.01445710273e-07
1.5508928065e-06
-1.0271259219e-07
1.53025478468e-06
-1.03056961034e-07
1.50901885806e-06
-1.02594014082e-07
1.48760902918e-06
-1.0130553202e-07
1.46604877399e-06
-9.95043653755e-08
-9.77077466698e-08
1.44575456877e-06
1.53171370824e-06
1.14741324181e-07
1.48902580032e-06
-1.77324776772e-08
1.47854363121e-06
-4.66214593283e-08
1.4690870145e-06
-5.70434018343e-08
1.45941997144e-06
-6.16436659416e-08
1.44866436391e-06
-6.6509551309e-08
1.43673025113e-06
-7.03606164486e-08
1.42374920724e-06
-7.40717746177e-08
1.40950365317e-06
-7.74087564542e-08
1.39435812484e-06
-8.00876306922e-08
1.3782570424e-06
-8.22356633395e-08
1.36140113434e-06
-8.35881967599e-08
1.34406340266e-06
-8.4256290164e-08
1.32615257526e-06
-8.41856340474e-08
1.30812970836e-06
-8.34476539184e-08
1.28966224116e-06
-8.20163902753e-08
1.27103396695e-06
-7.97386001781e-08
-7.48847163922e-08
1.24886296279e-06
1.18789290689e-06
1.92392183768e-07
1.2998250205e-06
-1.33696215736e-07
1.29625518135e-06
-4.99723608132e-08
1.28951464372e-06
-5.19500311459e-08
1.28062879969e-06
-5.43858473544e-08
1.27107831799e-06
-5.70792545813e-08
1.26008436441e-06
-5.970558351e-08
1.24825612743e-06
-6.22079880447e-08
1.23583495238e-06
-6.43415645151e-08
1.2226119452e-06
-6.64224138753e-08
1.20909281921e-06
-6.77946909732e-08
1.19504760834e-06
-6.87505627246e-08
1.18097633602e-06
-6.90388894557e-08
1.16657170742e-06
-6.90185653161e-08
1.15239842043e-06
-6.8187642933e-08
1.13806972348e-06
-6.70845701314e-08
1.12476145258e-06
-6.56560901426e-08
-6.9454129991e-08
1.11999234998e-06
1.46518871273e-06
-1.61097420502e-07
1.12979461268e-06
2.01116139206e-07
1.117648133e-06
-3.53577170949e-08
1.11316355334e-06
-4.88160943912e-08
1.10622341991e-06
-4.7714182964e-08
1.09715976282e-06
-4.88560360204e-08
1.08726944976e-06
-4.94533138928e-08
1.07643206652e-06
-5.07772467667e-08
1.06466769255e-06
-5.21502587306e-08
1.05244152466e-06
-5.31766804351e-08
1.03946614971e-06
-5.41273575262e-08
1.02641184529e-06
-5.46202020293e-08
1.01284159378e-06
-5.4819400615e-08
9.99595923244e-07
-5.4358192135e-08
9.85658961565e-07
-5.38655937549e-08
9.72789410845e-07
-5.30470311933e-08
9.59338836631e-07
-5.21144714048e-08
-4.11295656057e-08
9.31886351337e-07
2.84699849049e-07
5.20743366882e-07
1.00797062019e-06
-5.20064760355e-07
1.01705111221e-06
-4.61917415113e-08
1.00677510939e-06
-3.68574489536e-08
9.99942526732e-07
-3.98722132301e-08
9.91918022911e-07
-3.93120769269e-08
9.82916240151e-07
-3.97586335451e-08
9.73424318332e-07
-4.04796045443e-08
9.63662724004e-07
-4.13266088678e-08
9.53634349583e-07
-4.24061200469e-08
9.43531710179e-07
-4.3116518765e-08
9.3311763464e-07
-4.32943072032e-08
9.22565655863e-07
-4.30790481677e-08
9.11720487858e-07
-4.27596920421e-08
9.00700430331e-07
-4.18635543959e-08
8.87921290696e-07
-3.97339003754e-08
8.71906312982e-07
-3.55285599698e-08
-4.17857405934e-08
8.72961146662e-07
2.07901097857e-06
-7.07334051669e-07
8.10712649255e-07
7.54821289062e-07
8.23718342292e-07
-5.35426522201e-08
8.38866455946e-07
-4.96437432488e-08
8.31731318758e-07
-3.15712639923e-08
8.24349638777e-07
-3.14127885637e-08
8.16039941907e-07
-3.01691739511e-08
8.07466467556e-07
-3.08640854734e-08
7.9874035956e-07
-3.17643215254e-08
7.90230873745e-07
-3.28225911244e-08
7.81931594636e-07
-3.38339221377e-08
7.7394342084e-07
-3.44213559958e-08
7.66282836106e-07
-3.46890606006e-08
7.59018920522e-07
-3.46835284546e-08
7.52446388341e-07
-3.4679706095e-08
7.48846206212e-07
-3.56934563677e-08
7.53607587628e-07
-3.9630173695e-08
-3.28872233329e-08
7.44879088349e-07
-9.54209829697e-07
9.8922947251e-07
8.74131541551e-07
-1.06590699792e-06
8.20136038374e-07
4.08994789858e-09
7.86516614091e-07
-1.24005158462e-08
7.82730189538e-07
-2.48558965315e-08
7.75042123261e-07
-2.18172991293e-08
7.67736126252e-07
-2.18141183162e-08
7.59152935986e-07
-2.13923721873e-08
7.49779725558e-07
-2.14442170535e-08
7.39437994788e-07
-2.15945205883e-08
7.28153734002e-07
-2.15450060504e-08
7.15702735148e-07
-2.10625842159e-08
7.02290309852e-07
-2.04198343165e-08
6.87860134616e-07
-1.97014236126e-08
6.72563906889e-07
-1.89683355352e-08
6.54657765429e-07
-1.7481527247e-08
6.28405140866e-07
-1.30389986609e-08
-2.1689493872e-08
6.17719033212e-07
2.38994024379e-06
-7.51786596283e-07
4.6242384215e-07
8.70102214642e-07
6.43241555386e-07
-1.70952182733e-07
6.5607220659e-07
-1.83482132188e-08
6.52580891074e-07
-2.11114813434e-08
6.47379049086e-07
-1.53306354755e-08
6.42075278871e-07
-1.52298501643e-08
6.37317646592e-07
-1.56629707833e-08
6.32841072849e-07
-1.60944855237e-08
6.29025913939e-07
-1.6800029966e-08
6.25957541684e-07
-1.72067317681e-08
6.23109197638e-07
-1.74833406271e-08
6.20779211403e-07
-1.75354664126e-08
6.1899896033e-07
-1.73741385583e-08
6.1750866255e-07
-1.71134349724e-08
6.179437401e-07
-1.76439204892e-08
6.26986447696e-07
-2.17523978465e-08
-9.23792480573e-09
6.15072875931e-07
-7.43922931653e-07
5.60535300199e-07
9.05562207083e-07
-7.69678062796e-07
5.53222398006e-07
1.8882640261e-07
5.94737272192e-07
-5.21812200793e-08
5.70598685097e-07
5.61117238307e-09
5.67369672151e-07
-1.04790794041e-08
5.58829939333e-07
-5.22129520575e-09
5.50844468495e-07
-6.63074330887e-09
5.42468179151e-07
-6.79933715393e-09
5.34278360169e-07
-7.4622719229e-09
5.26378953327e-07
-7.98135296773e-09
5.18351759289e-07
-8.44407535962e-09
5.10323998706e-07
-8.77137012432e-09
5.02461034116e-07
-8.90141717876e-09
4.94662324643e-07
-8.89316867926e-09
4.85251775763e-07
-7.94249078029e-09
4.65334570286e-07
-1.38817002306e-09
-1.47536714142e-08
4.71257584211e-07
1.28138013396e-06
-2.22641341851e-07
3.95956057096e-07
1.26905684892e-07
6.08724893145e-07
-1.49124993303e-08
5.60957628201e-07
4.56828192296e-09
5.7304216377e-07
-3.06973309533e-09
5.65283422612e-07
-7.07130437822e-10
5.63744636887e-07
-2.00195474748e-09
5.60131199139e-07
-1.78482495654e-09
5.56738363406e-07
-2.28830761095e-09
5.53073888552e-07
-2.37392961968e-09
5.49278381166e-07
-2.53045869662e-09
5.44986034685e-07
-2.89944303754e-09
5.40247093764e-07
-3.1201284184e-09
5.34954375884e-07
-2.88520892198e-09
5.28702354937e-07
-2.13536365718e-09
5.2346826861e-07
-2.29216448282e-09
5.30175915653e-07
-7.62760434636e-09
1.2158561757e-08
5.03830662969e-07
1.98490115362e-07
3.26120345703e-07
3.12059244575e-07
3.16970790647e-07
3.1411253243e-07
3.1360061021e-07
3.11751188055e-07
3.10109461346e-07
3.08013482388e-07
3.05900233743e-07
3.03586483323e-07
3.00852504627e-07
2.97876642717e-07
2.95102301893e-07
2.93054224144e-07
2.90869522074e-07
2.83386158676e-07
2.95609543798e-07
1.07565811694e-08
-9.40170416076e-09
-2.22168182792e-08
4.39811114271e-08
-1.13582449559e-07
7.86009067259e-08
-1.73776856002e-07
5.80526023252e-08
-1.9111551385e-07
-3.99509940154e-09
-1.79838159155e-07
-2.13811666805e-08
-1.8458107912e-07
-1.08666864465e-08
-1.90823976069e-07
-4.05203161491e-09
-2.02564903188e-07
1.13821766372e-09
-2.16379028022e-07
5.03179182317e-09
-2.30556805959e-07
7.43231064788e-09
-2.45253263845e-07
8.36783379821e-09
-2.57226382986e-07
8.10298831763e-09
-2.68097241523e-07
6.88461877963e-09
-2.75258983475e-07
5.15281063734e-09
-2.8061364475e-07
3.11997733078e-09
-2.82723570677e-07
1.1100304483e-09
-2.83061819978e-07
-7.85983427345e-10
-2.81169835192e-07
-2.41973958931e-09
-2.77951032128e-07
-3.7895944381e-09
-2.73530068083e-07
-4.85293001605e-09
-2.68251143026e-07
-5.65156337286e-09
-2.62566674539e-07
-6.21108747369e-09
-2.56408013948e-07
-6.56294211399e-09
-2.50294401183e-07
-6.76162262142e-09
-2.4400209477e-07
-6.83867774129e-09
-2.3796035034e-07
-6.83935410513e-09
-2.3187163749e-07
-6.77971986868e-09
-2.26023773539e-07
-6.70147359455e-09
-2.20191191753e-07
-6.61552437847e-09
-2.14488099495e-07
-6.54759777589e-09
-2.08775312123e-07
-6.50341425371e-09
-2.03032302587e-07
-6.49899401471e-09
-1.97217207853e-07
-6.53664364259e-09
-1.91226178552e-07
-6.61883924091e-09
-1.85061226717e-07
-6.75145580235e-09
-1.78632413129e-07
-6.92994638639e-09
-1.71906788315e-07
-7.14931226661e-09
-1.64872236019e-07
-7.41136847402e-09
-1.57438117652e-07
-7.70361234011e-09
-1.49695868886e-07
-8.03053205533e-09
-1.41468327806e-07
-8.37088724649e-09
-1.32976677941e-07
-8.73973574024e-09
-1.23938221829e-07
-9.10429122077e-09
-1.1471494314e-07
-9.49428427416e-09
-1.04909789437e-07
-9.86152350397e-09
-9.49897219933e-08
-1.02552429068e-08
-8.45171310854e-08
-1.06150768916e-08
-7.398471003e-08
-1.0991238466e-08
-6.29514912998e-08
-1.13239290585e-08
-5.19064901009e-08
-1.16734363874e-08
-4.04364092567e-08
-1.19611639223e-08
-2.89468477167e-08
-1.22511636911e-08
-1.7166386371e-08
-1.24873965486e-08
-5.37924871203e-09
-1.27125976515e-08
6.62724472442e-09
-1.2880519431e-08
1.86572550089e-08
-1.30372563094e-08
3.08397875361e-08
-1.31514079811e-08
4.30574055136e-08
-1.32594607785e-08
5.5408400515e-08
-1.33393083697e-08
6.78196512535e-08
-1.34320071573e-08
8.034871463e-08
-1.35063201031e-08
9.28576423764e-08
-1.34717925203e-08
1.04870683505e-07
-1.29624109691e-08
1.16425567556e-07
-1.24985954179e-08
1.2769768608e-07
-1.21903596796e-08
1.3876304159e-07
-1.19408496491e-08
1.49601592137e-07
-1.17269335129e-08
1.60345247155e-07
-1.15275814035e-08
1.70863928049e-07
-1.13487911609e-08
1.81348851813e-07
-1.11527564446e-08
1.91576650804e-07
-1.09687857516e-08
2.01800274938e-07
-1.07511014217e-08
2.11730705483e-07
-1.05543158263e-08
2.21679870997e-07
-1.03243268623e-08
2.31333684517e-07
-1.01482617556e-08
2.41064900645e-07
-9.96507803659e-09
2.50630099438e-07
-9.86769370357e-09
2.60441513463e-07
-9.80021304745e-09
2.70231751207e-07
-9.88110697402e-09
2.80480733577e-07
-1.00278262288e-08
2.90943303401e-07
-1.03528180153e-08
3.02170800695e-07
-1.07378414692e-08
3.1379792521e-07
-1.13288101369e-08
3.26464468771e-07
-1.19467049499e-08
3.39841970697e-07
-1.27597712071e-08
3.54643492854e-07
-1.35853988463e-08
3.70855077705e-07
-1.46058033152e-08
3.89316564643e-07
-1.5882699345e-08
4.11020800176e-07
-1.71510233978e-08
4.35293775967e-07
-1.89779072795e-08
4.6257838381e-07
-2.07813050938e-08
4.9247608084e-07
-2.28048407825e-08
5.25717223737e-07
-2.47387374016e-08
5.6198948279e-07
-2.71103030411e-08
6.02207479381e-07
-2.95073294672e-08
6.45187243011e-07
-3.16796719018e-08
6.90082049211e-07
-3.20790353661e-08
7.33505000273e-07
-3.01999945078e-08
7.73842483517e-07
-2.58968199964e-08
8.10853261912e-07
-2.24223280902e-08
8.54700583544e-07
-2.87112863228e-08
9.16016080511e-07
-4.630800664e-08
1.00332411357e-06
-7.21476972493e-08
1.12073746989e-06
-1.02343628433e-07
1.28842036819e-06
-1.50712074224e-07
1.38875330713e-06
-8.12501919157e-08
1.37630872535e-06
3.32182135735e-08
1.19333869411e-06
2.03648300586e-07
8.78564171144e-07
3.30760036183e-07
7.05413420857e-07
1.81439332067e-07
6.08616722336e-07
1.02266212456e-07
5.46603560767e-07
6.54187109188e-08
5.03202202317e-07
4.61276713512e-08
4.70377259412e-07
3.47506244594e-08
4.44597147832e-07
2.76573748457e-08
4.23423561513e-07
2.2795869151e-08
4.05795388944e-07
1.94371314344e-08
3.90671809661e-07
1.69152583117e-08
3.77710676956e-07
1.50625434497e-08
3.66403127756e-07
1.35511112271e-08
3.56639295528e-07
1.23812780762e-08
3.47992942693e-07
1.1332276887e-08
3.40371739078e-07
1.04475831297e-08
3.33460454831e-07
9.55465284992e-09
3.27335459863e-07
8.72927823801e-09
3.21849056641e-07
7.8114614287e-09
3.171359561e-07
6.97032976903e-09
3.13029340286e-07
6.07522332986e-09
3.09667850076e-07
5.26152790625e-09
3.06941152332e-07
4.3192637764e-09
3.04713810626e-07
3.7246528766e-09
3.02949053871e-07
2.90837382374e-09
3.01472026153e-07
2.46127189256e-09
3.00332658455e-07
1.70657863679e-09
2.99609226006e-07
1.02343725469e-09
2.99096140608e-07
3.74122091535e-10
2.98807238666e-07
-1.89094782831e-10
2.9873288238e-07
-6.61808358808e-10
2.98822015283e-07
-1.06585687561e-09
2.99128210755e-07
-1.30144131821e-09
2.99428550383e-07
-1.45570168866e-09
2.99795678225e-07
-1.42568363757e-09
2.99996321419e-07
-1.34911879691e-09
3.00170899067e-07
-1.11503143135e-09
3.00099163651e-07
-8.83179730871e-10
2.99993484166e-07
-5.36297871825e-10
2.99684670067e-07
-2.48209321781e-10
2.9945944467e-07
1.30754570401e-10
2.99158741778e-07
4.34237467568e-10
2.99128658616e-07
8.32579142148e-10
2.99221859073e-07
1.10194774013e-09
2.99920499959e-07
1.41919434941e-09
3.01080250407e-07
1.52119870799e-09
3.03309025638e-07
1.68639303947e-09
3.06378814725e-07
1.60261214182e-09
3.11078729549e-07
1.61424478556e-09
3.17095610866e-07
1.30697318946e-09
3.25419080102e-07
1.1822076093e-09
3.35477525036e-07
7.74736347416e-10
3.48429228672e-07
7.33665321232e-10
3.63413095858e-07
3.7193332858e-10
3.81919455907e-07
4.69135373272e-10
4.02694280481e-07
2.03173760402e-10
4.2752186645e-07
6.41957684383e-10
4.54593072627e-07
7.8218216715e-10
4.86270344318e-07
1.7509748245e-09
5.20504431085e-07
2.17091611524e-09
5.60595172646e-07
3.31130346827e-09
6.04306343081e-07
3.57982332998e-09
6.55918352614e-07
4.40661939945e-09
7.13195294141e-07
3.84634306749e-09
7.81147598697e-07
3.75728501725e-09
8.58669638791e-07
5.91288537907e-10
9.5377041797e-07
-4.69567647266e-09
1.06619688736e-06
-1.44537763188e-08
1.20488758041e-06
-2.69048155009e-08
1.36070741951e-06
-3.68932780826e-08
1.53296075755e-06
-4.00033267059e-08
-5.70794506767e-08
1.72574594188e-06
3.84953781766e-08
-4.77308889906e-08
6.26903267657e-08
2.26199563422e-08
7.83496433262e-08
5.77810617025e-08
7.52962860743e-08
5.83671800364e-08
2.20660961079e-08
4.28145778008e-08
-2.92787305857e-08
2.4991067588e-08
-5.86717838446e-08
1.16523203732e-08
-7.16060333757e-08
2.87824989278e-09
-7.39768681919e-08
-2.50436004255e-09
-6.88851404222e-08
-5.56439010942e-09
-5.86708869757e-08
-7.25387993877e-09
-4.628846656e-08
-8.18180365793e-09
-3.23442120638e-08
-8.74463589649e-09
-1.90604577149e-08
-9.13493039853e-09
-6.15859015781e-09
-9.44739689495e-09
5.08433719866e-09
-9.71977025569e-09
1.52332881185e-08
-9.97659502829e-09
2.38129198555e-08
-1.022778429e-08
3.13391713077e-08
-1.0494857559e-08
3.78861912179e-08
-1.07838117575e-08
4.3741941633e-08
-1.11280831369e-08
4.92717804883e-08
-1.15129948672e-08
5.45950986077e-08
-1.19626861772e-08
6.01443192765e-08
-1.24652383191e-08
6.58818050468e-08
-1.30286074978e-08
7.22150245913e-08
-1.36294359288e-08
7.90277056775e-08
-1.42725097431e-08
8.66184445495e-08
-1.49346363864e-08
9.48563382354e-08
-1.56106698341e-08
1.03893882163e-07
-1.62851278804e-08
1.13628759485e-07
-1.69497290287e-08
1.24078138551e-07
-1.75963476374e-08
1.35182851369e-07
-1.82131395981e-08
1.46867374068e-07
-1.88041235983e-08
1.59083089669e-07
-1.93614150142e-08
1.71727744433e-07
-1.98852855772e-08
1.84750631662e-07
-2.03761161827e-08
1.98059859154e-07
-2.08372494492e-08
2.11584474426e-07
-2.12677809161e-08
2.25284054006e-07
-2.16697028198e-08
2.39045662641e-07
-2.20491519384e-08
2.52898483071e-07
-2.24024686258e-08
2.66681325095e-07
-2.27398283511e-08
2.80495515847e-07
-2.30527828946e-08
2.94131860917e-07
-2.3355723624e-08
3.0775188748e-07
-2.36352503396e-08
3.21122715072e-07
-2.39067831323e-08
3.34442012664e-07
-2.41538599077e-08
3.47457586856e-07
-2.43972098185e-08
3.60368630761e-07
-2.46071804611e-08
3.72980946296e-07
-2.47985783837e-08
3.8544651945e-07
-2.49568800523e-08
3.97615679489e-07
-2.50869335871e-08
4.09602528518e-07
-2.51714058104e-08
4.21312818155e-07
-2.52178539781e-08
4.3281604152e-07
-2.52129686365e-08
4.4406230255e-07
-2.51606469495e-08
4.55065935622e-07
-2.50593741639e-08
4.65807054816e-07
-2.49118525986e-08
4.7625790169e-07
-2.47247315269e-08
4.86425683447e-07
-2.44966293662e-08
4.96285137114e-07
-2.42775628132e-08
5.06142329381e-07
-2.42224076321e-08
5.16540171962e-07
-2.4259905175e-08
5.26774464805e-07
-2.35967839771e-08
5.36518233621e-07
-2.28233180632e-08
5.45656283522e-07
-2.19167405132e-08
5.53958656804e-07
-2.08734745102e-08
5.61345814931e-07
-1.96903118477e-08
5.67625700582e-07
-1.83986499447e-08
5.72800118091e-07
-1.7008841255e-08
5.76726238006e-07
-1.5565654705e-08
5.79499362795e-07
-1.40811754844e-08
5.81019146673e-07
-1.26090366023e-08
5.81419964346e-07
-1.11583137369e-08
5.80634524393e-07
-9.76796868143e-09
5.7882610616e-07
-8.43690732725e-09
5.75937774223e-07
-7.19074180514e-09
5.72073647383e-07
-6.01788156213e-09
5.67101716822e-07
-4.92935835275e-09
5.61076033639e-07
-3.89052490336e-09
5.53812986584e-07
-2.89938645788e-09