/*--------------------------------*- C++ -*----------------------------------*\
| =========                 |                                                 |
| \\      /  F ield         | OpenFOAM: The Open Source CFD Toolbox           |
|  \\    /   O peration     | Version:  v1806                                 |
|   \\  /    A nd           | Web:      www.OpenFOAM.com                      |
|    \\/     M anipulation  |                                                 |
\*---------------------------------------------------------------------------*/
FoamFile
{
    version     2.0;
    format      ascii;
    class       volScalarField;
    location    "14";
    object      sensitivity;
}
// * * * * * * * * * * * * * * * * * * * * * * * * * * * * * * * * * * * * * //

dimensions      [0 2 -3 0 0 0 0];


internalField   nonuniform List<scalar> 
12225
(
-3.08669618138
-8.72002414524
-6.3271194798
-7.20460878929
-6.78225132813
-6.99686781177
-7.09475202819
-7.37558872074
-7.71131029022
-8.07957574498
-8.3856902586
-8.50311603348
-8.35639603965
-8.09326425203
-8.38848968165
-10.608491254
-15.4428049601
-18.3560498295
-18.5934981069
-8.11448580943
-10.0192852836
-9.74859684065
-10.3581532469
-10.8391763388
-11.4807211145
-12.1675173905
-12.89083976
-13.5763043857
-14.1593532825
-14.555223945
-14.7735136804
-15.0565656582
-16.0712962759
-18.7921066933
-22.830025903
-23.0959907356
11.753875837
-13.3637859941
-7.32351467843
-9.17016965821
-8.68461091827
-9.08195308776
-9.32024166011
-9.6964466195
-10.0625852722
-10.3817344896
-10.5867409646
-10.6265873957
-10.5423827741
-10.6196584176
-11.5179807836
-13.9631510197
-17.2336909056
-17.5904849605
-23.1556218007
-8.85838713261
-9.31494603755
-9.40817554801
-9.63493898899
-10.0191818465
-10.4306277454
-10.9051118858
-11.359854909
-11.7400205627
-11.9700733756
-11.9975435141
-11.8679743391
-11.834630735
-12.3925743791
-13.890006047
-15.4722279701
-14.902833847
1.35133505295
-9.18165613594
-8.4656181788
-8.91294753015
-8.95530776499
-9.25547919446
-9.57587160722
-9.97290153112
-10.3873450027
-10.7736475732
-11.0738340981
-11.2515757663
-11.3598537453
-11.6031955409
-12.2874186534
-13.435933125
-14.2146993874
-13.3941422531
-10.1517175534
-9.85201403746
-8.91279766463
-9.3907995331
-9.40012519641
-9.64975152889
-9.88688448238
-10.1797793122
-10.4716202164
-10.7321402619
-10.9241207039
-11.0396512885
-11.1489416426
-11.4205634899
-12.0212549601
-12.8103919708
-13.1249131393
-12.3461691051
-7.14864763669
-9.25010128066
-9.05189169626
-9.35293138299
-9.45049124662
-9.67215620455
-9.90065963961
-10.1589531232
-10.4091967768
-10.6234496333
-10.7788302147
-10.8825161864
-11.004278663
-11.2650811209
-11.7283968829
-12.2043586079
-12.2414779224
-11.5673976084
-8.26943906236
-9.37725607966
-9.20499019649
-9.47005996908
-9.56888943077
-9.75325836299
-9.94450352598
-10.1539228429
-10.3541173512
-10.5224176502
-10.6465483742
-10.7411963679
-10.8647271245
-11.0898821085
-11.4131172078
-11.6562985333
-11.5428482042
-10.9738210859
-8.72343158978
-9.35253889981
-9.38816524088
-9.56860464114
-9.68454215789
-9.83376096027
-9.9931057298
-10.1581931772
-10.3131153919
-10.4401548527
-10.5355599589
-10.6164126912
-10.7255645398
-10.8972295805
-11.0947112548
-11.1778144699
-10.9906819372
-10.5113025735
-9.20851448555
-9.3722721636
-9.55842103608
-9.66701553778
-9.78964720555
-9.90727726682
-10.0368306212
-10.1627983588
-10.2782847468
-10.3699743291
-10.4394787475
-10.5022984948
-10.5855287672
-10.6972391083
-10.7914178525
-10.7696856375
-10.5512303689
-10.1430645927
-9.66109627502
-9.39348128649
-9.71581705117
-9.75375183767
-9.87856734615
-9.96733845234
-10.0701236404
-10.1622306731
-10.2439732591
-10.3055720195
-10.3512790723
-10.3926459712
-10.443622659
-10.4977134174
-10.512700621
-10.4252840805
-10.1972079489
-9.84501740277
-9.97178234432
-9.42349796153
-9.81617474788
-9.80386573148
-9.92360422086
-9.98993413098
-10.0707228912
-10.1369064183
-10.1929999295
-10.2314967706
-10.2568536245
-10.2769096643
-10.2970803147
-10.3052109337
-10.2677722785
-10.1448436093
-9.91958373238
-9.60901784993
-10.1899488485
-9.46869876365
-9.88494913716
-9.83692914123
-9.94687885737
-9.99461911653
-10.0560465976
-10.10050301
-10.1346628366
-10.1527960597
-10.1593710824
-10.1583167128
-10.1494490372
-10.1202675597
-10.0455745931
-9.90198168958
-9.6840297957
-9.40816935467
-10.3646692769
-9.51164006033
-9.93291973937
-9.85412092355
-9.94903377804
-9.97772718399
-10.0186188897
-10.0416828542
-10.0542859186
-10.0525110998
-10.0390913881
-10.0155737211
-9.97930668637
-9.91858669113
-9.81709821369
-9.6622462645
-9.45592538716
-9.212500771
-10.5127638614
-9.55481081476
-9.97139716022
-9.86655532932
-9.94143575898
-9.94990895382
-9.9683596735
-9.96929932873
-9.95987745327
-9.93682320235
-9.90240905582
-9.85644292419
-9.79517572654
-9.71047984236
-9.59203279202
-9.43452097653
-9.24262434233
-9.02926150544
-10.589710678
-9.60091292787
-9.99233734175
-9.87292627698
-9.92486896359
-9.91406501972
-9.91006293123
-9.88971373048
-9.85847408706
-9.81505875643
-9.76002349407
-9.69330512206
-9.61200335041
-9.51088282646
-9.38411444015
-9.23020510225
-9.05470159127
-8.8684860507
-10.5776299612
-9.62640973851
-9.98259182615
-9.85639783082
-9.88564545867
-9.85750473431
-9.83281957728
-9.79314692698
-9.74272418698
-9.68097542995
-9.60847127544
-9.52553541659
-9.4304273732
-9.32019373285
-9.19193491358
-9.04585737397
-8.88740689117
-8.72538318971
-10.4968484974
-9.64575468679
-9.93866280365
-9.81639350385
-9.82238138911
-9.78028172756
-9.73762785009
-9.68209467502
-9.61602766297
-9.54025813425
-9.45513761711
-9.36173782356
-9.25920853613
-9.14616643511
-9.02118233404
-8.88521000332
-8.74307844616
-8.60203906739
-10.3940289047
-9.65556538182
-9.87921773062
-9.76403752763
-9.74888022577
-9.69646626102
-9.64009896878
-9.57323288491
-9.49657785449
-9.41199807334
-9.31985046766
-9.22179012756
-9.11748611393
-9.00639332989
-8.88766059479
-8.76244004064
-8.63471704281
-8.51062425562
-10.3226467288
-9.63303345983
-9.84876448423
-9.72736526615
-9.70724293087
-9.64749903979
-9.58537908368
-9.51288413281
-9.43193715376
-9.34430500184
-9.25049134303
-9.15258709215
-9.05023882035
-8.94353804579
-8.83156507336
-8.71549309329
-8.59904333537
-8.48814919313
-10.4521463544
-9.67291349391
-9.85158579988
-9.72438228255
-9.70167728312
-9.63775100147
-9.57239482641
-9.4967559489
-9.41335755284
-9.32363702102
-9.22827161404
-9.12944907327
-9.02763856904
-8.92225028649
-8.81281564452
-8.69990987894
-8.58641595149
-8.47564468069
-10.0220472485
-9.52671621302
-9.93695500489
-9.79152892797
-9.78099079085
-9.71206288905
-9.6456627464
-9.56756662101
-9.48430046213
-9.39589675227
-9.30462380185
-9.21127347
-9.11609327955
-9.01946293497
-8.92108650654
-8.82150483368
-8.72509050392
-8.63727741195
-12.0062236566
-9.99456187239
-9.82197586097
-9.72821934044
-9.70058925529
-9.63320554114
-9.56371540388
-9.48329794831
-9.39604803188
-9.30262207261
-9.20265805419
-9.10122329754
-8.99845438798
-8.89388007937
-8.78588502459
-8.67544612666
-8.56229127882
-8.45632499026
-5.71184525455
-8.94635154818
-10.3452196751
-10.0942081928
-10.1321903738
-10.0406937067
-9.97281349236
-9.88817667197
-9.8022988545
-9.71225376863
-9.62142325952
-9.52730764814
-9.43109953663
-9.33319329537
-9.2334699427
-9.13151747264
-9.03127703363
-8.90817216748
-22.7993182566
-10.6224953111
-9.64964505454
-9.64762537436
-9.56848374788
-9.51173674483
-9.43169968539
-9.35444843458
-9.27519873839
-9.19687688556
-9.1202051492
-9.04705247007
-8.97560421868
-8.90780990802
-8.8444894638
-8.78720704298
-8.73763687874
-8.74837328133
15.3709433312
-9.71214589846
-10.4216834957
-10.5476520562
-10.5086662864
-10.4005883159
-10.3276274606
-10.2239438793
-10.1174768879
-9.99522390864
-9.85738496793
-9.7051169645
-9.53783909582
-9.35558850766
-9.16310373664
-8.96879937511
-8.78480181117
-8.56263336716
-51.4063604828
-6.7563205534
-11.3396925636
-9.61297887587
-9.99920049513
-9.83767549271
-9.79477441409
-9.73445117244
-9.68231677402
-9.63510769827
-9.59209502591
-9.55144139916
-9.51670275872
-9.49188233749
-9.48051900823
-9.48408368287
-9.49383553252
-9.53761623889
33.2244113632
-17.2321231958
-8.22721496535
-11.0419979486
-10.0959736354
-10.193929774
-10.0155611942
-9.8975285639
-9.7628533167
-9.62999839698
-9.4980917575
-9.36619551497
-9.23466993581
-9.10578173723
-8.98087349126
-8.85875945701
-8.73346836309
-8.53984162724
-36.0613369684
-5.59520734625
-12.9622251865
-10.6162353152
-11.3086663464
-11.023005153
-11.0432838326
-10.9654961164
-10.9152293158
-10.8531585822
-10.7910953932
-10.725737621
-10.6560188293
-10.5771996542
-10.4826037317
-10.3676008056
-10.2212345787
-10.1017991173
-3.85727796123
-8.28743742464
-7.0788188441
-7.22773637288
-7.0560668378
-6.93077196457
-6.79354805238
-6.6560352492
-6.52143525799
-6.39330872261
-6.27240002857
-6.15824223234
-6.04836985208
-5.93972107843
-5.82804784811
-5.71831382821
-5.64298109226
-5.60956630454
-0.00219894628907
-0.00149055729644
0.000634180556328
0.0017501043724
-0.012520038685
-0.0329262030507
-0.0419895452497
-0.0620717124306
-0.0949055335854
-0.138238514441
-0.188366662219
-0.241907221806
-0.295921176417
-0.348341507565
-0.397822780701
-0.443503024799
-0.485128821561
-0.522526412459
-0.555978520197
-0.58568185708
-0.612167070195
-0.635779841807
-0.657081049636
-0.676451248117
-0.694296983071
-0.710924255854
-0.726563205596
-0.741346218255
-0.755218282203
-0.76813090679
-0.779837535231
-0.790125460096
-0.798606720908
-0.804975054436
-0.808809406282
-0.809737758704
-0.80741638484
-0.801476117076
-0.791618178572
-0.777532103784
-0.759036839512
-0.735891757907
-0.708024138486
-0.675285756748
-0.637718004763
-0.595298049483
-0.548148021429
-0.496421840357
-0.440331757622
-0.380129611852
-0.31610639689
-0.248621152877
-0.177956160441
-0.104533281622
-0.0286769259065
0.049298377287
0.129092157469
0.210392209294
0.292904068593
0.376321459789
0.460316701988
0.54442238718
0.628059392682
0.709433520107
0.785798666285
0.85852131522
0.928425629423
0.99589256711
1.06137562508
1.12497803714
1.18683290764
1.24677698745
1.30462480294
1.36003032776
1.41252846685
1.46161151975
1.50666430808
1.54723485119
1.58287969021
1.61323809273
1.63788846243
1.65660348266
1.6691801876
1.67550862328
1.67557998376
1.66943752452
1.65752488827
1.64038260508
1.61881901348
1.59498388716
1.57015406368
1.54510533088
1.51978512267
1.49295656655
1.46291063078
1.42809299455
1.38636213388
1.3330781673
1.26028015653
1.16357856031
1.04683685075
0.918853303895
0.792045990747
0.662887090325
0.495085403865
0.326250861523
0.172616342187
-0.0228677522625
-0.199703974118
-0.168108117016
-0.179304406769
-0.228959828317
-0.27502057545
-0.315686769964
-0.351169792181
-0.382073766995
-0.408983136419
-0.432415200465
-0.452758290577
-0.470308104693
-0.48529919375
-0.497988127711
-0.508585935953
-0.517277746444
-0.524144257654
-0.529301799747
-0.532859736177
-0.534971927334
-0.535785197639
-0.535508860892
-0.534433925102
-0.533189903994
-0.531849036444
-0.530495413516
-0.529126876979
-0.527779601287
-0.526367819273
-0.524797069975
-0.523051683597
-0.521170538719
-0.519194793797
-0.517023326513
-0.514529055912
-0.511581866547
-0.508118610213
-0.504111963846
-0.499573118999
-0.494566147127
-0.489173435416
-0.4834486649
-0.477439425388
-0.47123330487
-0.464999779537
-0.458915147697
-0.4531053898
-0.447624542202
-0.442577462758
-0.438064128185
-0.434088037304
-0.430490201717
-0.427100186336
-0.423771058041
-0.420419418966
-0.416868157667
-0.412746717159
-0.4074196346
-0.400113974771
-0.389957701593
-0.376393019243
-0.359132980588
-0.338231407447
-0.314417550093
-0.28826273532
-0.26325977428
-0.241536482959
-0.22306666889
-0.205828467862
-0.187967760759
-0.168307222485
-0.141384753743
-0.017863512951
0.0101717998667
0.0241213360499
0.021829184071
0.0117041130698
-0.000818001529082
-0.0131859443566
-0.0259261430373
-0.0369748348456
-0.0436493441222
-0.0440741592605
-0.037744155724
-0.0250995500704
-0.00718608292346
0.0146372440421
0.0391303139264
0.0650869522078
0.0917264333132
0.118394969367
0.144903869748
0.171151198474
0.197363646468
0.22385112841
0.251109330445
0.279644960558
0.310021449994
0.342814843796
0.378539513574
0.417730933659
0.460789724339
0.508126915761
0.559978667186
0.616582978537
0.678042745302
0.744394769363
0.815576019751
0.891470721178
0.971910510266
1.05664867185
1.14545380954
1.23800124139
1.33400351641
1.43308776055
1.53493079479
1.63913559004
1.7453351658
1.85311660444
1.96207627909
2.07178338911
2.18177071718
2.29165238568
2.4010165642
2.5095149404
2.61677761075
2.72247587346
2.82624037223
2.92773188733
3.02654934082
3.12231491428
3.21470785067
3.30349385971
3.38864911038
3.47052799576
3.55177928182
3.63257596326
3.70877903477
3.778200874
3.83942791246
3.89138233234
3.93321935769
3.96444715735
3.98487294252
3.99459794055
3.99395087983
3.98334375856
3.96321336976
3.93387783066
3.89553139283
3.84802326593
3.79079457238
3.72282966993
3.64279117518
3.54907933785
3.44013838561
3.31472990085
3.17246814356
3.01405920768
2.84125260215
2.65781706563
2.46873306803
2.27883138789
2.09264193165
1.91505748621
1.75072887507
1.59989227622
1.45738919903
1.31728158808
1.17727570137
1.04037507079
0.913313079291
0.79258700475
0.664029629754
0.498710064
0.330752218463
0.218163296961
0.0566065454367
-0.165313184659
-0.305620746341
-0.347694432264
-0.411268168639
-0.488691081826
-0.580034969132
-0.659517183605
-0.729771478069
-0.792473324295
-0.848886473436
-0.899961799385
-0.946508195004
-0.989204251125
-1.02858854878
-1.06514116213
-1.0992758895
-1.131341222
-1.16156218383
-1.19010425137
-1.21699267788
-1.24222567865
-1.26574832878
-1.28755923903
-1.30765306232
-1.32582020419
-1.34144457754
-1.3546422119
-1.3653252715
-1.37365638626
-1.37945531368
-1.38261756401
-1.38314057575
-1.38114922219
-1.37687067642
-1.37051797733
-1.36215149387
-1.35173024243
-1.33917906841
-1.32449119828
-1.30772421632
-1.28897718018
-1.26833914677
-1.24590437967
-1.22181826123
-1.19633583304
-1.16977330526
-1.14242527564
-1.11451399106
-1.08630037495
-1.05809204068
-1.03017041457
-1.0026972271
-0.975775838005
-0.949473704912
-0.923887760202
-0.899045719209
-0.874848420865
-0.850990910025
-0.827143035748
-0.802958134385
-0.777965920643
-0.751703572545
-0.723621917746
-0.693470231212
-0.66132449012
-0.628422292929
-0.595956513316
-0.567631131141
-0.541037131272
-0.514366351963
-0.479154226984
-0.430506334646
-0.360845143698
-0.29101992424
0.00652325195003
0.000492842849313
0.000245693785243
0.0183772157706
0.0470486190575
0.0747599016139
0.0964273185509
0.113289228633
0.128887768522
0.145968566059
0.165984033856
0.189176799149
0.215269615907
0.243782447641
0.274200857662
0.306144115573
0.339215051795
0.373180769059
0.407742892059
0.442714892319
0.477839899983
0.512967282669
0.547874617405
0.58243499955
0.616533387642
0.650109674678
0.683154307608
0.715719532463
0.747942812432
0.779982420048
0.812081693284
0.844489307467
0.877509366651
0.911398007593
0.946454491115
0.982931367951
1.02103649844
1.06096628123
1.10285890386
1.1468180711
1.19286087622
1.24098491181
1.29108290791
1.34302805977
1.39659103306
1.45151565646
1.50747198666
1.56407360166
1.62090952145
1.67754607601
1.73352545926
1.78838786808
1.84174343308
1.89318471884
1.94233940663
1.98884728628
2.03239213316
2.07269678223
2.10950967513
2.14264971369
2.17193058827
2.1971766503
2.21732652227
2.23117029996
2.24331637071
2.25676807824
2.27265760097
2.29170340747
2.31453118051
2.34151243377
2.37270179725
2.40779348798
2.44614993565
2.48685672368
2.52871180597
2.57029855326
2.61001135877
2.64613051873
2.67675818684
2.699846367
2.71316710451
2.7144004729
2.70115673757
2.67108438504
2.62212269589
2.55266187191
2.46179420859
2.34967930573
2.2181358163
2.07159248199
1.91594625591
1.75630062581
1.59620102437
1.43734520707
1.28172305182
1.13350778779
0.99841488838
0.880287745541
0.778521602966
0.678157805878
0.55868859581
0.420021181747
0.30712073765
0.215457385721
0.0611524647216
-0.180072286853
-0.265345535408
-0.301531827893
-0.385240483355
-0.507969242438
-0.607504058762
-0.693734063839
-0.760894438954
-0.816820491638
-0.865761163453
-0.910106310484
-0.951112788856
-0.989472696477
-1.02546257362
-1.05909299611
-1.09023842235
-1.11874226015
-1.14446054001
-1.16729406946
-1.18722024448
-1.20430465159
-1.21866547604
-1.23057413191
-1.24033398006
-1.24822152411
-1.25454538273
-1.25962186502
-1.26359650539
-1.26702529646
-1.26989447427
-1.272072742
-1.27369920485
-1.27486878088
-1.27572605791
-1.27646019783
-1.27714871415
-1.27769288846
-1.27786314048
-1.27745028045
-1.27633470043
-1.27448872663
-1.2719346961
-1.26868932964
-1.26476511907
-1.26017280665
-1.25494472699
-1.24908579947
-1.24257761097
-1.23537380993
-1.22741862947
-1.21856758265
-1.20863331106
-1.19740767978
-1.18476663658
-1.17061101099
-1.15485315113
-1.13739997144
-1.11824407757
-1.09736569006
-1.07478822524
-1.05047486321
-1.02428452654
-0.996040118658
-0.965608669459
-0.932981426533
-0.898875935176
-0.865212466079
-0.833704151324
-0.808543896675
-0.789135476005
-0.773762105171
-0.758902543887
-0.732164904549
-0.682357198387
-0.628880670578
-0.0472206540205
-0.0404921395505
0.0164176177787
0.0809403234061
0.141356605938
0.1878478798
0.218884918767
0.239928692898
0.257469353628
0.275651829019
0.296406681956
0.320259924129
0.347134391617
0.376785236301
0.408908820125
0.443293500431
0.479694470652
0.517957629782
0.557863656119
0.599287430861
0.642025104488
0.685930708258
0.730829704014
0.776606002779
0.823103768483
0.870246173759
0.917957179816
0.966205737004
1.01498375626
1.06431979439
1.11427451569
1.16489439756
1.21625921802
1.26844273405
1.32150026529
1.37545990104
1.4303661559
1.48621449954
1.54298082776
1.60063050228
1.65908813429
1.71826241149
1.77801601284
1.83819743977
1.89861737468
1.95906703172
2.01931420785
2.07912846782
2.13827109097
2.19649239382
2.25361195769
2.30945907875
2.36388255441
2.41679650242
2.46816439148
2.51795663894
2.56617697303
2.61287306282
2.65811507357
2.70189294515
2.74428179217
2.78519809595
2.82539254146
2.86297213601
2.89415579106
2.91719915949
2.93170396779
2.93754114464
2.93496990451
2.9246402501
2.90751356128
2.88474260879
2.85753007752
2.8270379711
2.79426901331
2.7600421234
2.72491220963
2.6891468065
2.65264518755
2.61489602882
2.57492307532
2.53128176423
2.48208019578
2.42509402548
2.35780058232
2.27778253218
2.18323363994
2.07327581771
1.9491444516
1.81299195919
1.66641512903
1.51018990211
1.34607685844
1.17903227613
1.01711130621
0.868268939709
0.736041925372
0.614957157492
0.49168785867
0.357285170363
0.240098166552
0.16565298517
0.102269404914
-0.0630728434775
-0.208345658553
-0.253989804085
-0.261593237317
-0.337731509895
-0.481547774248
-0.63159758322
-0.749268074501
-0.848106469397
-0.929534313055
-0.999835478898
-1.06232798689
-1.11869782836
-1.16969598148
-1.21572700128
-1.25703283911
-1.29385583278
-1.32650883858
-1.35541335895
-1.38105126176
-1.40390910035
-1.42444821133
-1.44309906553
-1.46026720615
-1.47618781118
-1.49091535032
-1.50443372257
-1.5166565836
-1.52732802526
-1.53617654574
-1.5428008236
-1.54701057379
-1.54917259742
-1.5492036121
-1.54717864289
-1.54335596951
-1.53810864076
-1.53175083503
-1.52442718466
-1.51613955581
-1.50689045045
-1.49675233966
-1.48587674898
-1.47442126528
-1.46250043771
-1.45018289467
-1.43751121997
-1.42449903756
-1.41115311035
-1.39747246318
-1.38343927555
-1.36902623164
-1.35423139819
-1.33906502714
-1.3235015809
-1.30752060947
-1.29111923829
-1.27436929614
-1.25737996525
-1.24029997597
-1.22324075686
-1.20621501225
-1.18908133037
-1.17149982314
-1.15301049294
-1.13315440899
-1.11129112666
-1.08761515052
-1.06363109114
-1.04049167919
-1.02223789278
-1.00951521454
-1.00286996148
-1.00759584459
-1.00974783032
-0.9974763373
-0.98725385789
-0.104611685749
0.0296622426871
0.148056710544
0.214543811542
0.263480385235
0.295861998653
0.313974799848
0.324746014668
0.334296181042
0.345896138358
0.36074563073
0.379057706148
0.400685482597
0.425432939388
0.453055259522
0.483377816295
0.516172107465
0.551277880335
0.588478505971
0.627598727491
0.668424169236
0.710808496616
0.754544535704
0.799499313305
0.845530068708
0.89254719589
0.940451842594
0.989219306501
1.0388234536
1.08928229803
1.14061039608
1.19285639191
1.2460544006
1.30020620393
1.35533357438
1.41140927026
1.46837655138
1.52614851775
1.58461952249
1.64362599551
1.70297253676
1.76241506573
1.82166342545
1.88038205111
1.93819367918
1.99468532125
2.04942326386
2.10194057152
2.15178821011
2.19855118232
2.24182603721
2.28127256685
2.31663279033
2.34770863838
2.37438981381
2.39664195228
2.41447246688
2.42791954757
2.43708403927
2.44214911985
2.44332009221
2.44068262796
2.43468724432
2.42896672135
2.42628873335
2.42730626063
2.43206777674
2.44000830491
2.45023078287
2.46166655709
2.47324746669
2.48401627871
2.49317173515
2.5000895387
2.50425533575
2.50521591266
2.5024688958
2.49539140706
2.48311667506
2.46452168418
2.43819971983
2.40251348203
2.35575367058
2.29633793248
2.2230560783
2.13530930387
2.03308048666
1.91705110732
1.78777654427
1.64682281213
1.49488072823
1.3332470859
1.16704115303
1.00372144353
0.847263111088
0.696026823676
0.544412436787
0.388153568968
0.239398572381
0.125868860407
0.0679494192395
-0.0107195023894
-0.151536545903
-0.280577752502
-0.303245062795
-0.297337369644
-0.349537368516
-0.473983184737
-0.630543992178
-0.775065545628
-0.890366463041
-0.985101436488
-1.06167210295
-1.12459672077
-1.17708106493
-1.22145626302
-1.25943094137
-1.29234405382
-1.32125733127
-1.34700280725
-1.37023750176
-1.3914537157
-1.41098491557
-1.42901221557
-1.44560901792
-1.46079083812
-1.47452413534
-1.48678737825
-1.4975710619
-1.50680154015
-1.51428951807
-1.51997768009
-1.52407165956
-1.52688737739
-1.52847396805
-1.5287938526
-1.52802257115
-1.52641268789
-1.52433345533
-1.52216808446
-1.52016704257
-1.51831387747
-1.51644006294
-1.51435383388
-1.51190899312
-1.50898194022
-1.50547276075
-1.50132172342
-1.49651100077
-1.49105859188
-1.48500084416
-1.47838709909
-1.47129560167
-1.46380921002
-1.45595621554
-1.44773694908
-1.43915864186
-1.43022635517
-1.42092645404
-1.41120930949
-1.40104322676
-1.39041070403
-1.3793558084
-1.36794371031
-1.35621194106
-1.34413146407
-1.33147539984
-1.31783956879
-1.30284400404
-1.28576227799
-1.26654312953
-1.24636680757
-1.22549731534
-1.20806116997
-1.1943316795
-1.18620449653
-1.19277497485
-1.20512402902
-1.21247880801
-1.23004675173
-0.104106013227
0.275896166659
0.364471529893
0.34564837268
0.345005906543
0.352735851264
0.361167769171
0.369570122924
0.379447441217
0.391596659244
0.406148595219
0.423141877833
0.442546122212
0.464391497813
0.488644395685
0.515317999049
0.544348366915
0.575707104631
0.609293063592
0.645060361415
0.682888967258
0.722692789812
0.76435334685
0.807789880194
0.852864884919
0.899508740974
0.947617190527
0.997129776864
1.04796124127
1.10006738602
1.15338703504
1.20785405522
1.26339799111
1.31994086773
1.37737003007
1.43553895334
1.4943122433
1.55348878621
1.61286237425
1.67218553386
1.73119535328
1.78958117538
1.84701283557
1.90311915188
1.95751823355
2.00979851033
2.05954528843
2.10635345562
2.14983298983
2.18962474376
2.22546505388
2.25716234723
2.28456610024
2.30764758297
2.3264845663
2.34122121623
2.35203250955
2.35914689435
2.36289082984
2.36369639694
2.36210892362
2.35847756142
2.35231895263
2.34331968259
2.33016622551
2.31351900414
2.29419673783
2.27318583172
2.25149406588
2.23001409051
2.20945982578
2.19033598203
2.17296268257
2.15750134421
2.14396802425
2.13226693347
2.12215517254
2.11316331699
2.10442667819
2.0945556988
2.08145538553
2.06228479946
2.03377630435
1.99271363487
1.93635244111
1.86299301584
1.77214423454
1.66374721805
1.54010372298
1.40497749945
1.26218841475
1.11617000977
0.970907926113
0.826859920724
0.678444149111
0.521981192362
0.363231471076
0.217454716801
0.115126559202
0.0325517554224
-0.0543078502633
-0.191293937252
-0.321049074363
-0.368714901616
-0.369390800403
-0.41586057146
-0.524730542471
-0.669277725399
-0.817430776477
-0.948378184248
-1.05649267262
-1.14672546939
-1.22151009766
-1.28431191247
-1.33802661023
-1.38493332802
-1.42668965193
-1.46443071904
-1.49888174274
-1.53043981975
-1.55931698717
-1.58561343747
-1.60936429905
-1.63056741145
-1.64923203888
-1.66538795309
-1.67914452905
-1.6906138231
-1.69992018007
-1.70719064118
-1.71265277652
-1.71660755384
-1.71929823492
-1.72061054023
-1.72068221002
-1.71949345109
-1.71701970739
-1.71334458693
-1.70869129094
-1.70333580042
-1.6974428295
-1.69099997401
-1.68394410046
-1.67625451419
-1.66797605649
-1.65917632657
-1.64993488361
-1.64032339397
-1.6304132868
-1.62026459421
-1.60993386934
-1.59946527817
-1.58890262575
-1.57827601747
-1.56761026918
-1.55690646258
-1.54617560186
-1.5354677187
-1.52484956602
-1.51436451953
-1.50409318612
-1.49416934488
-1.48475288797
-1.47596065091
-1.46782954462
-1.46030960631
-1.4532321954
-1.44635807109
-1.43934805277
-1.43143898449
-1.4223594708
-1.41289509977
-1.40261044812
-1.39489871699
-1.38949733032
-1.38599136813
-1.39202024842
-1.40427459011
-1.41367921139
-1.4382986867
-0.0123341426072
0.670696341692
0.583478123581
0.434669514129
0.398353039706
0.39722404908
0.406174418369
0.415013446601
0.423756199648
0.43324015246
0.443936912439
0.456356766249
0.470774549118
0.487417486261
0.506372183474
0.527720996936
0.5514451326
0.577559891278
0.606011613618
0.636775260291
0.669779970032
0.705004551816
0.742354681684
0.781786325216
0.823215821731
0.866586037755
0.911798654195
0.958796424809
1.00748577937
1.05779087046
1.10960522253
1.16283411039
1.21734996189
1.27298819584
1.32958942171
1.38694012848
1.44480528799
1.50290937697
1.56096865636
1.61864023658
1.67557087875
1.73135626228
1.78557346129
1.8377598475
1.88744237969
1.93413219553
1.97734866826
2.01661477044
2.05149429453
2.0816308153
2.10676209612
2.12673762962
2.14149109778
2.15111852931
2.15588216488
2.15613368418
2.15219377674
2.1444024245
2.13326711697
2.1192832118
2.10284591028
2.08453071118
2.06609308299
2.04723189019
2.02730980199
2.00622243045
1.98372918267
1.95981561365
1.93472793768
1.90893916774
1.88308165377
1.85783183326
1.83382911872
1.81160092494
1.79150365348
1.7736932124
1.75814645941
1.7446373974
1.73263937076
1.7212141279
1.70877131526
1.69288758177
1.67026510053
1.6369523921
1.58900428082
1.52351252936
1.43926993279
1.33799744691
1.22380520519
1.10407165532
0.983579586025
0.862441600014
0.738945823353
0.610086677094
0.46971349792
0.326115184113
0.204333266675
0.0953654708939
0.00810660700763
-0.10001805205
-0.233250109871
-0.360038615165
-0.431470369384
-0.458361847959
-0.504278918436
-0.602292551352
-0.733252633817
-0.871921729325
-1.00205290576
-1.11612780947
-1.21283330728
-1.29482424503
-1.36389607994
-1.42236296894
-1.47228279172
-1.51536996248
-1.55290348886
-1.58581580547
-1.61474852657
-1.64017865513
-1.66249308974
-1.68204562491
-1.69914547435
-1.71406376868
-1.72704314469
-1.73832045986
-1.74810896514
-1.75660374592
-1.76397328969
-1.77035613778
-1.77579707764
-1.78016196288
-1.78339794394
-1.78518250139
-1.78538750401
-1.78408037868
-1.78137352258
-1.77752369547
-1.77289575644
-1.76786690447
-1.76265487029
-1.75730385472
-1.7517669449
-1.74601740398
-1.74006198241
-1.7339277471
-1.72763440537
-1.72118671641
-1.71457703113
-1.70778959208
-1.70081359733
-1.69365053835
-1.68629315731
-1.67871778265
-1.67091744293
-1.66288876847
-1.65463833092
-1.64618438566
-1.63755350928
-1.6287890769
-1.61999170752
-1.61130185896
-1.60286139883
-1.59477235651
-1.58705288995
-1.57967549961
-1.5724993466
-1.56536435296
-1.5580558564
-1.55022186665
-1.54173265459
-1.53336100821
-1.52453871185
-1.51898572642
-1.51520045808
-1.51227949285
-1.51450554911
-1.52340394083
-1.53314521037
-1.56492695213
0.176128902064
1.13681400683
0.744891050018
0.492404905256
0.456845947554
0.455092725875
0.462129182935
0.463259546227
0.463606665355
0.464990702552
0.468134193591
0.473703379011
0.481808159412
0.492545491848
0.505888065278
0.521814402972
0.540245944573
0.561139307682
0.584402709436
0.610003813571
0.637854567073
0.667904578223
0.700066024078
0.734278318226
0.770423854596
0.808428107243
0.848171142188
0.889550968977
0.932432392323
0.976692071274
1.02218499705
1.06874633973
1.11620845022
1.16438221351
1.21305990467
1.26200105488
1.31097472311
1.35969476875
1.40787716752
1.45519850747
1.50132985133
1.54590190651
1.5885336566
1.62881243456
1.66632260154
1.70064305256
1.73136389433
1.75811299265
1.7805376244
1.79836169534
1.81149983
1.81998304616
1.82387608391
1.8234695536
1.81930354913
1.81187302128
1.80143695031
1.78821905783
1.77243256632
1.75435708406
1.73371508327
1.71015434182
1.68634994525
1.66020351992
1.63266351812
1.60394982304
1.57433307607
1.54413606753
1.51375559498
1.48371363185
1.45466406222
1.42732695715
1.40245147631
1.38071558272
1.36259274928
1.3482629139
1.33759640505
1.33016041023
1.3251457097
1.32119145541
1.31618630094
1.30712280159
1.29018176549
1.26109317442
1.21607896968
1.15313281651
1.07306624226
0.979198841113
0.876966534725
0.773529192181
0.670488614885
0.562705472029
0.445171516565
0.326174620229
0.207001172617
0.0941322732358
0.00257193407646
-0.0970665295383
-0.210550626068
-0.329714786815
-0.435059515245
-0.510746792945
-0.558603273382
-0.610707596364
-0.697502028263
-0.814212263774
-0.940427984608
-1.06259984077
-1.174465826
-1.27363037019
-1.35971682361
-1.43395168848
-1.49746538094
-1.55176743003
-1.59834238267
-1.63856373449
-1.67356081544
-1.70425120095
-1.73132949185
-1.75534323406
-1.7767283852
-1.79582983153
-1.81289597322
-1.82809212011
-1.84151627087
-1.85324958421
-1.86336269633
-1.87191259152
-1.87895885854
-1.88455377711
-1.88871620611
-1.89148079052
-1.89297687056
-1.8931228952
-1.89205169342
-1.88981597028
-1.88652253603
-1.88238300579
-1.87770714735
-1.87278890281
-1.86777444006
-1.86265424694
-1.85734082601
-1.85176867787
-1.84591254933
-1.83978226078
-1.833392172
-1.82676420626
-1.81991649854
-1.81287345021
-1.80566398322
-1.79832686868
-1.79088626975
-1.78335852888
-1.77576029643
-1.76811801582
-1.76046753087
-1.75283986256
-1.74525173978
-1.73774183103
-1.73039020832
-1.72327781061
-1.71646909269
-1.70999063646