/*--------------------------------*- C++ -*----------------------------------*\
| =========                 |                                                 |
| \\      /  F ield         | OpenFOAM: The Open Source CFD Toolbox           |
|  \\    /   O peration     | Version:  v1806                                 |
|   \\  /    A nd           | Web:      www.OpenFOAM.com                      |
|    \\/     M anipulation  |                                                 |
\*---------------------------------------------------------------------------*/
FoamFile
{
    version     2.0;
    format      ascii;
    class       volVectorField;
    location    "14";
    object      U;
}
// * * * * * * * * * * * * * * * * * * * * * * * * * * * * * * * * * * * * * //

dimensions      [0 1 -1 0 0 0 0];


internalField   nonuniform List<vector> 
12225
(
(9.73887057967 0.039876223998 0)
(9.50304622837 0.0408043861738 0)
(9.24762322316 0.0400615851679 0)
(8.99694937856 0.0403149941263 0)
(8.75953410511 0.0403176760522 0)
(8.53426237866 0.0399166855498 0)
(8.31920615204 0.0393263366901 0)
(8.11350413772 0.0387013505579 0)
(7.91674835812 0.0381055461993 0)
(7.72843737115 0.0375633100432 0)
(7.54785637911 0.0370938261218 0)
(7.3741418139 0.0367238258484 0)
(7.20633766451 0.0364913970144 0)
(7.04338781373 0.0364522791846 0)
(6.88403218825 0.0366991696818 0)
(6.72648957077 0.0374319772714 0)
(6.56816623158 0.0393183770508 0)
(6.3935614955 0.0384086572871 0)
(10.01652144 0.0712382221948 0)
(10.0367214752 0.0697882207962 0)
(10.0243719103 0.0667545828077 0)
(9.99661958554 0.0674390308347 0)
(9.96299378257 0.0683170620174 0)
(9.92467446178 0.0686745642415 0)
(9.88158714579 0.0688513345953 0)
(9.8342871501 0.0691053977363 0)
(9.78354886781 0.0695086888494 0)
(9.72993696319 0.0700674133432 0)
(9.6737203575 0.0707997164093 0)
(9.61493482438 0.0717601690375 0)
(9.55343330775 0.0730447347998 0)
(9.48887585247 0.074805061711 0)
(9.42063946752 0.0772982392399 0)
(9.34758591907 0.0810360771488 0)
(9.26863706297 0.0873344480622 0)
(9.17328536727 0.100676260621 0)
(10.0212464386 0.0580209283817 0)
(10.0534952753 0.0580398883052 0)
(10.0677267901 0.0560183224384 0)
(10.072065583 0.0585765703973 0)
(10.0738444417 0.0614894356556 0)
(10.0737266003 0.0636734098226 0)
(10.0709891475 0.0655504199756 0)
(10.0655092796 0.0674804422443 0)
(10.0575103358 0.0695675597075 0)
(10.0471538288 0.0718261394146 0)
(10.0344287333 0.0742955431792 0)
(10.0191922428 0.0770757699729 0)
(10.001214374 0.0803340619622 0)
(9.98017956013 0.0843253888647 0)
(9.95565483505 0.0894604147093 0)
(9.92704418529 0.0964688903784 0)
(9.89427419334 0.106772846746 0)
(9.85302079587 0.121467207398 0)
(10.0159925429 0.0475535206398 0)
(10.0433286802 0.05496183171 0)
(10.0594025551 0.056386767886 0)
(10.0669682955 0.0602781784278 0)
(10.0723363623 0.0640045815604 0)
(10.0767204325 0.0667312742267 0)
(10.0795749497 0.0690064827963 0)
(10.0806860264 0.0713013249728 0)
(10.0801668747 0.0737813774497 0)
(10.0781135878 0.076493636716 0)
(10.0744843667 0.079506138078 0)
(10.0691299242 0.0829538485638 0)
(10.0618441378 0.0870475607047 0)
(10.0523886068 0.0920941832038 0)
(10.0405089118 0.0985565294316 0)
(10.0259821375 0.107163209022 0)
(10.0091129174 0.119069132285 0)
(9.98838275351 0.134894109711 0)
(10.0116628806 0.0394555785273 0)
(10.0338195077 0.0508568317037 0)
(10.0491275512 0.0536174080833 0)
(10.0570357362 0.0571863453045 0)
(10.0625282902 0.0607703687112 0)
(10.0671315827 0.0636559628423 0)
(10.0704993259 0.0662269479044 0)
(10.0723867543 0.0688958340761 0)
(10.0728578568 0.0718263676099 0)
(10.0720079293 0.0750756567995 0)
(10.06982823 0.0787248716062 0)
(10.066218257 0.0829254854784 0)
(10.061035454 0.0879078376768 0)
(10.054133889 0.0939965215823 0)
(10.0454041373 0.101651827644 0)
(10.0348461644 0.111527801518 0)
(10.0228780432 0.124513176904 0)
(10.0091272675 0.141142695784 0)
(10.0084871238 0.032989319149 0)
(10.0262603144 0.0464917653877 0)
(10.04033543 0.0509274203383 0)
(10.0483343607 0.0550330418775 0)
(10.0537962441 0.0592255204468 0)
(10.0582994103 0.062863554977 0)
(10.0616802676 0.0661370423683 0)
(10.0636938821 0.0694134092313 0)
(10.0643644505 0.0729015577299 0)
(10.0637838638 0.0767126776188 0)
(10.0619719858 0.0809667741393 0)
(10.0588723252 0.0858402967553 0)
(10.0543979579 0.0915786116881 0)
(10.0484778945 0.0985079424635 0)
(10.0411063942 0.10705908101 0)
(10.0324143522 0.11778750884 0)
(10.0228615669 0.131355057085 0)
(10.0125524983 0.148194811493 0)
(10.0061634023 0.0278439089154 0)
(10.0203320687 0.0422310868941 0)
(10.0329622593 0.0481742372547 0)
(10.0408576162 0.0528129685213 0)
(10.0462553661 0.0573378070919 0)
(10.0506175913 0.0613509905279 0)
(10.053946045 0.0649739233409 0)
(10.0560273088 0.068566537689 0)
(10.0568544548 0.0723898330166 0)
(10.0565077192 0.0766025314055 0)
(10.0550251606 0.0813480007161 0)
(10.0523863157 0.0868074780275 0)
(10.0485521388 0.0932191071112 0)
(10.04351322 0.100886998412 0)
(10.0373394637 0.110189517956 0)
(10.0302387481 0.121573621643 0)
(10.0226737991 0.135510164198 0)
(10.014893742 0.152281622065 0)
(10.0044823504 0.0237436701998 0)
(10.0157370262 0.0382097542487 0)
(10.0268539202 0.0453417453293 0)
(10.0344780374 0.0505398231499 0)
(10.0398013578 0.0554020988352 0)
(10.0440566859 0.0598285307675 0)
(10.0473631135 0.063919169421 0)
(10.0495514521 0.0679966366792 0)
(10.0505909341 0.0723311059307 0)
(10.0505455224 0.0770996240552 0)
(10.0494654435 0.0824523524877 0)
(10.0473626715 0.0885654347065 0)
(10.0442423074 0.0956618685131 0)
(10.0401471967 0.104015571408 0)
(10.0352020725 0.113946708127 0)
(10.0296566044 0.125800432241 0)
(10.0239524039 0.139895605597 0)
(10.0183997572 0.156378627436 0)
(10.0032714775 0.020460488496 0)
(10.0122059891 0.0345100381363 0)
(10.0218502249 0.0424849630425 0)
(10.029071918 0.0482273740838 0)
(10.0342972399 0.0534224941561 0)
(10.038472813 0.0582241125126 0)
(10.0417787484 0.0627397736725 0)
(10.0440941337 0.0672488106983 0)
(10.045376661 0.0720165455161 0)
(10.0456766371 0.0772351476767 0)
(10.0450542624 0.0830656885878 0)
(10.0435508298 0.0896831952964 0)
(10.0412103621 0.0972955700992 0)
(10.0381170244 0.106143285009 0)
(10.0344307669 0.116486927971 0)
(10.0304154457 0.128579878143 0)
(10.0264701493 0.142621665295 0)
(10.0229096279 0.158654309996 0)
(10.0024021165 0.0178103404063 0)
(10.0095150496 0.0311615563746 0)
(10.0178006303 0.0396482497081 0)
(10.0245338553 0.0458667500623 0)
(10.0296322102 0.0513778159284 0)
(10.033752271 0.0565170532342 0)
(10.0370860161 0.0614244451044 0)
(10.0395571442 0.0663464719289 0)
(10.0411229309 0.0715370621234 0)
(10.0418236871 0.077196125901 0)
(10.0417261848 0.0834900730829 0)
(10.0408946547 0.0905863218425 0)
(10.0394032303 0.098669402343 0)
(10.0373644938 0.107938584206 0)
(10.034955812 0.118592801657 0)
(10.0324355805 0.13080393957 0)
(10.0301511887 0.144680026892 0)
(10.0284275184 0.160192975752 0)
(10.0017774155 0.0156507983412 0)
(10.0074780567 0.0281727095705 0)
(10.0145623152 0.0368887074082 0)
(10.0207696789 0.043476067429 0)
(10.0257179557 0.0492657874951 0)
(10.0298056196 0.0546975891586 0)
(10.0331999253 0.0599505124773 0)
(10.0358589569 0.0652465291539 0)
(10.0377465863 0.0708208597295 0)
(10.0388965715 0.0768703170298 0)
(10.0393788571 0.0835583731719 0)
(10.0392735269 0.0910389738067 0)
(10.0386755469 0.0994693509297 0)
(10.0377141611 0.109007087789 0)
(10.0365703138 0.119795589096 0)
(10.0354841209 0.13194144676 0)
(10.0347463922 0.145488101575 0)
(10.0346846511 0.160367110426 0)
(10.0013631353 0.0139781622049 0)
(10.0060730221 0.0256925764177 0)
(10.0122138258 0.0344280362945 0)
(10.0179416218 0.0412547513928 0)
(10.0227417656 0.0472603538009 0)
(10.0268216968 0.0529211111687 0)
(10.0303052296 0.0584472122094 0)
(10.0331699101 0.0640443555357 0)
(10.0353883828 0.0699276942197 0)
(10.03699106 0.0762844361185 0)
(10.038048134 0.083270111869 0)
(10.0386477058 0.0910235062153 0)
(10.038895318 0.0996760950843 0)
(10.0389257162 0.109349218172 0)
(10.0389134033 0.120141843307 0)
(10.0390750716 0.132112781752 0)
(10.0396529448 0.14526314478 0)
(10.0409848799 0.159502589081 0)
(10.0010557696 0.0125802834818 0)
(10.0049917241 0.0234777261216 0)
(10.0103348102 0.0320619133821 0)
(10.015611801 0.0390102990544 0)
(10.0202621627 0.0451747929807 0)
(10.0243478985 0.0510160841817 0)
(10.0279431766 0.056762284679 0)
(10.0310353732 0.0626074023124 0)
(10.0336061885 0.0687459805221 0)
(10.0356846797 0.0753502538086 0)
(10.0373397833 0.0825630722029 0)
(10.0386629949 0.0905058348783 0)
(10.0397642003 0.0992847740775 0)
(10.0407772965 0.108988524369 0)
(10.0418649639 0.119678742807 0)
(10.0432177749 0.13137717782 0)
(10.045030364 0.144054756786 0)
(10.0476540004 0.157606556702 0)
(10.0008028566 0.0112025690117 0)
(10.0040808741 0.0211859126633 0)
(10.0087014096 0.0294587622271 0)
(10.0135378133 0.0364184743279 0)
(10.0180435775 0.042686039337 0)
(10.0221699808 0.0486697031243 0)
(10.0259369922 0.0545999638176 0)
(10.029332561 0.0606577102352 0)
(10.0323455342 0.0670137104334 0)
(10.0350036026 0.0738190155176 0)
(10.0373716751 0.0811975465013 0)
(10.0395388743 0.0892490069243 0)
(10.0416120931 0.0980520483185 0)
(10.0437162772 0.107662844638 0)
(10.0459946305 0.118108734431 0)
(10.0486058355 0.129380703096 0)
(10.0516953801 0.141428073057 0)
(10.0556329307 0.154142647042 0)
(10.0006075932 0.00984296436817 0)
(10.0033674209 0.0188267379397 0)
(10.0073867055 0.0266115759961 0)
(10.011836694 0.0334205250655 0)
(10.0162286918 0.0396782127411 0)
(10.0204452787 0.0457165800237 0)
(10.0244568406 0.051748615309 0)
(10.0282436924 0.0579362009161 0)
(10.0317977736 0.0644229069967 0)
(10.0351439218 0.0713328003168 0)
(10.0383396756 0.0787650941654 0)
(10.0414654341 0.0867938979023 0)
(10.0446170314 0.0954696658127 0)
(10.0479024886 0.104818420195 0)
(10.0514390827 0.114838886664 0)
(10.0553501869 0.125499166775 0)
(10.0597328979 0.136735841041 0)
(10.0649799383 0.148443745384 0)
(10.0004716719 0.00847165533069 0)
(10.0028684721 0.0163576478034 0)
(10.0064535244 0.0234610889324 0)
(10.0106299115 0.0299149863791 0)
(10.0149853735 0.0359945384081 0)
(10.0193718116 0.0419457520179 0)
(10.023721758 0.0479449794096 0)
(10.0280028745 0.0541261489532 0)
(10.0322045651 0.0606015008259 0)
(10.036345676 0.0674636906091 0)
(10.0404721551 0.0747828838084 0)
(10.0446493723 0.0826055266496 0)
(10.0489546488 0.0909550798085 0)
(10.0534723824 0.09983207699 0)
(10.0582896794 0.109213871831 0)
(10.0634938108 0.119054309955 0)
(10.0691368055 0.12928545727 0)
(10.0756383691 0.139810892059 0)
(10.0003950605 0.00702018378847 0)
(10.0025940004 0.0136653694789 0)
(10.0059521087 0.0198613997918 0)
(10.0100291908 0.0257059423696 0)
(10.0144819008 0.0313694628964 0)
(10.0191565872 0.0370150386066 0)
(10.0239621945 0.0427693264355 0)
(10.028852588 0.048729511659 0)
(10.0338093113 0.0549725847218 0)
(10.0388405744 0.0615575007665 0)
(10.043976449 0.0685237844468 0)
(10.0492619889 0.0758910860225 0)
(10.0547505703 0.0836595072023 0)
(10.0604988421 0.091810705134 0)
(10.0665623184 0.100308812913 0)
(10.0729941383 0.10910205568 0)
(10.0798068937 0.11812527045 0)
(10.0874484809 0.127295692078 0)
(10.0003770428 0.00536453576136 0)
(10.0025531787 0.0105338925941 0)
(10.0059280916 0.0155364460455 0)
(10.0101393066 0.0204607967017 0)
(10.0148820194 0.0254032479114 0)
(10.0200049907 0.0304515453105 0)
(10.0254048948 0.0356765342758 0)
(10.0310235477 0.0411322793458 0)
(10.0368309552 0.0468577219625 0)
(10.0428208696 0.0528773848461 0)
(10.0490045372 0.0592012139172 0)
(10.0554043133 0.0658248127278 0)
(10.0620479689 0.0727300015593 0)
(10.0689643604 0.0798860381538 0)
(10.0761798626 0.0872509784729 0)
(10.0837186185 0.0947736683816 0)
(10.0915620434 0.102396079643 0)
(10.1001865805 0.110050455305 0)
(10.0004328741 0.00326619174544 0)
(10.0028011506 0.00653018623492 0)
(10.0065027901 0.00992071127084 0)
(10.0111594207 0.0135175860716 0)
(10.016455911 0.017343903026 0)
(10.0222381522 0.0214102413146 0)
(10.0283984478 0.0257283317645 0)
(10.0348698597 0.0303070217097 0)
(10.0416094896 0.0351470551711 0)
(10.0485950513 0.0402406016826 0)
(10.055819043 0.045571691006 0)
(10.0632825482 0.0511171746329 0)
(10.0709900777 0.0568466112819 0)
(10.0789460566 0.0627232326503 0)
(10.0871523652 0.0687045769349 0)
(10.095609872 0.0747443740535 0)
(10.1042758877 0.0807939430984 0)
(10.1136509187 0.0868006062367 0)
(10.0005757782 0.000999474254952 0)
(10.0033608978 0.0022165106669 0)
(10.0076932689 0.00389486126649 0)
(10.0130510877 0.00608387486598 0)
(10.0190541574 0.00870884293423 0)
(10.0255489285 0.0116973375059 0)
(10.0324413529 0.0150085927713 0)
(10.0396657883 0.018614207478 0)
(10.0471716734 0.0224847096442 0)
(10.0549270575 0.0265878782429 0)
(10.0629147728 0.030891235838 0)
(10.0711249536 0.0353615565738 0)
(10.0795494389 0.0399644439848 0)
(10.0881788988 0.0446630438678 0)
(10.0970017836 0.049419080136 0)
(10.1060069779 0.0541932464522 0)
(10.1151406826 0.0589473189111 0)
(10.124909962 0.0636421975267 0)
(10.0007636507 -0.00120225659442 0)
(10.0041005586 -0.00189103589062 0)
(10.0092136315 -0.00168652968176 0)
(10.0153427244 -0.000640340751194 0)
(10.0220258089 0.00101993998408 0)
(10.0291392457 0.00313623746564 0)
(10.0366250134 0.0056305876322 0)
(10.0444274094 0.00844756386161 0)
(10.0524932227 0.0115332869047 0)
(10.0607890977 0.0148370482519 0)
(10.0692976862 0.018315485095 0)
(10.0780073272 0.0219304971357 0)
(10.0869050192 0.0256464157517 0)
(10.0959751783 0.0294274230073 0)
(10.1052000306 0.0332379878567 0)
(10.1145639971 0.0370429221782 0)
(10.124010094 0.0408088905562 0)
(10.1340628155 0.0445026399885 0)
(10.0010536584 -0.00360603295958 0)
(10.0052020659 -0.00621043305292 0)
(10.0113451718 -0.00728743908733 0)
(10.0183532777 -0.0071546579136 0)
(10.0257120402 -0.00627848419853 0)
(10.0333949501 -0.00489179106339 0)
(10.0414035257 -0.00308523189414 0)
(10.0496877241 -0.000929099668511 0)
(10.0581912083 0.00150281694377 0)
(10.0668845871 0.00414839847763 0)
(10.0757573609 0.00695980981834 0)
(10.0848011484 0.00989838171409 0)
(10.0940010036 0.0129289266985 0)
(10.1033371249 0.0160166820761 0)
(10.112787254 0.0191264193541 0)
(10.1223315612 0.0222248897913 0)
(10.1319088184 0.0252812073363 0)
(10.1420377217 0.0282679987718 0)
(10.001511956 -0.00636205554154 0)
(10.0068446864 -0.0108737493421 0)
(10.0142984126 -0.0129438061098 0)
(10.0222386684 -0.0134578354999 0)
(10.0302166233 -0.0131909591609 0)
(10.0384035775 -0.012399972096 0)
(10.0468725822 -0.0111663703592 0)
(10.0555710305 -0.00958497031302 0)
(10.0644424426 -0.0077542483304 0)
(10.0734703719 -0.00574470448261 0)
(10.0826548173 -0.00359831667732 0)
(10.0919886421 -0.00134344670805 0)
(10.1014537858 0.000992761970373 0)
(10.1110253818 0.00338179281579 0)
(10.1206778358 0.00579382505929 0)
(10.1303920346 0.00819731010923 0)
(10.1401106466 0.0105625836731 0)
(10.1503756356 0.0128607154686 0)
(10.0022474901 -0.00967037725743 0)
(10.0092995447 -0.0159618974052 0)
(10.0183492233 -0.0185828692167 0)
(10.0271874099 -0.0194525168511 0)
(10.0356777413 -0.0196227435997 0)
(10.0442870521 -0.0192554064313 0)
(10.0531306925 -0.0183926573345 0)
(10.0621304552 -0.017157163001 0)
(10.0712368641 -0.0156741921052 0)
(10.0804601137 -0.014023905476 0)
(10.0898204194 -0.0122508241231 0)
(10.0993182335 -0.0103851941137 0)
(10.1089338257 -0.00845409718487 0)
(10.1186378244 -0.00648482311517 0)
(10.1283987693 -0.00450426083404 0)
(10.1381882742 -0.00253850819537 0)
(10.1479397278 -0.000615619238344 0)
(10.1581725708 0.00123466761828 0)
(10.0034538967 -0.0138131955689 0)
(10.012954722 -0.0214989400025 0)
(10.0238153476 -0.0240949874091 0)
(10.0334068975 -0.0251110217457 0)
(10.0423043569 -0.0256927323619 0)
(10.0513229291 -0.0258001466387 0)
(10.0605514679 -0.0254409946732 0)
(10.0698610544 -0.0247531341764 0)
(10.0792120046 -0.0238498002289 0)
(10.0886414309 -0.0227851931763 0)
(10.0981848078 -0.021585436129 0)
(10.1078460574 -0.0202737466447 0)
(10.117604611 -0.0188768590129 0)
(10.1274300279 -0.0174224275702 0)
(10.1372898 -0.0159366284775 0)
(10.1471551567 -0.0144454099897 0)
(10.1569588833 -0.0129802762938 0)
(10.1672468936 -0.0115857487 0)
(10.0053593111 -0.019158384983 0)
(10.0182311859 -0.027373507003 0)
(10.0309342291 -0.0292601059118 0)
(10.0409629644 -0.0300750373781 0)
(10.050056888 -0.0305853090696 0)
(10.0593293837 -0.0305512388621 0)
(10.0687807931 -0.0300847673274 0)
(10.0782507259 -0.0294053736049 0)
(10.0877326857 -0.0286238699701 0)
(10.0972908514 -0.0277596859147 0)
(10.1069647056 -0.0268083513598 0)
(10.116751261 -0.0257749337799 0)
(10.1266234586 -0.0246758115449 0)
(10.1365478566 -0.0235310510054 0)
(10.1464895141 -0.022358118294 0)
(10.1564107412 -0.0211728516693 0)
(10.1662208722 -0.0200010977417 0)
(10.176396168 -0.0189002908548 0)
(10.0084694802 -0.0261833870126 0)
(10.0258244822 -0.0333987245556 0)
(10.0402209012 -0.0346374407453 0)
(10.0505279133 -0.0361941264907 0)
(10.0599023478 -0.0375354410721 0)
(10.0694912472 -0.0380788731799 0)
(10.0791286747 -0.0380551813904 0)
(10.0886665831 -0.0377810616685 0)
(10.0981695241 -0.0373915704149 0)
(10.1077412988 -0.0369034326222 0)
(10.1174264909 -0.0363079689307 0)
(10.1272149877 -0.0356090679418 0)
(10.1370743662 -0.0348238326544 0)
(10.1469712586 -0.0339716981539 0)
(10.1568740155 -0.0330649227445 0)
(10.1667436299 -0.0321058621858 0)
(10.1764712674 -0.0311008122261 0)
(10.1864861061 -0.0301077613252 0)
(10.0128276677 -0.0353955350546 0)
(10.0354192745 -0.0377066437548 0)
(10.0502463941 -0.0357901139853 0)
(10.0598617023 -0.0363452829334 0)
(10.0688740957 -0.0373237428817 0)
(10.0780843519 -0.037761337479 0)
(10.0870719471 -0.0378242302716 0)
(10.0957106575 -0.0377723376471 0)
(10.1041464347 -0.0376913374725 0)
(10.1125306702 -0.0375663988843 0)
(10.1209248795 -0.0373686727076 0)
(10.1293257814 -0.0370866860227 0)
(10.1377103258 -0.0367250349449 0)
(10.1460611162 -0.0362914825203 0)
(10.1543681004 -0.0357840905051 0)
(10.1626120214 -0.035176777946 0)
(10.1706756469 -0.0344082968622 0)
(10.1787299206 -0.0333748280654 0)
(10.0162492191 -0.0493262147107 0)
(10.0397662488 -0.0510169844821 0)
(10.045851053 -0.0486957244828 0)
(10.0439827698 -0.0486591079298 0)
(10.0405570158 -0.0488879204017 0)
(10.0362782394 -0.0486823054616 0)
(10.030785842 -0.04822190111 0)
(10.024206713 -0.0477135152932 0)
(10.0169409883 -0.0472234695841 0)
(10.0093354307 -0.0467430402198 0)
(10.001596864 -0.0462508710187 0)
(9.99383661473 -0.045736017255 0)
(9.98612823509 -0.0451973447185 0)
(9.9785409474 -0.0446350236207 0)
(9.9711509111 -0.0440400051718 0)
(9.96404326695 -0.0433724018866 0)
(9.95726755816 -0.0425187227864 0)
(9.95075651436 -0.0407980406124 0)
(9.85269371395 -0.0291724656335 0)
(9.72357876757 -0.0316219321601 0)
(9.57933215484 -0.0316112013833 0)
(9.43614609263 -0.0321442176432 0)
(9.30080901924 -0.0324911045436 0)
(9.17302463639 -0.0324755752413 0)
(9.05162647983 -0.0322340419844 0)
(8.93617089971 -0.0318894845673 0)
(8.82658659876 -0.0314974203777 0)
(8.72277968667 -0.0310754684118 0)
(8.62453325156 -0.030629704783 0)
(8.53155788376 -0.0301656295532 0)
(8.44355769285 -0.0296894609345 0)
(8.36026678015 -0.0292058763593 0)
(8.28146197109 -0.0287144503532 0)
(8.20696886943 -0.0281980462621 0)
(8.13689471161 -0.0275905707718 0)
(8.06956601067 -0.026245532562 0)
(0.0287405386315 -0.111232000685 2.00514481425e-19)
(0.0596083989597 -0.11026999984 0)
(0.0879620955452 -0.109035294932 0)
(0.0840297378692 -0.072351734502 0)
(0.0485958747359 0.0188122369637 0)
(-0.0755719754738 0.12162401888 -1.38507134901e-19)
(-0.186897473476 0.139822261219 0)
(-0.30716246586 0.147628527883 0)
(-0.434755769138 0.153603877693 4.70068436088e-20)
(-0.56874171704 0.158295719962 0)
(-0.708239260874 0.161880624697 -3.29161574674e-20)
(-0.852448223005 0.164528822097 0)
(-1.00065660793 0.166392129452 -2.61570416265e-20)
(-1.15223483068 0.167600057924 -2.40916983915e-20)
(-1.30663383343 0.16826241693 0)
(-1.46337587515 0.168472240761 2.14376366718e-20)
(-1.62205085818 0.168308678749 2.06068489387e-20)
(-1.78230776299 0.167838936937 2.00049121631e-20)
(-1.9438509078 0.167119983955 0)
(-2.10643186271 0.166199730388 0)
(-2.26984520115 0.165117989219 0)
(-2.43392110742 0.163907248646 0)
(-2.59852091905 0.162593417079 0)
(-2.76353008999 0.161196436973 0)
(-2.9288536467 0.159730814993 -1.92205166921e-20)
(-3.09440992085 0.158206279109 -1.93734277164e-20)
(-3.26012590218 0.156628266498 0)
(-3.42593197019 0.154998431202 1.97810125415e-20)
(-3.59175780293 0.153315139018 2.00255263956e-20)
(-3.7575278725 0.151573947656 2.0291857741e-20)
(-3.92315780417 0.14976802974 0)
(-4.08855088559 0.147888520385 0)
(-4.25359514761 0.145924914974 -2.11919056099e-20)
(-4.41816050769 0.143865330156 0)
(-4.58209641489 0.141696811863 0)
(-4.74522977308 0.139405514995 -2.21957750625e-20)
(-4.90736317738 0.136977039682 0)
(-5.06827346681 0.134396562213 0)
(-5.22771062056 0.131649180476 0)
(-5.38539690599 0.128720088866 0)
(-5.54102640598 0.125595094716 0)
(-5.69426524847 0.122261051481 4.86423841018e-20)
(-5.84475298547 0.118706659316 0)
(-5.99210515621 0.114923007143 0)
(-6.13591690587 0.110904236951 5.06968212e-20)
(-6.2757668951 0.106648028035 5.13457942998e-20)
(-6.4112218158 0.102156550832 0)
(-6.54184207934 0.0974373456991 0)
(-6.66718951569 0.092503961188 5.31282152977e-20)
(-6.78683666493 0.087375935673 0)
(-6.90037737536 0.0820783931273 -5.41387958663e-20)
(-7.00743769179 0.0766409471744 0)
(-7.10768600218 0.0710959110397 5.49721717281e-20)
(-7.20083988005 0.0654769364581 0)
(-7.28666838248 0.0598182875449 5.56031171733e-20)
(-7.36499013023 0.0541546672115 5.58358779379e-20)
(-7.43566944294 0.0485205039009 0)
(-7.49861322969 0.0429492130798 0)
(-7.55377329223 0.0374717691562 0)
(-7.60115345163 0.0321145107212 5.61613437031e-20)
(-7.64081705014 0.026895605412 0)
(-7.67288647958 0.0218202569078 0)
(-7.6975216358 0.0168735783065 0)
(-7.71488155593 0.0120291206246 0)
(-7.72509097989 0.00728956240615 0)
(-7.72827748662 0.00272874359681 0)
(-7.72473391529 -0.00158020665321 0)
(-7.71476899431 -0.00562348446142 -5.35647917609e-20)
(-7.69869729253 -0.0094177929731 0)
(-7.6768012444 -0.0129984514178 -5.22303748821e-20)
(-7.64931214442 -0.0164154056562 -5.1477918827e-20)
(-7.61639393986 -0.019730532228 0)
(-7.57812669704 -0.0230178412678 4.97983510398e-20)
(-7.53448656045 -0.026362266474 0)
(-7.48532042079 -0.0298602622205 -4.78604312803e-20)
(-7.43031268352 -0.0336179065349 0)
(-7.36894550804 -0.0377508045519 4.55939473586e-20)
(-7.30045720865 -0.0423791265605 -4.42972641474e-20)
(-7.22380565056 -0.0476233420786 0)
(-7.13764799739 -0.0535953208644 0)
(-7.04035102216 -0.0603892504559 0)
(-6.9300439359 -0.0680642331531 0)
(-6.80471257205 -0.0766310528531 -3.49572804037e-20)
(-6.66233499694 -0.0860386652075 3.22211353574e-20)
(-6.5010589372 -0.0961688573356 -5.81715025225e-20)
(-6.31940675318 -0.106827020533 -5.10157479981e-20)
(-6.11645344478 -0.117750880576 -4.28992129453e-20)
(-5.89194693696 -0.128627922235 0)
(-5.64637479195 -0.139128016863 0)
(-5.38099563141 -0.14892140975 0)
(-5.09779056203 -0.157699222692 3.89996273373e-22)
(-4.79934084951 -0.165197914909 0)
(-4.48867172675 -0.171199395819 0)
(-4.1690863979 -0.175526956438 4.61341337412e-20)
(-3.84403829876 -0.178035367995 0)
(-3.51696144706 -0.178616336459 -8.50429332274e-20)
(-3.19113647292 -0.177190235553 0)
(-2.86957648597 -0.173711001616 1.3383799818e-19)
(-2.55495188588 -0.168142979364 0)
(-2.24969081518 -0.160543036687 0)
(-1.95569965575 -0.15114216942 0)
(-1.67428776014 -0.140809355053 2.89403635112e-19)
(-1.40622871678 -0.130978818818 0)
(-1.15133681174 -0.123668682025 4.329816609e-19)
(-0.909430137338 -0.120713075762 5.41953067302e-19)
(-0.679181390385 -0.123580912138 0)
(-0.461217751136 -0.131705452991 0)
(-0.237781627347 -0.147200398942 0)
(-0.031700905014 -0.166176844141 2.1347133511e-18)
(0.231592469686 -0.163002447687 0)
(0.382417612725 -0.140037170383 0)
(0.52690498691 -0.117630851732 9.87047307166e-19)
(0.667554569086 -0.0986062962879 7.94955479856e-19)
(0.800596594092 -0.0829589649993 0)
(0.923976671243 -0.0700770008296 -5.98600456325e-19)
(1.03700369351 -0.0593604588995 -5.41392087144e-19)
(1.1396373413 -0.0503436143532 4.98220427732e-19)
(1.2321487177 -0.042662833449 0)
(1.31497451824 -0.0360527297082 0)
(1.3886309557 -0.0303057645148 0)
(1.45367561662 -0.0252695510783 -3.98780310778e-19)
(1.51066522371 -0.02082207869 0)
(1.56013711508 -0.0168752855572 -3.72336821804e-19)
(1.60259444884 -0.0133556447682 0)
(1.6385159491 -0.010213994351 0)
(1.66835166551 -0.0074057015168 0)
(1.69253497583 -0.00490145766216 3.42413500077e-19)
(1.71147385607 -0.00267325655104 3.38223660683e-19)
(1.72556460154 -0.000716224134349 0)
(1.73520084789 0.000961431406773 0)
(1.74083298945 0.00233191174229 0)
(1.74340955986 0.00340740798444 0)
(1.74323249407 0.00427121273887 0)
(1.7404730814 0.00499181538366 0)
(1.73531394753 0.00559408045819 6.56534462161e-19)
(1.72794838627 0.00609671373142 0)
(1.71856871515 0.00651249446112 0)
(1.70735426467 0.00685472626175 0)
(1.69447110311 0.00713167235766 -6.66355148762e-19)
(1.68007273626 0.00735242095761 -6.70797879147e-19)
(1.66430385081 0.00752355696015 6.75954824724e-19)
(1.6472959309 0.00765238917369 6.81798559405e-19)
(1.62916630485 0.0077445235886 0)
(1.61001744938 0.00780325296119 0)
(1.58993961556 0.00783067415073 0)
(1.5690142751 0.00782951550048 7.11688970125e-19)
(1.54731313325 0.0078019341755 0)
(1.52489960789 0.00775469792224 0)
(1.50183479904 0.00769502247292 -7.40842700195e-19)
(1.47817400274 0.00762669327993 0)
(1.45396179817 0.00755057590961 -7.63594027072e-19)
(1.42923468563 0.00746901894498 0)
(1.40402391008 0.00738534743906 -7.89179949117e-19)
(1.37835822199 0.0072996802369 0)
(1.35226497839 0.00720954396653 0)
(1.32576137799 0.00711187694771 0)
(1.2988532017 0.00701589242721 0)
(1.27155148994 0.0069327851299 0)
(1.243873829 0.00685687731542 0)
(1.21581799335 0.00677584942113 0)
(1.18735920911 0.00669744991312 0)
(1.15848533487 0.00664624359596 -9.48493454765e-19)
(1.12919329702 0.00663352421961 0)
(1.09946428073 0.00666188664703 0)
(1.06926788993 0.00673230639453 -1.02401793181e-18)
(1.03858272354 0.00683917016343 0)
(1.00740859409 0.00696296464117 0)
(0.975742746404 0.00709017706884 -1.11659353992e-18)
(0.943578928824 0.00724473090881 0)
(0.910941864143 0.00745275326934 0)
(0.877889256371 0.00770658034746 -1.23240558616e-18)
(0.844464966673 0.00798600172137 1.27770572766e-18)
(0.810660156886 0.00827896648659 -1.32706979854e-18)
(0.776455141747 0.00859223519942 0)
(0.741862084176 0.00890505932163 0)
(0.706909314001 0.0091645140138 -3.00780622308e-18)
(0.671692433026 0.00930468592376 0)
(0.63558741462 0.00938307870599 3.2961809689e-18)
(0.607525213684 0.00912264006198 3.45724595752e-18)
(0.475406987864 0.00825143893726 0)
(0.000765076584762 -0.123970518264 -6.18279366591e-19)
(-0.0401671946221 -0.0230561890557 0)
(-0.143515803467 0.121934372864 2.17838657693e-19)
(-0.2337584398 0.196859811201 -1.38409626185e-19)
(-0.320668029966 0.256215460448 -1.00834144708e-19)
(-0.415385187348 0.305924078674 4.00760158188e-20)
(-0.520821701775 0.338532258797 6.81027725844e-20)
(-0.636888044734 0.362950338195 0)
(-0.761830899409 0.382235142548 -2.57512440924e-20)
(-0.893809060024 0.397589440412 4.68749327429e-20)
(-1.03145184229 0.409750472655 6.40779012461e-20)
(-1.1737072498 0.419249488141 -3.99378572589e-20)
(-1.3197276826 0.426501718021 5.61864104161e-20)
(-1.46881070455 0.431848928239 1.76639610068e-20)
(-1.6203687066 0.435582351749 0)
(-1.77390779184 0.437954847408 -1.66046485302e-20)
(-1.92901545621 0.439188283854 -1.63112635332e-20)
(-2.08534890905 0.439477514149 -1.61365004694e-20)
(-2.24262740571 0.438993124429 3.27219931148e-20)
(-2.40062326374 0.437882953789 0)
(-2.55915532902 0.436273381314 3.28315280172e-20)
(-2.7180808506 0.43427023231 0)
(-2.8772893085 0.431959785671 -3.33851222576e-20)
(-3.0366950933 0.429409758734 0)
(-3.19623145765 0.426670451978 5.11291532151e-20)
(-3.35584388319 0.423775987137 -1.76276443802e-20)
(-3.51548467331 0.420745672738 -3.53448660207e-20)
(-3.67510735503 0.417585407661 -5.37105113606e-20)
(-3.83466194702 0.414289202701 -1.8085241267e-20)
(-3.99409038238 0.410840650364 -1.84309328199e-20)
(-4.15332265393 0.407214422096 0)
(-4.31227326682 0.403377595774 -3.87117366866e-20)
(-4.4708382138 0.399291047427 1.95371086569e-20)
(-4.62889225217 0.394910569657 0)
(-4.78628657506 0.390188048202 0)
(-4.94284674058 0.385072374488 2.07149686118e-20)
(-5.09837099768 0.379510537333 0)
(-5.25262895048 0.373448443614 0)
(-5.4053605245 0.366831977369 0)
(-5.55627510174 0.359607886752 0)
(-5.70505094557 0.351725233078 0)
(-5.85133534769 0.343136936615 4.70199397876e-20)
(-5.99474624136 0.333801977026 9.49208806961e-20)
(-6.13487541652 0.323687330304 0)
(-6.27129272647 0.31276994327 4.94046908898e-20)
(-6.40355010199 0.30103851325 -4.9411984072e-20)
(-6.53118596215 0.288496111851 0)
(-6.65373180089 0.275162858911 0)
(-6.77072148384 0.261077875679 -1.55375953568e-19)
(-6.88170215257 0.246299560095 -1.05137874965e-19)
(-6.98624646424 0.230904757253 5.27880121226e-20)
(-7.08396506496 0.214985780096 1.07491772375e-19)
(-7.17451704067 0.198645948063 5.46548430565e-20)
(-7.25761499411 0.181996006906 0)
(-7.33302550139 0.165151396815 -1.65116917048e-19)
(-7.40056761603 0.148229962661 -5.51624733796e-20)
(-7.46010768507 0.131348772356 0)
(-7.51155785807 0.114621575884 1.12188315752e-19)
(-7.55487945829 0.09815532133 -1.12564846811e-19)
(-7.59009265594 0.0820469606819 -5.6076975192e-20)
(-7.61729065049 0.0663756641614 0)
(-7.63663200686 0.0511889125228 0)
(-7.64831010139 0.036496278423 0)
(-7.65245022128 0.0223105836053 1.12504109981e-19)
(-7.64903546262 0.0087424015492 0)
(-7.63885311656 -0.00403652042427 -1.11039217361e-19)
(-7.62224289316 -0.0159594392058 0)
(-7.59955185293 -0.0270510551677 -5.46740549424e-20)
(-7.57108685893 -0.0373759394323 0)
(-7.53711645041 -0.0470329179265 -5.336861948e-20)
(-7.49786669976 -0.0561532235469 -5.26398907718e-20)
(-7.45351240672 -0.0648979356845 0)
(-7.4041632375 -0.073458664745 -5.0648503522e-20)
(-7.34984303738 -0.0820562822192 0)