/*--------------------------------*- C++ -*----------------------------------*\
| =========                 |                                                 |
| \\      /  F ield         | OpenFOAM: The Open Source CFD Toolbox           |
|  \\    /   O peration     | Version:  v1806                                 |
|   \\  /    A nd           | Web:      www.OpenFOAM.com                      |
|    \\/     M anipulation  |                                                 |
\*---------------------------------------------------------------------------*/
FoamFile
{
    version     2.0;
    format      ascii;
    class       volVectorField;
    location    "14";
    object      Ua;
}
// * * * * * * * * * * * * * * * * * * * * * * * * * * * * * * * * * * * * * //

dimensions      [0 1 -1 0 0 0 0];


internalField   nonuniform List<vector> 
12225
(
(0.138226405164 45.0765555952 0)
(0.895591350578 11.5668947272 0)
(0.652996227023 11.3542891481 0)
(0.770847127957 11.3850098951 0)
(0.740788435823 11.3211978514 0)
(0.785896681488 11.3245783596 0)
(0.818246582751 11.2818538149 0)
(0.874957936234 11.1857448636 0)
(0.941380845778 10.9862282369 0)
(1.01545103105 10.6625080497 0)
(1.0851095426 10.2197993559 0)
(1.13195320686 9.69233707476 0)
(1.14203103917 9.15385721686 0)
(1.13504711643 8.72276820401 0)
(1.21193447299 8.4580226131 0)
(1.59057148949 8.15760633636 0)
(2.41404203545 7.0086999495 0)
(2.99530247212 3.60039153506 0)
(2.21920623679 -37.8360200075 0)
(0.889116254775 -6.98320915757 0)
(1.08056137245 -7.19058734568 0)
(1.05611354721 -7.07131199856 0)
(1.12093532133 -6.96503973141 0)
(1.17422073498 -6.84926090356 0)
(1.24443219599 -6.6887387521 0)
(1.32064890248 -6.50441350209 0)
(1.40201286462 -6.29290974266 0)
(1.48107370736 -6.06974636773 0)
(1.55146613469 -5.84338950644 0)
(1.60406949354 -5.61805888205 0)
(1.63883543845 -5.38063117345 0)
(1.68259559217 -5.10504309099 0)
(1.81027354737 -4.73531194514 0)
(2.13246559983 -4.20616554006 0)
(2.6126091367 -3.53488031561 0)
(2.66961707601 -2.93913180748 0)
(-1.37301623025 29.8067819398 0)
(1.35426039162 3.89838657573 0)
(0.73210671816 3.41318716717 0)
(0.920299608666 3.4393049871 0)
(0.868721829982 3.28157440129 0)
(0.908689126285 3.18117860131 0)
(0.93273905449 3.049252259 0)
(0.971459703197 2.91208523241 0)
(1.00974067222 2.75417469787 0)
(1.04398270368 2.57060191296 0)
(1.06755505058 2.35510816031 0)
(1.07531831209 2.10235087104 0)
(1.0713561219 1.8130035518 0)
(1.08540082446 1.49330468507 0)
(1.18673293431 1.14829501326 0)
(1.45287754712 0.745865191064 0)
(1.81175405517 0.150406210046 0)
(1.86622244472 -0.770750963081 0)
(2.48954618957 -21.2670276421 0)
(0.93020504619 -2.59059947054 0)
(0.966965936403 -1.83185119213 0)
(0.978470948778 -1.97597298955 0)
(0.999322548693 -1.82257879579 0)
(1.0378065329 -1.73222360917 0)
(1.07849817111 -1.60601218586 0)
(1.12593670926 -1.47714754099 0)
(1.17153302851 -1.33941724281 0)
(1.20981521769 -1.19480123409 0)
(1.23314901045 -1.04068146163 0)
(1.23620917809 -0.875969805642 0)
(1.22361496348 -0.696521452095 0)
(1.22146932505 -0.498944734661 0)
(1.28117969448 -0.299061884292 0)
(1.43970879154 -0.175240321525 0)
(1.60993434767 -0.295251213336 0)
(1.55777677512 -0.746363531668 0)
(-0.185704325401 11.8673359269 0)
(0.943976444349 1.21019997848 0)
(0.865784451077 0.922433012216 0)
(0.912220239969 0.865433325874 0)
(0.914992258012 0.766472409126 0)
(0.945647704545 0.664217055936 0)
(0.978315767465 0.552679764015 0)
(1.01932188922 0.427473959258 0)
(1.06248498933 0.291996051895 0)
(1.10322124263 0.149546669456 0)
(1.13560472452 0.00928146636885 0)
(1.15587854878 -0.116621135677 0)
(1.16940267008 -0.211276775721 0)
(1.19716981242 -0.259758721223 0)
(1.27083385692 -0.2679471021 0)
(1.39322348941 -0.295465044534 0)
(1.47828006639 -0.449048225667 0)
(1.39729450194 -0.738592955118 0)
(1.05878839601 -4.18258991227 0)
(1.02288482452 -0.40916808967 0)
(0.919607327777 -0.315375903614 0)
(0.969585025918 -0.298571260603 0)
(0.968461704693 -0.242316730242 0)
(0.993463880539 -0.19562373351 0)
(1.01693400696 -0.152769727638 0)
(1.04654433628 -0.123296780053 0)
(1.07639064617 -0.110446214809 0)
(1.1034684297 -0.116645266648 0)
(1.12399183394 -0.139822244036 0)
(1.13714476156 -0.173627003272 0)
(1.15011748286 -0.207045464797 0)
(1.18025369245 -0.231172135816 0)
(1.24482968061 -0.254547681698 0)
(1.32946093761 -0.318944784726 0)
(1.36536156044 -0.472441677481 0)
(1.28749799049 -0.676920312917 0)
(0.732323757508 1.32980567779 0)
(0.959434865604 0.00933609296842 0)
(0.933218081971 0.0531111805865 0)
(0.965491648235 -0.017353757591 0)
(0.973874635544 -0.0296505157337 0)
(0.996521709328 -0.0518380763173 0)
(1.01957860534 -0.0667457026074 0)
(1.04606486725 -0.0850638249083 0)
(1.07198439112 -0.107135718863 0)
(1.09453777928 -0.134794219122 0)
(1.11138194928 -0.166615156661 0)
(1.12324398056 -0.198846714541 0)
(1.13728695035 -0.226054015627 0)
(1.16598140522 -0.247556724144 0)
(1.21592245394 -0.277673602738 0)
(1.26750122143 -0.347787592499 0)
(1.2737448399 -0.475773174752 0)
(1.20584902129 -0.61910784074 0)
(0.851635411547 0.0448270095965 0)
(0.973509820702 -0.0381547970626 0)
(0.950304282011 -0.0171395597981 0)
(0.978892033034 -0.0479365357259 0)
(0.987473082668 -0.0518804170235 0)
(1.00635652637 -0.0633477056812 0)
(1.02566296225 -0.074460824336 0)
(1.04719978684 -0.0911481658665 0)
(1.0680287671 -0.11329251899 0)
(1.0858713814 -0.1409592845 0)
(1.0994577894 -0.171943419776 0)
(1.11027681297 -0.202659280647 0)
(1.1243123913 -0.229746698507 0)
(1.14905693612 -0.255414433554 0)
(1.18413499604 -0.292861532489 0)
(1.21106922968 -0.361365950097 0)
(1.20100463555 -0.462824174901 0)
(1.14336539764 -0.564488332215 0)
(0.898278100652 0.242321853452 0)
(0.971464280667 -0.0503545308439 0)
(0.970027301973 -0.0216490707638 0)
(0.990051677563 -0.0535823010815 0)
(1.00051641087 -0.0601352990662 0)
(1.0158996099 -0.0734033427562 0)
(1.03201393865 -0.0861670199251 0)
(1.04904599841 -0.10339388638 0)
(1.06522830529 -0.125007139067 0)
(1.07878649216 -0.150865425606 0)
(1.08932356491 -0.179124514028 0)
(1.09857063739 -0.207265294145 0)
(1.11091038637 -0.23390047741 0)
(1.12984975413 -0.262516464911 0)
(1.15155476366 -0.303077635769 0)
(1.1614321345 -0.365249171907 0)
(1.14317987389 -0.444265548732 0)
(1.09435391272 -0.518162500273 0)
(0.948543237918 0.234496050456 0)
(0.973820446357 -0.0501517484521 0)
(0.988258194865 -0.029098289319 0)
(1.00097896616 -0.0555795546292 0)
(1.01223919346 -0.0646961001931 0)
(1.02445736701 -0.0790939616948 0)
(1.03756646018 -0.0936575343369 0)
(1.05059652154 -0.111714725137 0)
(1.06270252306 -0.133186629941 0)
(1.07255984134 -0.157706312152 0)
(1.08031680871 -0.183839407299 0)
(1.08753695567 -0.210094106481 0)
(1.09697582906 -0.236427364676 0)
(1.10943535942 -0.266383579126 0)
(1.12010424533 -0.306443316549 0)
(1.11871313728 -0.360214723017 0)
(1.09678764779 -0.421488935225 0)
(1.05498919857 -0.476569167678 0)
(0.995246446074 0.24108533775 0)
(0.976232873484 -0.0536542564079 0)
(1.0049462152 -0.0395936686413 0)
(1.0104811082 -0.0612751533776 0)
(1.02203561967 -0.0722044826674 0)
(1.03132895168 -0.0871778682086 0)
(1.04169972981 -0.102901586237 0)
(1.0512342955 -0.121299543213 0)
(1.05982360717 -0.142314609497 0)
(1.06649879512 -0.165459573665 0)
(1.07167404276 -0.189737466922 0)
(1.07650806271 -0.214443932193 0)
(1.08240147631 -0.240187749515 0)
(1.08865044781 -0.269836800469 0)
(1.09083315445 -0.307000078516 0)
(1.08232391062 -0.352047845455 0)
(1.05910176844 -0.399550025958 0)
(1.02285503698 -0.441208392917 0)
(1.02653853698 0.248630833135 0)
(0.979448496669 -0.0512837335825 0)
(1.01528700263 -0.0465782111989 0)
(1.01577828022 -0.0635036370316 0)
(1.0268129616 -0.0759997107071 0)
(1.03380998369 -0.0912151780832 0)
(1.04190970283 -0.107741801965 0)
(1.04875109053 -0.126323752702 0)
(1.05464145256 -0.146968380343 0)
(1.05885042857 -0.169152668707 0)
(1.06182600263 -0.192241048509 0)
(1.06434089722 -0.215924930979 0)
(1.06691270655 -0.241062438852 0)
(1.06824670318 -0.269635197743 0)
(1.06482315267 -0.303275903968 0)
(1.05245016947 -0.341089979631 0)
(1.02934380666 -0.378818354493 0)
(0.99725990848 -0.411435423277 0)
(1.04839133103 0.256448570019 0)
(0.984107330768 -0.0485999036122 0)
(1.02229875733 -0.0503389375029 0)
(1.01921796379 -0.0641059358876 0)
(1.02928836378 -0.0774193387915 0)
(1.03439657359 -0.0925982730351 0)
(1.04050652569 -0.109426290876 0)
(1.04509666546 -0.127887632281 0)
(1.0487025812 -0.148029747914 0)
(1.05077188403 -0.16936890939 0)
(1.05174219913 -0.191451854063 0)
(1.05198283677 -0.214269214006 0)
(1.05142395358 -0.238488972295 0)
(1.04874295295 -0.265268748424 0)
(1.04128285904 -0.295102104775 0)
(1.02658194698 -0.32671017386 0)
(1.00406019246 -0.357091808644 0)
(0.975415271354 -0.383044381804 0)
(1.06561994352 0.247842248004 0)
(0.988491827952 -0.049993613135 0)
(1.0270959832 -0.0562011415882 0)
(1.02098162601 -0.0680301704739 0)
(1.0295525079 -0.081668385716 0)
(1.03275581494 -0.0965281104393 0)
(1.03678697824 -0.113172965052 0)
(1.03917842808 -0.131078637645 0)
(1.04053099498 -0.150324107235 0)
(1.04047873483 -0.170441890014 0)
(1.03927986595 -0.191226052686 0)
(1.03705478078 -0.212678856007 0)
(1.03348415446 -0.235222918025 0)
(1.02733365602 -0.259254563009 0)
(1.0168876301 -0.284673610691 0)
(1.00081405956 -0.31021289327 0)
(0.979321908268 -0.333995474157 0)
(0.953875210315 -0.354071013334 0)
(1.07981892178 0.248731803958 0)
(0.992856163205 -0.0474462047862 0)
(1.03077642149 -0.057775116659 0)
(1.02215015778 -0.068580395774 0)
(1.02869889141 -0.0823571278214 0)
(1.02987910341 -0.0968110432792 0)
(1.03162941363 -0.112977765405 0)
(1.03173925313 -0.130091863403 0)
(1.03077742053 -0.148240672477 0)
(1.02843743327 -0.167031601249 0)
(1.0249371908 -0.186313493763 0)
(1.02021635543 -0.206063218068 0)
(1.01385303548 -0.226394656452 0)
(1.00500383329 -0.247311173526 0)
(0.992585095275 -0.26832622224 0)
(0.976038803644 -0.288574385996 0)
(0.955867094829 -0.306779274464 0)
(0.933386679417 -0.322054045441 0)
(1.0866441944 0.227945102986 0)
(0.997491630093 -0.0459024707391 0)
(1.03254106103 -0.0593088740587 0)
(1.02257745115 -0.0698915727432 0)
(1.02677362082 -0.0836086916631 0)
(1.02600661807 -0.0975993287872 0)
(1.02544410109 -0.112967145369 0)
(1.02333053997 -0.128977290595 0)
(1.02004614413 -0.145671687725 0)
(1.01549657188 -0.162744219145 0)
(1.00971449614 -0.180008080198 0)
(1.00267110358 -0.197446357602 0)
(0.994035276698 -0.214919169955 0)
(0.983285747832 -0.23225450482 0)
(0.969810824974 -0.248982693639 0)
(0.953462437912 -0.264481744787 0)
(0.934832714881 -0.278064935537 0)
(0.91501810668 -0.289272116085 0)
(1.08442604331 0.211208977676 0)
(0.999977781499 -0.0436501343453 0)
(1.03107648319 -0.0586092651612 0)
(1.02052806058 -0.0690068420409 0)
(1.02235282896 -0.0823468125359 0)
(1.0197939637 -0.0956315535141 0)
(1.01705596053 -0.109899780604 0)
(1.01287998334 -0.124504088939 0)
(1.00751460291 -0.139444663735 0)
(1.00093838275 -0.154431604522 0)
(0.993198434399 -0.169339640321 0)
(0.984304539182 -0.183996704845 0)
(0.974062191246 -0.198297443046 0)
(0.962190877549 -0.211967464809 0)
(0.948396620618 -0.224725227058 0)
(0.932704240371 -0.236134524309 0)
(0.915704705067 -0.245913415512 0)
(0.89825929266 -0.253828328078 0)
(1.07523161139 0.181945967709 0)
(1.00184210497 -0.0429877967427 0)
(1.02605481569 -0.0578845794489 0)
(1.01597270447 -0.0676017974923 0)
(1.0153203545 -0.0799588311492 0)
(1.01126965139 -0.0919952750101 0)
(1.0065914586 -0.104649897181 0)
(1.0006769095 -0.117345948077 0)
(0.993572353501 -0.130068080359 0)
(0.985406855448 -0.142567800539 0)
(0.976209882235 -0.154699818285 0)
(0.966074016797 -0.166323812162 0)
(0.954904702751 -0.177313504841 0)
(0.942590775214 -0.187490738213 0)
(0.928993433867 -0.196659031645 0)
(0.914216140444 -0.204626307741 0)
(0.898786458524 -0.211261674138 0)
(0.883399264698 -0.216552335409 0)
(1.06421399797 0.157720193602 0)
(1.00279553772 -0.0377483531122 0)
(1.01957711165 -0.0493013717792 0)
(1.01018997845 -0.058731208638 0)
(1.00722736253 -0.069137455153 0)
(1.00199352763 -0.0794567874544 0)
(0.995757748375 -0.0899569940039 0)
(0.988524269187 -0.100334019397 0)
(0.980167691279 -0.110553051099 0)
(0.970928679534 -0.120373367526 0)
(0.96084204411 -0.129728509721 0)
(0.950066175609 -0.138453148473 0)
(0.938564557982 -0.146500427923 0)
(0.926316045839 -0.15372251567 0)
(0.913241905264 -0.16003780971 0)
(0.899465288661 -0.165352445984 0)
(0.885426096104 -0.169655042616 0)
(0.871700276117 -0.1729830959 0)
(1.05802417509 0.0837012939789 0)
(1.00051338701 -0.0589149899265 0)
(1.01659877826 -0.0658956621815 0)
(1.00631418573 -0.0738451261209 0)
(1.0026699468 -0.0812963249745 0)
(0.996467308518 -0.0890913739986 0)
(0.989432580708 -0.096712566711 0)
(0.981408850631 -0.104327336042 0)
(0.972412292173 -0.111647770513 0)
(0.962674421787 -0.118683283681 0)
(0.952250883377 -0.125215403145 0)
(0.941348736237 -0.131212637385 0)
(0.929928478072 -0.136553599554 0)
(0.918032574139 -0.141225324231 0)
(0.905574657895 -0.145124167801 0)
(0.892678639819 -0.148234980988 0)
(0.879753920086 -0.150546029036 0)
(0.867355786486 -0.152152278214 0)
(1.07217696694 0.28852449768 0)
(1.00477761068 0.0486735116157 0)
(1.01708432209 0.0433692248948 0)
(1.00597807317 0.0330998289009 0)
(1.00190111587 0.025231879888 0)
(0.995071319263 0.0164973547546 0)
(0.987514527417 0.00805544870115 0)
(0.978985468562 -0.000580117945826 0)
(0.969561831196 -0.00894059694865 0)
(0.959451995623 -0.0170564859797 0)
(0.948728455141 -0.0247168187916 0)
(0.937612598954 -0.0319523511376 0)
(0.926143843759 -0.0386297199554 0)
(0.914298921623 -0.044654966418 0)
(0.902031428623 -0.0499486035279 0)
(0.889407416807 -0.0544923649327 0)
(0.876743102325 -0.0583006250232 0)
(0.864328317126 -0.0613764332527 0)
(1.02838159067 -0.719504851337 0)
(0.989458872754 -0.349671377518 0)
(1.02576568877 -0.350183470451 0)
(1.01261174956 -0.345488601402 0)
(1.00969345526 -0.341260959811 0)
(1.0022530011 -0.337073810134 0)
(0.994516947258 -0.33285168717 0)
(0.985675838841 -0.328644063299 0)
(0.976226669436 -0.324335464529 0)
(0.96622850103 -0.319800523793 0)
(0.955914185901 -0.31492395112 0)
(0.945362450179 -0.309459607228 0)
(0.934585661447 -0.303590245368 0)
(0.923654970095 -0.297416446967 0)
(0.912542453221 -0.290826869985 0)
(0.901305145963 -0.28383343327 0)
(0.890410820283 -0.276361802961 0)
(0.880358296637 -0.268682122125 0)
(1.23483041022 2.61716882461 0)
(1.0392357925 0.793449911526 0)
(1.01523675145 0.788187142837 0)
(1.00720735308 0.753859044136 0)
(1.00234090519 0.73098979931 0)
(0.994793100887 0.704048852205 0)
(0.986456337008 0.677598274944 0)
(0.977077613102 0.650322471334 0)
(0.96692302915 0.622861836156 0)
(0.956121485045 0.595157537323 0)
(0.944648980788 0.567416722601 0)
(0.933019831546 0.539624102529 0)
(0.921242070575 0.512297368522 0)
(0.909298409369 0.485688135654 0)
(0.897032948803 0.459930465622 0)
(0.884541183173 0.435130262627 0)
(0.871822175531 0.411620122425 0)
(0.859827438616 0.389645528774 0)
(0.580379792423 -6.76544247342 0)
(0.926704904325 -1.69113419169 0)
(1.06512458094 -1.66112276383 0)
(1.04067826974 -1.59940680221 0)
(1.04251448148 -1.55299850383 0)
(1.03257164084 -1.50291941236 0)
(1.02457883152 -1.4553300675 0)
(1.01501951541 -1.40809452483 0)
(1.00530639298 -1.36121700948 0)
(0.995177035203 -1.31437122241 0)
(0.984972040008 -1.26742468509 0)
(0.974422746195 -1.22047881532 0)
(0.963633928837 -1.17418900751 0)
(0.952674373843 -1.12859425638 0)
(0.941529652844 -1.08393054464 0)
(0.930157034667 -1.04028782731 0)
(0.918977790209 -0.998252180057 0)
(0.905445143154 -0.958100052426 0)
(2.36636961409 14.7222284533 0)
(1.10879918299 2.42135538524 0)
(1.001608666 2.26328707128 0)
(1.00271143768 2.18934823543 0)
(0.992331896973 2.11217044899 0)
(0.985554942212 2.03138018734 0)
(0.975798699422 1.95505517182 0)
(0.966403281223 1.8796469281 0)
(0.956748928816 1.8069406392 0)
(0.94719519838 1.73661814352 0)
(0.93782310651 1.66903810538 0)
(0.928826099566 1.60489084457 0)
(0.920002865118 1.54403748737 0)
(0.911582402191 1.48557121278 0)
(0.903652309086 1.42971568892 0)
(0.896366941304 1.37701645756 0)
(0.889918204854 1.32849080294 0)
(0.889596900174 1.2852883568 0)
(-1.62987523615 -26.8935820416 0)
(0.999484823536 -3.19591264753 0)
(1.06815624508 -2.62045361521 0)
(1.08201190843 -2.61304408758 0)
(1.07590909593 -2.48161525701 0)
(1.06415128261 -2.38573197288 0)
(1.05560094309 -2.29266446305 0)
(1.04404773674 -2.20756918589 0)
(1.0321807084 -2.1299384134 0)
(1.01870310703 -2.05977730702 0)
(1.00364640978 -1.99729483716 0)
(0.987129551652 -1.94270078801 0)
(0.969082230446 -1.89511142785 0)
(0.949539290253 -1.85320282109 0)
(0.928992340815 -1.81595662539 0)
(0.908298657176 -1.78196768907 0)
(0.88870926983 -1.7498062309 0)
(0.86527751515 -1.71897820829 0)
(5.43392217014 41.0129639343 0)
(0.71547828799 4.08981467571 0)
(1.18017226782 3.04194245253 0)
(1.00395593141 3.17321488228 0)
(1.0411697447 2.98402307583 0)
(1.02334673804 2.88877337582 0)
(1.01706598704 2.78090857315 0)
(1.00912433784 2.6870781944 0)
(1.00201060118 2.60157663494 0)
(0.995433536493 2.52551785995 0)
(0.989316049913 2.4588810942 0)
(0.983491532464 2.40092481955 0)
(0.978290690323 2.35097040647 0)
(0.974130716319 2.30880617704 0)
(0.971377405922 2.27352183296 0)
(0.970155595807 2.24364988602 0)
(0.969577582987 2.21678586026 0)
(0.972389058059 2.18949831625 0)
(-3.56178580872 -52.0020440787 0)
(1.76459990473 -5.28320937052 0)
(0.833113998546 -4.57782930219 0)
(1.1236910551 -4.55691063741 0)
(1.02428625342 -4.32684830078 0)
(1.03363446539 -4.19229249669 0)
(1.01443016345 -4.04436336378 0)
(1.00160572326 -3.91666222259 0)
(0.987090196495 -3.79664349826 0)
(0.972780983914 -3.68616093158 0)
(0.958621187722 -3.58291300253 0)
(0.944515421562 -3.48556579122 0)
(0.930468438065 -3.39328276217 0)
(0.916725499608 -3.30605912336 0)
(0.903422271092 -3.22466661701 0)
(0.89041391887 -3.15089519048 0)
(0.87711895453 -3.08681187093 0)
(0.857013035139 -3.034910337 0)
(4.11943280409 59.0383291308 0)
(0.618478021571 7.19624823243 0)
(1.37692174457 7.59595648795 0)
(1.13359516164 7.08216539444 0)
(1.20326493194 6.85036645025 0)
(1.17256128443 6.57474536238 0)
(1.17317930168 6.32684026889 0)
(1.1638761356 6.08897447915 0)
(1.15749291134 5.86143722092 0)
(1.14994863763 5.64358484618 0)
(1.14244942678 5.43458772228 0)
(1.13470785723 5.23441354158 0)
(1.12654570776 5.04295796478 0)
(1.1174421147 4.85983044393 0)
(1.10670917725 4.68461799498 0)
(1.09383615244 4.51675142838 0)
(1.07763286115 4.35727706382 0)
(1.06392886305 4.21195861265 0)
(0.223086791489 -60.9555240932 0)
(0.850863951164 -10.0330253908 0)
(0.731512310219 -10.2840181241 0)
(0.760814325157 -9.64112065024 0)
(0.752434647134 -9.31373422759 0)
(0.750063648336 -8.91635118408 0)
(0.745543535877 -8.56595475471 0)
(0.740522566795 -8.22604032369 0)
(0.735188012455 -7.90435321865 0)
(0.730005102418 -7.59547378734 0)
(0.725105152824 -7.29731968705 0)
(0.720438482712 -7.00728411578 0)
(0.715722902525 -6.72351369508 0)
(0.710665966503 -6.44476658031 0)
(0.704752559196 -6.17154981152 0)
(0.698585236929 -5.90531573797 0)
(0.696353047528 -5.64275768193 0)
(0.699655589538 -5.36227306587 0)
(0.216810431875 0.0357753958678 -1.00385615595e-18)
(0.179239722179 0.0818006614323 0)
(0.165148672374 0.137210351345 0)
(0.165687505531 0.216661216362 0)
(0.146911805758 0.285605462142 0)
(0.110290075659 0.343694148438 6.86351593589e-19)
(0.0423964470132 0.360508239095 0)
(-0.0305370413652 0.360002170117 0)
(-0.0946066380958 0.353538770565 -2.26931989533e-19)
(-0.148111450095 0.345585614075 0)
(-0.190103304969 0.337807350104 1.51903968169e-19)
(-0.221467298819 0.330585538434 0)
(-0.243494769366 0.323955658735 1.12558651897e-19)
(-0.257867012543 0.317733178396 9.92672804612e-20)
(-0.266169739718 0.311936435222 0)
(-0.269747365322 0.306503850912 -7.99203511941e-20)
(-0.269828982193 0.301554839415 -7.27079290662e-20)
(-0.267284506208 0.297087922765 -6.66466040467e-20)
(-0.262936864816 0.293165824304 0)
(-0.257327719048 0.289726209163 0)
(-0.250989339162 0.286725707106 0)
(-0.244238960146 0.28402074625 0)
(-0.237394867474 0.281462163633 0)
(-0.23063328416 0.278865327387 0)
(-0.224098636824 0.276028172078 4.21429719369e-20)
(-0.217870185475 0.272745307462 4.00940090657e-20)
(-0.21198650554 0.268813025209 0)
(-0.206448272198 0.264044905941 -3.65892552143e-20)
(-0.20120326575 0.258247808407 -3.50789519934e-20)
(-0.196208858089 0.251253696495 -3.37011941634e-20)
(-0.191378455949 0.242898689231 0)
(-0.186646865272 0.23304307038 0)
(-0.181917230402 0.221553386136 3.01997744852e-20)
(-0.177124803589 0.208322358488 0)
(-0.172188071836 0.193262276088 0)
(-0.167046532993 0.176295283408 2.74026682356e-20)
(-0.161652057024 0.157376008442 0)
(-0.155956380073 0.136471033987 0)
(-0.1499291866 0.113566303243 0)
(-0.143539858617 0.0886562742556 0)
(-0.136782645223 0.0617528881404 0)
(-0.129639641125 0.0328707274574 -4.63758262321e-20)
(-0.122121177313 0.00202956615255 0)
(-0.11422095174 -0.0307502783108 0)
(-0.105961390519 -0.0654573065051 -4.31561436742e-20)
(-0.0973490191769 -0.102077157778 -4.22037509799e-20)
(-0.0884092760934 -0.140618208465 0)
(-0.0791664034193 -0.18107952292 0)
(-0.0696480915922 -0.223486655402 -3.96753716215e-20)
(-0.059881974587 -0.267861904528 0)
(-0.0498962295043 -0.314258317666 3.82472368138e-20)
(-0.0397234191784 -0.362718335701 0)
(-0.0293806339925 -0.413316353747 -3.70103553798e-20)
(-0.0189008283564 -0.466120902541 0)
(-0.00830000965398 -0.521225171905 -3.59514049215e-20)
(0.00240932019271 -0.578735909403 -3.54843915549e-20)
(0.0132179190674 -0.638787518369 0)
(0.0241160214338 -0.7015216966 0)
(0.0350968842105 -0.767104405404 0)
(0.0461527574856 -0.83569717744 -3.39940373367e-20)
(0.0572734152289 -0.907470981387 0)
(0.0684312688717 -0.982540172276 0)
(0.0795862064192 -1.06092728196 0)
(0.0905414815072 -1.14232405564 0)
(0.100972905569 -1.22563867037 0)
(0.111075078224 -1.30771001528 0)
(0.120956219362 -1.38717815774 0)
(0.130669744335 -1.4629975607 3.24361028878e-20)
(0.140280560629 -1.53430797266 0)
(0.149811292153 -1.60044005446 3.23047389193e-20)
(0.159293468503 -1.66088202359 3.22837016255e-20)
(0.168726450563 -1.71531929918 0)
(0.178115121094 -1.76355259034 -3.23297119672e-20)
(0.187453254653 -1.80556653064 0)
(0.196730344801 -1.84139356996 3.25000599242e-20)
(0.205942701616 -1.87120582334 0)
(0.215085304964 -1.89516426266 -3.28123913458e-20)
(0.224187889323 -1.91352531891 3.30311274839e-20)
(0.233293229126 -1.92650994557 0)
(0.242465253483 -1.93441411004 0)
(0.25176580879 -1.93749018207 0)
(0.2612857934 -1.93609472966 0)
(0.271117933136 -1.93058957852 3.5043664826e-20)
(0.281364662305 -1.92150030669 -3.571239133e-20)
(0.292139541547 -1.9094438698 7.30209968526e-20)
(0.303558758504 -1.89526443174 7.49222268456e-20)
(0.315803942715 -1.87996721732 7.71837713993e-20)
(0.329089478805 -1.8647577712 0)
(0.343710444114 -1.85097012362 0)
(0.360275377009 -1.84011063452 0)
(0.37934310371 -1.83357134383 9.11359667411e-20)
(0.401503991986 -1.83264046035 0)
(0.427319171822 -1.83877445061 0)
(0.457187889823 -1.85309057613 1.0905155742e-19)
(0.491428375582 -1.87603953157 0)
(0.530415182642 -1.90748696499 -1.26803856037e-19)
(0.574371002744 -1.94733050626 0)
(0.622561487365 -1.99510848146 1.52284546084e-19)
(0.672239512023 -2.04875447326 0)
(0.720431273535 -2.10299750212 0)
(0.766811935662 -2.149859437 0)
(0.815312120692 -2.18518717882 2.52091184424e-19)
(0.877166030266 -2.20706309954 0)
(0.96288558284 -2.23519129583 3.56176450615e-19)
(1.04303623979 -2.24554454599 4.37441354024e-19)
(1.13910983073 -2.11938596559 0)
(1.29467391992 -1.82103806557 0)
(1.34318582226 -1.36107274997 0)
(1.20319306526 -0.854828127309 1.62511362567e-18)
(0.992162026975 0.564891412552 0)
(0.737895395337 0.997121543261 0)
(0.633785258477 1.19431327733 7.35545452633e-19)
(0.566094477573 1.35108556935 5.90452986588e-19)
(0.518038262698 1.48286024264 0)
(0.481862008272 1.59592926603 -4.44104346503e-19)
(0.453537142934 1.6938294885 -4.02230734049e-19)
(0.430740699989 1.77864770679 3.71044703977e-19)
(0.412012994024 1.85169150011 0)
(0.396372341435 1.91385426644 0)
(0.383104297453 1.96581512723 0)
(0.371700378367 2.00819518078 -3.01414972333e-19)
(0.36181545151 2.0416456046 0)
(0.353197255947 2.06676311938 -2.83853228059e-19)
(0.345643054748 2.08412420351 0)
(0.338960369087 2.09438323099 0)
(0.333007119723 2.09793797375 0)
(0.32768446469 2.09544608573 2.65421250735e-19)
(0.322931005238 2.0877444253 2.63171228524e-19)
(0.318724633526 2.07576416015 0)
(0.315095485135 2.06045645178 0)
(0.312102010147 2.04269520295 0)
(0.309873393009 2.02299126375 0)
(0.308299535696 2.00427337637 0)
(0.307333350046 1.98698424408 0)
(0.306920584537 1.97089941808 5.2275997711e-19)
(0.307026579714 1.9556075043 0)
(0.307558994544 1.94062644398 0)
(0.308421700171 1.92548131988 0)
(0.309576622869 1.90975819513 -5.36654683616e-19)
(0.311018928357 1.89313817133 -5.41737981292e-19)
(0.312751272622 1.8754719522 5.47421908927e-19)
(0.314689376727 1.85667684169 5.53674624012e-19)
(0.316734041149 1.8368534356 0)
(0.318785475135 1.81613584038 0)
(0.320785786355 1.7948144998 0)
(0.322697742963 1.77318644412 5.84110377268e-19)
(0.3245092758 1.75169718886 0)
(0.326238571178 1.73083356656 0)
(0.327915215931 1.71123847699 -6.12696561625e-19)
(0.329555971798 1.69348053689 0)
(0.331181324691 1.67814296105 -6.34730717169e-19)
(0.332843879428 1.66567890856 0)
(0.334660888989 1.65656205303 -6.59398945022e-19)
(0.336770041565 1.65109496234 0)
(0.339286582573 1.64949014469 0)
(0.342285094643 1.65163614892 0)
(0.345874713293 1.65727466003 0)
(0.350165027531 1.66587340483 0)
(0.355217943555 1.67681826532 0)
(0.360985374041 1.68913518474 0)
(0.367385428644 1.70154514373 0)
(0.37431597924 1.7121606029 -8.10672487983e-19)
(0.381737746806 1.71893545842 0)
(0.389547107198 1.71954860103 0)
(0.397455665613 1.71162784766 -8.78003791655e-19)
(0.404890317247 1.69253590265 0)
(0.411077124392 1.66005337118 0)
(0.415004566138 1.61240074583 -9.52917133002e-19)
(0.415754968994 1.54948586326 0)
(0.412511563506 1.47312374351 0)
(0.404726740071 1.38828263914 -1.03181967052e-18)
(0.392608011985 1.30148138126 1.05847862309e-18)
(0.376133385427 1.22147460906 -1.08553146079e-18)
(0.359439166363 1.15347285017 0)
(0.345463238459 1.10584068239 0)
(0.334593435766 1.07700141998 -2.34139561665e-18)
(0.324103105495 1.0612449002 0)
(0.311549393491 1.02958286591 2.4457897825e-18)
(0.28998832679 0.983571773387 2.48217453008e-18)
(0.322804372793 0.91643016318 0)
(0.182284779495 -0.144820342767 3.1229579354e-18)
(0.233143896296 0.0283964180178 0)
(0.358197654191 0.223814026718 -1.09364777231e-18)
(0.33635887657 0.286683494338 6.89501482256e-19)
(0.258326682808 0.276249320827 4.9896915299e-19)
(0.16328566497 0.224265575209 -1.98597623693e-19)
(0.0782567617658 0.15967278975 -3.32473711098e-19)
(0.0138885737715 0.0962868331045 0)
(-0.0292967554053 0.0388881448702 1.24316963332e-19)
(-0.0537253045276 -0.0104577899921 -2.17383788993e-19)
(-0.0633070321272 -0.0513527466599 -2.90979159601e-19)
(-0.062436944234 -0.0844982985915 1.73689348929e-19)
(-0.0548820906576 -0.110963103153 -2.36967606901e-19)
(-0.0436124594327 -0.132022904642 -7.2782610414e-20)
(-0.0307565563261 -0.14875036604 0)
(-0.0176792584549 -0.162149762034 6.1902869239e-20)
(-0.0052492765902 -0.172954161743 5.75516140191e-20)
(0.0061468537643 -0.181793315636 5.37590063686e-20)
(0.0163277203929 -0.189100703111 -9.89744179982e-20)
(0.0253748465901 -0.195217231275 0)
(0.0334070511763 -0.200367152613 -8.79811517547e-20)
(0.0406533031195 -0.204691020523 0)
(0.047331868211 -0.208272287835 7.92503536939e-20)
(0.0536883519683 -0.211124574617 0)
(0.0599267378943 -0.213241960173 -1.09183768627e-19)
(0.0662367923795 -0.214566751326 3.36444581234e-20)
(0.0727783544554 -0.215041054028 6.63505204415e-20)
(0.0796709420949 -0.214575034716 9.66462573179e-20)
(0.0870192820783 -0.213089638502 3.16801275362e-20)
(0.0948789007316 -0.210496851885 3.06105305119e-20)
(0.103299211139 -0.206717425774 0)
(0.112281313426 -0.201681027844 5.54540009101e-20)
(0.12182718028 -0.195320351335 -2.78415846154e-20)
(0.131908068497 -0.187590789111 0)
(0.142486527682 -0.178445137496 0)
(0.153508750699 -0.167862300836 -2.55744816961e-20)
(0.164919167641 -0.15581523231 0)
(0.176658840755 -0.142299018629 0)
(0.188663379682 -0.127302978342 0)
(0.200879519887 -0.110830306574 0)
(0.213245925568 -0.0928789262874 0)
(0.225716289366 -0.0734497549952 -4.01116453616e-20)
(0.238237239036 -0.0525420558817 -8.23290442699e-20)
(0.250771765169 -0.0301460808049 0)
(0.263276786559 -0.00625595687073 -3.73809019096e-20)
(0.275721401319 0.0191561159839 4.06142537532e-20)
(0.288072262096 0.0461080974111 0)
(0.300303822019 0.0746492222815 0)
(0.312390018622 0.104817887 1.11393365885e-19)
(0.324304295776 0.136686632957 7.16684467711e-20)
(0.336034394228 0.170317960816 -3.72929575605e-20)
(0.347566576766 0.205806936296 -6.94535225521e-20)
(0.358896254901 0.243241027151 -3.21995356025e-20)
(0.370016342297 0.282734686323 0)
(0.380924970767 0.324401260931 1.02192371238e-19)
(0.391614194847 0.368370083832 3.50564331543e-20)
(0.402079069765 0.414764703712 0)
(0.412305201363 0.463723675547 -6.47940375979e-20)
(0.422279078026 0.515379809441 6.42835857086e-20)
(0.43199139766 0.569877675451 3.39429689707e-20)
(0.441439081511 0.62736006864 0)
(0.450640473878 0.687979798099 0)
(0.45965753898 0.751902808924 0)
(0.468855774664 0.819184192115 -6.27370538986e-20)
(0.478291921263 0.887031783399 0)
(0.487435337351 0.952475900607 6.22286278599e-20)
(0.496042638405 1.01463389293 0)
(0.503956311406 1.07281915013 2.89711574978e-20)
(0.511052338458 1.12645431258 0)
(0.517224790061 1.17504395513 2.88366343298e-20)
(0.522400436836 1.21824769251 2.87949531792e-20)
(0.52653328551 1.25578717228 0)
(0.529605113826 1.28753813497 3.28816341637e-20)
(0.531622010832 1.3133908428 0)
(0.532598655816 1.33336181578 -3.31006735791e-20)
(0.532558965972 1.34744068949 0)
(0.531521720335 1.35571533504 3.34504252148e-20)
(0.52951040255 1.35823778201 -3.3681148937e-20)
(0.526526650564 1.35515447575 -6.31019369234e-20)