/*--------------------------------*- C++ -*----------------------------------*\
| =========                 |                                                 |
| \\      /  F ield         | OpenFOAM: The Open Source CFD Toolbox           |
|  \\    /   O peration     | Version:  v1806                                 |
|   \\  /    A nd           | Web:      www.OpenFOAM.com                      |
|    \\/     M anipulation  |                                                 |
\*---------------------------------------------------------------------------*/
FoamFile
{
    version     2.0;
    format      ascii;
    class       volScalarField;
    location    "20";
    object      p;
}
// * * * * * * * * * * * * * * * * * * * * * * * * * * * * * * * * * * * * * //

dimensions      [0 2 -2 0 0 0 0];


internalField   nonuniform List<scalar> 
12225
(
-4.00991644144
-4.76079446019
-5.00287688076
-5.06886788837
-5.12308373388
-5.17177690456
-5.20191742409
-5.21200246623
-5.20425148371
-5.17906411808
-5.13506690177
-5.07014749872
-4.98169534957
-4.86611502302
-4.71804326952
-4.52921176079
-4.28483760798
-3.96047663
-4.18363197961
-4.77138636691
-5.00819593778
-5.07795036118
-5.13051199438
-5.17754214069
-5.20698258465
-5.21679219036
-5.20893148324
-5.18380326772
-5.1400779568
-5.07567957335
-4.98805462114
-4.87374113803
-4.72768095324
-4.54244536241
-4.30667648958
-4.03047725573
-4.32623956353
-4.75821207195
-4.99530020559
-5.07773615568
-5.13206558403
-5.17910495835
-5.20941187481
-5.22035959588
-5.21361168316
-5.18973447125
-5.14762621974
-5.08541374924
-5.00080638839
-4.89082608565
-4.75141160508
-4.57740750508
-4.36334404274
-4.1234934914
-4.45074701671
-4.77049301314
-4.99919087362
-5.0909962586
-5.14521797014
-5.19036235354
-5.22022282867
-5.23152326542
-5.22544400481
-5.20267965444
-5.16238748665
-5.10294002268
-5.0223860576
-4.91838384307
-4.78811026705
-4.62877689886
-4.43930339839
-4.23281145496
-4.56151747763
-4.79757045924
-5.00518973704
-5.1010178871
-5.15502092076
-5.19843379377
-5.22811970829
-5.24034751585
-5.23571246137
-5.21496530841
-5.17753653837
-5.12209659845
-5.04710825844
-4.95095355557
-4.83207710169
-4.68973792978
-4.5257439318
-4.35166090235
-4.66073760272
-4.83491258706
-5.01689166089
-5.11422033337
-5.16932662307
-5.21183642114
-5.24158071955
-5.2549931416
-5.25219557844
-5.23395809767
-5.20000587855
-5.14937076894
-5.08099245237
-4.99400057702
-4.88800352145
-4.76386543403
-4.62514072856
-4.4822318077
-4.75044799696
-4.87941623078
-5.03488563825
-5.13025893368
-5.18594990888
-5.22734127733
-5.25675459281
-5.27124127448
-5.27052305415
-5.25528252213
-5.2254973607
-5.18057992557
-5.1199634994
-5.04347961389
-4.95170963498
-4.84665714836
-4.7327604132
-4.61923168579
-4.83244681013
-4.92865356214
-5.05905522441
-5.14967125585
-5.20545396197
-5.24615719707
-5.27560999148
-5.2916351994
-5.29365400689
-5.28220576726
-5.25749220258
-5.21932156475
-5.16761830655
-5.10283386009
-5.02629891106
-4.94073361247
-4.85086643364
-4.76467362891
-4.90825602619
-4.98086543412
-5.08895446862
-5.17291497636
-5.22810808505
-5.26839774052
-5.29810772572
-5.31585550533
-5.32094676192
-5.31380241355
-5.29482420668
-5.2641994929
-5.22230002252
-5.17007807178
-5.1093775253
-5.04327508323
-4.97638180224
-4.91538035075
-4.97915016476
-5.03483657311
-5.12393543009
-5.20027072702
-5.2541944188
-5.29429592784
-5.32460551359
-5.34442575904
-5.35310094237
-5.35096222838
-5.33855718846
-5.31638888493
-5.2851961583
-5.24629458076
-5.20182414659
-5.15494037872
-5.10990317892
-5.07216889097
-5.04616932443
-5.08974660269
-5.16324186181
-5.23180858292
-5.28395961521
-5.3240753815
-5.35538949008
-5.37768259027
-5.39042812241
-5.39390418616
-5.38875604122
-5.37573233071
-5.35585216453
-5.33066708669
-5.30243264697
-5.27418554844
-5.24970000181
-5.23328931258
-5.10488170795
-5.14058009647
-5.20263561842
-5.26447492573
-5.31475077549
-5.35505918592
-5.38769173206
-5.41266042394
-5.42959030843
-5.43874676674
-5.44082863848
-5.43673826723
-5.42766261005
-5.41525647609
-5.40174715371
-5.38994181138
-5.38313511934
-5.38475756118
-5.16119204754
-5.19109402676
-5.24401536212
-5.29986209966
-5.34827744241
-5.38894919486
-5.4232329667
-5.45121720754
-5.47266924618
-5.48786165886
-5.49751979441
-5.50263437243
-5.50448698363
-5.50474637614
-5.50552742458
-5.50934264015
-5.51899330856
-5.53707233028
-5.22332498348
-5.24854477342
-5.29361237836
-5.34383771312
-5.39042343761
-5.43180562988
-5.46843453868
-5.50034591653
-5.52742414023
-5.549959581
-5.56867211891
-5.58458485249
-5.5989868819
-5.61347483174
-5.62994785538
-5.65054152532
-5.67752335586
-5.7126834037
-5.29130290153
-5.31304480666
-5.35196606049
-5.39753653753
-5.44274217926
-5.48542967293
-5.52531305322
-5.56227778888
-5.59626874005
-5.62757861434
-5.65688613472
-5.68516062975
-5.71360605749
-5.74363943208
-5.77685686935
-5.81495241642
-5.85964779307
-5.91198336954
-5.36477900656
-5.38425990655
-5.41905729807
-5.46157122798
-5.50644043294
-5.55142126921
-5.59574096796
-5.63909396666
-5.6814140553
-5.72295596603
-5.76430054968
-5.8062795999
-5.84990901454
-5.89633471761
-5.94678105505
-6.00247772408
-6.06461922448
-6.13357595355
-5.44251292618
-5.46093214404
-5.49385596315
-5.53550335744
-5.58174326811
-5.63049364414
-5.68072835027
-5.73196850626
-5.78406821543
-5.83718455912
-5.89173757087
-5.94834482024
-6.00775064935
-6.07076725019
-6.1382192764
-6.21088245224
-6.28948755552
-6.37382917804
-5.52123447039
-5.5397793588
-5.57326620126
-5.61673989767
-5.66667927373
-5.72114995189
-5.77902045767
-5.83967650245
-5.90284609358
-5.96852908589
-6.03693372486
-6.10841267022
-6.18339978467
-6.26235521992
-6.34572134058
-6.43387645222
-6.52717259803
-6.62496230762
-5.59336148914
-5.61347449214
-5.65049320321
-5.69921152907
-5.75590602325
-5.81858812847
-5.88609117085
-5.95771410046
-6.03303825389
-6.11187473608
-6.19420275323
-6.28010893813
-6.36972727069
-6.46319558166
-6.56062512889
-6.66206847075
-6.76757841356
-6.8761636597
-5.63076947522
-5.65381723934
-5.69714497995
-5.75382843034
-5.81894283242
-5.89030189403
-5.9668986227
-6.0480720159
-6.13331464532
-6.222305323
-6.31489155902
-6.4110016549
-6.5105969781
-6.61362599075
-6.72002463577
-6.82967847471
-6.94250608394
-7.05737222998
-5.63813266183
-5.66491499258
-5.71604217345
-5.78155767907
-5.85475575327
-5.93353384368
-6.01737211004
-6.10577437758
-6.19819438846
-6.29427585792
-6.39383475751
-6.49674813029
-6.60288503025
-6.71210067795
-6.82423225296
-6.93909767665
-7.05655219713
-7.17541976254
-5.62397414473
-5.65647659946
-5.71842374267
-5.79445487668
-5.87578797203
-5.9612759443
-6.05133608154
-6.14563347921
-6.24357588811
-6.34484080524
-6.4493000077
-6.5568336777
-6.66727014558
-6.78041178815
-6.89604229875
-7.01392379192
-7.13385587373
-7.25459288585
-5.59173240595
-5.63317573619
-5.70999619381
-5.79789985886
-5.88679178098
-5.97813474915
-6.07364226485
-6.17298411588
-6.27550958301
-6.38101193765
-6.48945799913
-6.60073105375
-6.71463015491
-6.83092533037
-6.94938633654
-7.06975654436
-7.19184554642
-7.31443341752
-5.54349062213
-5.59933575414
-5.69615246576
-5.79634025309
-5.89138445212
-5.98744338743
-6.08732099526
-6.19035043445
-6.29592316383
-6.40411664599
-6.51505393757
-6.62862775593
-6.74460379746
-6.86273159241
-6.98275426943
-7.10437700084
-7.22732966133
-7.35029700494
-5.4802246235
-5.55940788939
-5.68173851983
-5.79297957323
-5.89248399863
-5.99291538268
-6.09716155408
-6.2037574345
-6.31221006733
-6.42293633931
-6.5361968431
-6.65189248091
-6.76977980315
-6.88961031232
-7.01112075926
-7.13398380491
-7.25788812664
-7.38151835692
-5.40166064492
-5.51846950747
-5.67049239286
-5.78881910789
-5.88979375699
-5.99282690575
-6.09967373389
-6.20814506015
-6.31809688662
-6.43024005701
-6.54486638483
-6.66184404765
-6.78093284917
-6.90190139631
-7.02447588924
-7.14825659708
-7.27274305647
-7.39625371769
-5.30695239194
-5.4828641133
-5.665625623
-5.78766601294
-5.89073826306
-5.99743907163
-6.10697747942
-6.2170250921
-6.32815539112
-6.44136418993
-6.55692719991
-6.67470256714
-6.79450371546
-6.91616771945
-7.03946436228
-7.16398688175
-7.28912134891
-7.41283953299
-5.19420229219
-5.45901209983
-5.66105382402
-5.77736230178
-5.88074824898
-5.99069990727
-6.10249072136
-6.21394654344
-6.32635051247
-6.4408212234
-6.55752612435
-6.67628482827
-6.79696162311
-6.91947226166
-7.04366452512
-7.16920700165
-7.29544685493
-7.419789087
-5.06223175131
-5.46664647055
-5.6798251836
-5.78463763329
-5.88578174866
-5.99636732924
-6.10811872281
-6.21920992629
-6.33145486265
-6.44598144158
-6.56282155233
-6.68173352515
-6.80259702595
-6.92537648077
-7.05000390063
-7.17635360244
-7.30424471559
-7.43214057891
-4.89139167791
-5.4486415713
-5.67458146498
-5.77626451029
-5.87908771923
-5.99188878907
-6.10488356262
-6.216700118
-6.32952871558
-6.44456488229
-6.56182300729
-6.68106595019
-6.80220419472
-6.92523887354
-7.05015011372
-7.17696015523
-7.3059155441
-7.44127879995
-2.63220644328
-2.63931347366
-2.64778605359
-2.65157712479
-2.65476199811
-2.66724540489
-2.6980299416
-2.74906464602
-2.82295782319
-2.92213273818
-3.04869686633
-3.20443011388
-3.39080106734
-3.6089680687
-3.85980726384
-4.14391500281
-4.46164280004
-4.81309454506
-5.19816692113
-5.61653745717
-6.06770616866
-6.55097348639
-7.06548239502
-7.61018436824
-8.18387949445
-8.78517316466
-9.41251208781
-10.0641349629
-10.7381081007
-11.432272217
-12.1442789534
-12.8715404248
-13.6112748574
-14.3604627458
-15.1159038186
-15.8741871258
-16.6317676899
-17.384950364
-18.1299853016
-18.8630678384
-19.5804473615
-20.2784347402
-20.9535135529
-21.6023444832
-22.2218675736
-22.8092916212
-23.3621762604
-23.8783958626
-24.356192352
-24.7941096522
-25.1910169182
-25.5460163562
-25.85844931
-26.1278025862
-26.3537269455
-26.5359663347
-26.6743949805
-26.7689393286
-26.8196010535
-26.8263822879
-26.7893845786
-26.7088947284
-26.5857271107
-26.4212776756
-26.2174242195
-25.9763897211
-25.7008431169
-25.3937081779
-25.058115351
-24.6972260706
-24.3142325709
-23.9121657581
-23.4938956301
-23.0619256648
-22.6184052861
-22.1649220994
-21.7025405996
-21.2316036968
-20.7517762231
-20.2618174384
-19.7595826612
-19.2416708631
-18.7032583708
-18.1375413995
-17.5355225907
-16.8855847692
-16.1736673728
-15.3834303532
-14.4972609242
-13.4975155142
-12.368439969
-11.0982613112
-9.68108978024
-8.11850381752
-6.42053828998
-4.60585146603
-2.70096902489
-0.738592494741
1.24478465808
3.21157008137
5.12573410185
6.95506951382
8.67278760741
10.2582651241
11.6969334755
12.9799863287
14.1034857356
15.0686491366
15.8808098606
16.5509440991
17.0919912493
17.5262969758
17.8618118798
18.1156641124
18.3015982231
18.4361118517
18.5307052594
18.5844813425
18.5911068946
18.5548010264
18.4844932387
18.3889945198
18.275753569
18.1508712883
18.0191456387
17.8843886646
17.7494705075
17.6166283706
17.4874611561
17.3631846175
17.2445743573
17.1321807583
17.0262553841
16.9269484373
16.8341971191
16.7478673953
16.6676975323
16.5934917332
16.5250137368
16.4619716472
16.4040048744
16.3507472339
16.3017924843
16.2567377197
16.2151926731
16.1767936397
16.1411947901
16.1080780449
16.0771448241
16.0481229992
16.0207613136
15.9948323159
15.9701242797
15.9464464256
15.9236224855
15.9014958545
15.8799236255
15.858777932
15.8379390543
15.8173056166
15.7967891561
15.7763119023
15.7558004235
15.7352020514
15.7144748979
15.6935913182
15.6725327711
15.6513034708
15.6299305772
15.6084673229
15.5869956693
15.5656497245
15.5446283681
15.5242188049
15.5048253503
15.4870480254
15.4717955624
15.460399044
15.4559574099
15.4536351256
-2.60587975409
-2.6143735345
-2.63098768818
-2.65229731788
-2.66474209377
-2.67419409954
-2.70087392293
-2.74975775401
-2.82298844724
-2.92256469301
-3.05034325726
-3.2079325987
-3.39666999746
-3.6176103548
-3.87154181194
-4.15898882042
-4.48023922926
-4.83534742843
-5.22416543951
-5.64634065905
-6.10134663526
-6.58847153316
-7.1068464749
-7.65542580872
-8.23300941551
-8.83821422747
-9.46949207276
-10.1250962859
-10.8030958853
-11.5013393847
-12.2174699782
-12.9488939827
-13.6928022255
-14.4461474657
-15.205679192
-15.9679369586
-16.7293029148
-17.4860141665
-18.234235347
-18.9700898808
-19.6897468321
-20.3894610441
-21.0656607839
-21.7149850956
-22.3343614786
-22.9210261945
-23.4725761175
-23.9869598033
-24.4624959749
-24.8978304836
-25.2919224082
-25.6439781173
-25.9534188411
-26.2198148894
-26.4428759171
-26.6224168653
-26.7583605755
-26.8506658811
-26.8992926241
-26.9041187962
-26.8649892995
-26.7818220222
-26.6552989718
-26.4869109018
-26.2783512139
-26.0320242577
-25.7510111131
-25.4384478073
-25.0976088484
-24.7318049981
-24.3443285493
-23.938331007
-23.5167560004
-23.0822074866
-22.6368916557
-22.1824965586
-21.7201472836
-21.2502963006
-20.7726970223
-20.2862793804
-19.7890518923
-19.27784366
-18.7480359837
-18.1930900278
-17.6041496093
-16.9696593366
-16.2753511923
-15.5044922039
-14.6387315108
-13.6594809199
-12.5499460528
-11.2973449283
-9.89493313667
-8.34369575421
-6.65334680751
-4.84242414079
-2.93739088979
-0.970884067723
1.02066985816
2.99966368568
4.92970532459
6.77760057811
8.51471822405
10.1180176359
11.5705994054
12.8625167046
13.9899745142
14.9563799433
15.769627381
16.445740422
16.9926414227
17.4302133934
17.770830123
18.0324711414
18.2345327551
18.3809860833
18.477890775
18.5304510786
18.5384366654
18.5061445719
18.4410037392
18.3508059982
18.2425396024
18.1220877201
17.9942410576
17.8628062123
17.7307433299
17.6003208698
17.4732350291
17.3507286948
17.23366329
17.122612405
17.0178979968
16.9196492519
16.8278361582
16.7423539528
16.6630410849
16.5896432233
16.5218229038
16.4592671655
16.4016737185
16.3487212235
16.3000292682
16.2552024856
16.2138582771
16.1756342467
16.1401900002
16.1072078109
16.0763939446
16.0474772834
16.0202095781
15.9943624129
15.9697267681
15.9461126902
15.9233463393
15.901270038
15.8797407544
15.8586316582
15.8378277048
15.817225419
15.7967336024
15.7762742597
15.7557788472
15.7351935334
15.7144753044
15.6935959964
15.6725389642
15.6513052583
15.629917463
15.6084295124
15.5869257088
15.5655332644
15.5444411729
15.52392544
15.5043787406
15.4863747423
15.4707705773
15.458759123
15.4532505287
15.4454359841
-2.55164864623
-2.56923209841
-2.59192181036
-2.62114871496
-2.65641936615
-2.6985583912
-2.75328782873
-2.82536134739
-2.91871461213
-3.0364060424
-3.18081947676
-3.35383274972
-3.55692275788
-3.79121877027
-4.05755131282
-4.35647443006
-4.68830185273
-5.05311702541
-5.45080568577
-5.88105644994
-6.3433899017
-6.83714964804
-7.36152631515
-7.91553889841
-8.4980528136
-9.10775200472
-9.74315080048
-10.4025604962
-11.0840971816
-11.785646002
-12.5048695698
-13.2391768504
-13.9857386378
-14.7414682227
-15.5030514423
-16.2669459422
-17.029431719
-17.7866333522
-18.5345940318
-19.2693216944
-19.9868797619
-20.6834425488
-21.3553852609
-21.9993353216
-22.6122501106
-23.1914467775
-23.7346444748
-24.2399571002
-24.7058958224
-25.1313168658
-25.5153872656
-25.8575055827
-26.1572540682
-26.4143386632
-26.6285637479
-26.7998075938
-26.9279717071
-27.0129243054
-27.0544162189
-27.0519158559
-27.004572722
-26.9123583132
-26.7765909335
-26.5984879632
-26.379941381
-26.1238476987
-25.8331591588
-25.5111090728
-25.1611208537
-24.786683272
-24.391250476
-23.9781293197
-23.5503905903
-23.1107649732
-22.6615693302
-22.204625898
-21.7411997672
-21.2719240833
-20.7967633583
-20.3149348686
-19.8247750362
-19.3234931598
-18.8068419158
-18.2686396711
-17.7002380738
-17.0900738735
-16.4235291039
-15.6831555301
-14.8494398988
-13.9022894266
-12.8232129099
-11.5977480378
-10.2176470816
-8.68265967902
-7.00165785979
-5.19268186186
-3.28207235976
-1.30278838973
0.70767844432
2.70998446351
4.66541308224
6.53815887426
8.29688705681
9.91650334085
11.3792313847
12.6766274174
13.8076840028
14.7799713508
15.5996914175
16.2809822888
16.8369282023
17.2861760879
17.6472065921
17.9278667952
18.1395871184
18.292698366
18.394553577
18.4501389027
18.4622554667
18.4356406386
18.3769544001
18.2932559641
18.1911385985
18.0762877729
17.953466897
17.8264823473
17.6983664179
17.5714267511
17.4474365369
17.327669141
17.2130520105
17.1041711017
17.0013966384
16.9048763699
16.814642642
16.7305906299
16.6525694703
16.5803480122
16.5136330743
16.4520842197
16.3953624279
16.3431568035
16.295125514
16.2508884641
16.2100718514
16.1723217636
16.1373027951
16.1047040875
16.0742358562
16.0456317673
16.018644956
15.9930518658
15.9686444827
15.9452354891
15.9226526783
15.9007421669
15.8793626481
15.8583871836
15.8377003096
15.817201372
15.7967995975
15.7764188683
15.7559904377
15.7354593163
15.7147813843
15.693923408
15.6728658334
15.6516117584
15.6301821077
15.6086185752
15.586994235
15.56542559
15.5440797383
15.5231971881
15.5031150813
15.4843054656
15.4674288973
15.4532683938
15.4433931236
15.4269983744
-2.53018897271
-2.55466399756
-2.59128358856
-2.63757614008
-2.69437181639
-2.76283423662
-2.84525902929
-2.94445056103
-3.06340222432
-3.20485074621
-3.37115838571
-3.56428719237
-3.78582186379
-4.03699481725
-4.31872906383
-4.6316619849
-4.97618564182
-5.35246076333
-5.76045184854
-6.1999303833
-6.67050434846
-7.17160950591
-7.7025324083
-8.26239057729
-8.85014753944
-9.46458288974
-10.1043004654
-10.7676910092
-11.4529358218
-12.1579670096
-12.8804715849
-13.6178566685
-14.3672618879
-15.1255384498
-15.8892792719
-16.6548205484
-17.4182957726
-18.1756660226
-18.9228033511
-19.6555507296
-20.3698268152
-21.0616964523
-21.7274726805
-22.3637804254
-22.9676424201
-23.5365136263
-24.0683182512
-24.5614314805
-25.0146613587
-25.4271760383
-25.7984415283
-26.1281272387
-26.4160369108
-26.6620246933
-26.8659848047
-27.027789423
-27.147248749
-27.2240769241
-27.257610426
-27.2466478418
-27.1898666206
-27.0875730759
-26.940955953
-26.7510893459
-26.5203881044
-26.2519183063
-25.9488200808
-25.6145793621
-25.2528569684
-24.8673657796
-24.4617568735
-24.0395116885
-23.6038584404
-23.1576870215
-22.7034895875
-22.2433118517
-21.7787035719
-21.3106486463
-20.839510323
-20.3649522305
-19.885775927
-19.3996422926
-18.902699052
-18.3890711143
-17.8502694594
-17.274686608
-16.647368304
-15.9501326092
-15.1621880705
-14.2615033314
-13.2271205984
-12.0418119889
-10.6945174802
-9.18244268698
-7.51251710916
-5.70191932224
-3.77737289207
-1.77359125408
0.268401100797
2.30487817963
4.29299085117
6.19361755218
7.97358578866
9.6081693465
11.0826828778
12.3919391033
13.5363027531
14.5199634328
15.3528841545
16.0515253605
16.631595138
17.1059896467
17.4843152202
17.779071734
18.0024772691
18.1646389135
18.2733667657
18.334520174
18.3527209673
18.3332867228
18.2825103113
18.2069352548
18.1127453281
18.0054044399
17.8895467644
17.7689532202
17.6466507549
17.5249883769
17.4057701819
17.2903211008
17.1796034454
17.0742550492
16.9746748404
16.8810515238
16.7934438062
16.7117824083
16.6359266724
16.5656607603
16.5007071437
16.4407569308
16.3854825903
16.3345555837
16.2876452281
16.2443904162
16.2044366266
16.1674452179
16.1330956665
16.1010878695
16.0711421504
16.0430012209
16.016424668
15.9911943116
15.9671091518
15.9439873021
15.9216615562
15.8999787492
15.878799925
15.8580018974
15.8374722662
15.8171112664
15.7968290521
15.7765479063
15.7562006169
15.7357290457
15.7150872375
15.6942451838
15.6731846754
15.6518983548
15.6303951036
15.6087113519
15.5869075122
15.5650750531
15.5433450943
15.5219008974
15.5009929862
15.4809437609
15.4621233864
15.4447445056
15.4290699248
15.4036699313
-2.60607409076
-2.63550871771
-2.67996427605
-2.73849273801
-2.81129102564
-2.89905104859
-3.00324936623
-3.12572131727
-3.26847386239
-3.4334797402
-3.62257644703
-3.83738771145
-4.07929353089
-4.3494122971
-4.64861496893
-4.97752967734
-5.33657055879
-5.7259443208
-6.1456809317
-6.59563318791
-7.07550336226
-7.58483250479
-8.12302002892
-8.68930099615
-9.28275786148
-9.90228639589
-10.5465993846
-11.2141843131
-11.9033019245
-12.611940752
-13.3378162619
-14.0783304868
-14.8305808897
-15.591336734
-16.3570690003
-17.1239541573
-17.8879343614
-18.6447566258
-19.3900699215
-20.1195030724
-20.8287899559
-21.5138611767
-22.1709647391
-22.7967452594
-23.3883413396
-23.9434210223
-24.4602092494
-24.9374478398
-25.3743463459
-25.7704810155
-26.1256933975
-26.4399762741
-26.7133824105
-26.9459163437
-27.1375104642
-27.2879619779
-27.3969406953
-27.4638099901
-27.4873433333
-27.4654193141
-27.3970927188
-27.2831676293
-27.1238337123
-26.9204513779
-26.6759792027
-26.3933367225
-26.0758795856
-25.7273279624
-25.3516016759
-24.9526747953
-24.5344417511
-24.100604843
-23.65460583
-23.1995689275
-22.7382656638
-22.2730946537
-21.8060442999
-21.3385877012
-20.8715624871
-20.4050609252
-19.9382512784
-19.4691135492
-18.994108167
-18.5076942899
-18.0017687756
-17.4651184604
-16.8830293685
-16.2371725212
-15.5057565548
-14.6644187866
-13.6884683849
-12.5561620164
-11.251971743
-9.76935870332
-8.1129725454
-6.29984923277
-4.35870485788
-2.32777081104
-0.253284681113
1.81504803227
3.83109187355
5.75457320911
7.55397050619
9.20602563924
10.7001180773
12.0266215909
13.1875791442
14.1926508042
15.0525088903
15.7814533859
16.3866318177
16.8807085164
17.2768560534
17.587569602
17.8244927929
17.9977871304
18.1157786673
18.1852304393
18.2118886333
18.2015880136
18.1604617022
18.0947231126
18.0101918658
17.912120162
17.8049684162
17.6924771294
17.5776258441
17.4628050996
17.3498205633
17.2400620114
17.1345051267
17.0338562029
16.938530816
16.8487779663
16.764669506
16.686193349
16.6132236219
16.5455609921
16.4829548097
16.4251280268
16.3717785226
16.3225918172
16.2772188293
16.2353160595
16.1965524857
16.160610411
16.1271886007
16.0960030936
16.0667874424
16.0392939631
16.0132947464
15.9885787509
15.964953536
15.9422401315
15.9202757625
15.8989137379
15.8780207145
15.8574752177
15.837167109
15.8169976293
15.7968796476
15.7767367999
15.7565011115
15.736116445
15.7155405579
15.6947391445
15.6736815342
15.6523526317
15.6307584244
15.6089219775
15.5868806384
15.5646946362
15.5424514233
15.520272088
15.4982985177
15.4766732412
15.4554566331
15.4342990234
15.4124530577
15.3781722768
-2.78650540161
-2.8154501007
-2.86167579476
-2.92592389454
-3.00810367643
-3.10852322833
-3.22802777307
-3.36775327891
-3.5289962206
-3.71308524645
-3.92131019328
-4.15485521951
-4.41476658998
-4.70192217555
-5.01703149913
-5.36062553248
-5.73307386117
-6.13458089145
-6.56520843243
-7.02486892554
-7.51334642592
-8.03028076732
-8.57518274217
-9.14740690758
-9.74615819304
-10.3704529809
-11.0191173847
-11.6907386709
-12.3836577266
-13.0959165764
-13.8252511937
-14.5690444616
-15.3243301373
-16.0877648814
-16.8556581802
-17.6239784488
-18.3884205773
-19.1444572774
-19.8874541069
-20.6127706434
-21.3159143236
-21.9926615672
-22.6392041709
-23.2522475523
-23.8291175678
-24.3677951292
-24.866923008
-25.3257309416
-25.7439519908
-26.1216837084
-26.4592537575
-26.7570600005
-27.0154061534
-27.2343987913
-27.4139365737
-27.5536089098
-27.6528106184
-27.7105040937
-27.7249503196
-27.6935639639
-27.6155539818
-27.49076753
-27.3189304668
-27.1023776319
-26.8439422912
-26.546532266
-26.213805603
-25.8498196236
-25.4588598506
-25.0452617829
-24.6132563366
-24.1668540138
-23.7097917225
-23.2455040951
-22.7770925696
-22.3072962448
-21.8384519881
-21.3723465926
-20.9100458227
-20.4517985995
-19.9969093828
-19.5436192324
-19.0889129158
-18.6281246245
-18.1542931197
-17.6573936615
-17.1235795395
-16.534672325
-15.8676790973
-15.0949490399
-14.1864319505
-13.1142239583
-11.8574515577
-10.4061407138
-8.76366466815
-6.94860902286
-4.99362709002
-2.94107559772
-0.841427045462
1.25063370473
3.28850646889
5.23348290344
7.05681807149
8.7306239874
10.2445020607
11.5950031536
12.7849931929
13.8238332961
14.714737007
15.4679451015
16.095605204
16.6104679616
17.0254623435
17.3530332607
17.6047677146
17.7909604164
17.9204115722
18.0005599749
18.0379229558
18.0387000094
18.0090118858
17.9548148716
17.8816752831
17.7945985413
17.6979050319
17.595225284
17.4895143465
17.3831403422
17.2779393197
17.1753170011
17.076296676
16.9816103718
16.8917289203
16.8069335628
16.7273435051
16.6529787658
16.5837471741
16.5194585873
16.4599069414
16.4048453134
16.3540054161
16.3070830001
16.2637171608
16.2235843128
16.1863807311
16.1518156551
16.1196110402
16.089501576
16.0612395277
16.0345916523
16.0093426572
15.9852914097
15.9622528904
15.9400573328
15.9185527344
15.8975983913
15.8770650133
15.8568343624
15.8368007916
15.816869744
15.7969576311
15.7769876124
15.7568941661
15.7366238779
15.71612997
15.6953667968
15.6742994661
15.6529126505
15.6312017792
15.6091702276
15.5868313912
15.5642140293
15.5413601273
15.5183126954
15.495099183
15.4716804857
15.447805809
15.4226370316
15.3947071876
15.3520847644
-3.03788829225
-3.06472658246
-3.11053617012
-3.17690067246
-3.26375282614
-3.37142154114
-3.50046186508
-3.65158905367
-3.82562771117
-4.02343851661
-4.24587549063
-4.49373725775
-4.76774621239
-5.06852002298
-5.39657062785
-5.75228859947
-6.13595464011
-6.54772877694
-6.9876669581
-7.45570771033
-7.95168751227
-8.47531979009
-9.02620450605
-9.603795759
-10.2074031508
-10.8361469177
-11.4889500691
-12.1644829684
-12.8611487683
-13.5770229375
-14.3098388281
-15.0569326255
-15.8152415042
-16.5812710593
-17.3511244536
-18.120511941
-18.8848288363
-19.6392221857
-20.3787292611
-21.0984090354
-21.7935331813
-22.4597456795
-23.0932418826
-23.690885647
-24.2503195078
-24.769987555
-25.2491138946
-25.6875830138
-26.0858032407
-26.444500908
-26.7645147185
-27.0465705571
-27.2910984809
-27.4981424472
-27.6673339895
-27.7980541243
-27.8892788237
-27.9394797297
-27.9465836169
-27.908372822
-27.8229926681
-27.6888043575
-27.5062127685
-27.2775864117
-27.0054487781
-26.6931421477
-26.3447802007
-25.9649030882
-25.5582586044
-25.1296137603
-24.683605137
-24.2246203238
-23.7567310832
-23.2836370125
-22.808592253
-22.3343732328
-21.8632979485
-21.3971534748
-20.9371063684
-20.4836410726
-20.0365487212
-19.5949385337
-19.1570895394
-18.7199600427
-18.2781813734
-17.822863917
-17.3403721332
-16.8117180783
-16.2118508305
-15.5093431835
-14.668452241
-13.6553726538
-12.4448941255
-11.0253108799
-9.40064661921
-7.59177468187
-5.63534208932
-3.57603359148
-1.46413499574
0.643184388288
2.6990156147
4.66358326762
6.50539840781
8.20168408074
9.74416682296
11.1288456913
12.352057891
13.4179445402
14.3343501107
15.1115599139
15.7615947304
16.297207929
16.7313392924
17.0764449683
17.3441714446
17.5449541455
17.687959887
17.7810941918
17.8313863115
17.84527592
17.82890839
17.788044368
17.7280538191
17.6537054538
17.5691877378
17.477998502
17.3830631591
17.2867015352
17.1907802828
17.0966998601
17.0055411069
16.918046831
16.8347514736
16.7559640327
16.681861179
16.6124942286
16.5478018784
16.4876173811
16.4317819311
16.3800925537
16.3323157411
16.2881359793
16.2472034156
16.2092232433
16.173922732
16.1410408205
16.1103249859
16.0815357491
16.0544435058
16.0288330935
16.0045025161
15.9812642514
15.9589452563
15.9373900952
15.9164534883
15.8960012067
15.8759088691
15.8560657095
15.8363706847
15.8167353105
15.7970764001
15.7773195603
15.7574015518
15.7372686328
15.7168660163
15.6961437989
15.6750694758
15.653620367
15.6317758192
15.6095200734
15.586841686
15.5637363377
15.540189769
15.5161653908
15.4915770084
15.4662015495
15.4395094341
15.410268685
15.3765365116
15.3263932516
-3.3213395064
-3.34607135011
-3.39108629725
-3.45799244933
-3.54688887634
-3.65829716236
-3.79272186108
-3.95070424457
-4.13281426464
-4.33962020612
-4.57167605623
-4.82949367617
-5.11353699537
-5.42420112238
-5.76181633995
-6.1266326286
-6.51883055857
-6.93850719165
-7.38568923361
-7.86031547825
-8.3622478144
-8.89124539824
-9.44696965696
-10.0289469934
-10.6365646801
-11.2690205157
-11.925308817
-12.6041581974
-13.3040097658
-14.0229487584
-14.758682211
-15.5084762608
-16.2691479161
-17.0370277321
-17.8079888787
-18.5774615855
-19.3405228757
-20.0919829055
-20.8265503743
-21.5389998309
-22.2244050215
-22.8783434023
-23.4971103559
-24.0778519049
-24.6186654451
-25.1185973424
-25.5775748381
-25.9962226841
-26.3756428243
-26.7171384816
-27.0219348148
-27.29092236
-27.5245386731
-27.7227861246
-27.8852907679
-28.0112621342
-28.0992523292
-28.1473714803
-28.1535023574
-28.1144829262
-28.0258337079
-27.8850964391
-27.6935219496
-27.4534845272
-27.1678562621
-26.8406982683
-26.4767233615
-26.0810152354
-25.6587926003
-25.2152571643
-24.7554455132
-24.2840851495
-23.805472516
-23.3233262002
-22.8407414478
-22.3602736718
-21.8841196296
-21.414241382
-20.9523520193
-20.4997643017
-20.057327653
-19.6253979176
-19.203609573
-18.7901245996
-18.3802363471
-17.9647438348
-17.5286044347
-17.0507672065
-16.5041991492
-15.8557260919
-15.0672846377
-14.1027793438
-12.9353908502
-11.5528540383
-9.95888062724
-8.1741307097
-6.23634420952
-4.18912299975
-2.07993207979
0.0313008718753
2.09172067005
4.06764897604
5.9316222325
7.65641974245
9.22775715462
10.6384649625
11.8871325038
12.9775228727
13.9172677547
14.7166850989
15.3877966522
15.9434318266
16.3965279294
16.759578487
17.0442435357
17.2610896961
17.419486752
17.5276638962
17.5929239747
17.6218833385
17.6206539973
17.5948800866
17.5497209762
17.4897738664
17.4190537756
17.3409645191
17.2583479279
17.1735062896
17.0882866533
17.0041154973
16.9220893604
16.8429960235
16.7673994676
16.6956605285
16.6280003082
16.564522389
16.5051640252
16.4498311764
16.3983909404
16.3507031854
16.3065589962
16.2656067571
16.2275444008
16.1921131189
16.1590732423
16.1281959321
16.0992590546
16.0720479851
16.0463544632
16.0219843414
15.9987527901
15.9764884617
15.9550342882
15.9342458692
15.9139863547
15.8941302482
15.8745625147
15.8551798562
15.8358881122
15.8166020463
15.7972415358
15.7777367232
15.7580254689
15.7380501201
15.7177534405
15.6970872166
15.6760143991
15.6544997112
15.6325076493
15.6100020398
15.5869485258
15.5633008573
15.5389878107
15.513897801
15.4878289756
15.4603879887
15.4308057737
15.3975643488
15.3584469317
15.3017413075
-3.60092933815
-3.62399445598
-3.66832627258
-3.73512618559
-3.82473592401
-3.93786225539
-4.07504111272
-4.2367702065
-4.42350735299
-4.63566531905
-4.87362010382
-5.13769903399
-5.42818904479
-5.74532385619
-6.08929484595
-6.46023804528
-6.85824691946
-7.28335733973
-7.73555986097
-8.21477938806