/*--------------------------------*- C++ -*----------------------------------*\
| =========                 |                                                 |
| \\      /  F ield         | OpenFOAM: The Open Source CFD Toolbox           |
|  \\    /   O peration     | Version:  v1806                                 |
|   \\  /    A nd           | Web:      www.OpenFOAM.com                      |
|    \\/     M anipulation  |                                                 |
\*---------------------------------------------------------------------------*/
FoamFile
{
    version     2.0;
    format      ascii;
    class       volScalarField;
    location    "20";
    object      rho;
}
// * * * * * * * * * * * * * * * * * * * * * * * * * * * * * * * * * * * * * //

dimensions      [0 0 0 0 0 0 0];


internalField   nonuniform List<scalar> 
12225
(
0.585358259033
0.649831685012
0.62899912023
0.629278292105
0.617247264282
0.612956493332
0.606987227528
0.602972094648
0.60087344931
0.601877576307
0.60745004237
0.61619601073
0.623239301473
0.635117831231
0.658736521167
0.689898296849
0.730648177303
0.764922790799
0.760997487445
0.699169050442
0.66660647104
0.671298148269
0.66218969177
0.659854106524
0.656167431608
0.653927460903
0.652763676036
0.653358397601
0.657065983296
0.663631112178
0.670468614564
0.680532773278
0.698470402782
0.721938772419
0.747981203213
0.750706276073
0.605398877436
0.6808318176
0.661697598543
0.663674492221
0.653828745949
0.650525959397
0.6460253741
0.643054742409
0.641059142466
0.640545707033
0.642199192345
0.646137503671
0.65184487515
0.660952267901
0.675933981337
0.694963725185
0.712770413904
0.708022485141
0.674365654921
0.692728345845
0.666188004198
0.672030819627
0.663229104633
0.661534261992
0.658391560183
0.656554394777
0.655368970698
0.655247211611
0.656504469918
0.659295690219
0.663750163524
0.670830200979
0.68152581572
0.693835365529
0.70193887544
0.692368460489
0.638362145229
0.692540369594
0.667347325733
0.67442901096
0.66643634584
0.665695503387
0.66344460749
0.662528841755
0.66228547078
0.663035405752
0.664900962497
0.667961440725
0.672437042571
0.678790096946
0.687012564914
0.694830325735
0.69711743768
0.686610105547
0.652865350743
0.696333058246
0.67071329272
0.67911043456
0.67170458116
0.671688615556
0.669987751831
0.66957207575
0.669761361495
0.670817029361
0.672780159816
0.675683057414
0.679683843843
0.684904637611
0.690790232558
0.69509234071
0.693987399308
0.684034993781
0.64888047261
0.697711765514
0.673251861197
0.682533008993
0.675811266952
0.676460096361
0.675286403845
0.675322727372
0.675868823258
0.677135037972
0.679111408007
0.681786966871
0.685194322646
0.689218530772
0.693055100368
0.694752549591
0.691758481611
0.68266892129
0.651294950824
0.699227027586
0.675472358563
0.685514231768
0.679354184353
0.680538229885
0.679759394357
0.680110628567
0.680846254574
0.682158419615
0.684013971187
0.68635979898
0.6891068008
0.691985490921
0.694123958839
0.693987803293
0.689993717749
0.681783586831
0.652245341023
0.699988238429
0.677281347719
0.687837077382
0.682216977771
0.683856844794
0.683406527941
0.68397536383
0.684783765448
0.686031055784
0.687674072968
0.689611227789
0.691663117271
0.693479146989
0.694258676754
0.692853354456
0.688379522115
0.680918587674
0.653153398803
0.700321444721
0.67852170235
0.689454185519
0.684285548653
0.686299416281
0.686089022391
0.686782085493
0.687591280199
0.68872385609
0.690102784969
0.691578742177
0.692921385504
0.693777223683
0.693482011409
0.691228699736
0.686574677164
0.67981159763
0.653113874427
0.700392803859
0.678907300881
0.690177768044
0.685268892481
0.687494420545
0.687363552687
0.688077404222
0.688827509208
0.689793045456
0.6908610803
0.691877905072
0.692610018527
0.692744897705
0.691759194974
0.689113428835
0.684634833344
0.678641624012
0.649102275967
0.700267916948
0.677420391053
0.689264961036
0.68429566781
0.686614994917
0.686498139671
0.687205839737
0.687853538921
0.688650264526
0.689541799442
0.690353413134
0.690839950709
0.690702491912
0.68954010407
0.686984240303
0.682964789131
0.677791749301
0.645803484698
0.699578855866
0.675919666498
0.688168950736
0.683377828855
0.685865921361
0.685846901283
0.686627388188
0.687360075411
0.688232058329
0.689129668656
0.689873035148
0.690182188175
0.689839814928
0.688517888011
0.685997456999
0.68230970399
0.677727584786
0.641782270938
0.698718292417
0.674203944242
0.686985637918
0.682407945659
0.685248869701
0.685534841978
0.686532779264
0.687371555208
0.688241288474
0.689021576449
0.689517427861
0.689485215631
0.688773741432
0.687209614626
0.684662228252
0.681276610661
0.677206639078
0.636533409073
0.697775098823
0.672043393388
0.685547262282
0.681187618744
0.684445642366
0.685077858746
0.68633353288
0.687296562844
0.688122026984
0.688724463067
0.688899653639
0.688467083232
0.687402680567
0.68562168831
0.68309762778
0.679990070688
0.676444432263
0.631000644374
0.696766157035
0.669569782428
0.68378790152
0.679537783639
0.683153044062
0.684040160841
0.685483007055
0.686494917389
0.687265560483
0.687665633105
0.687578458731
0.68684136637
0.685559426585
0.68368878892
0.681281493724
0.678476151579
0.675373669374
0.625978693279
0.695841713807
0.66705123905
0.681848945052
0.677555476687
0.681380707634
0.6823695581
0.683865051214
0.684843946612
0.685491210285
0.685736723647
0.685453189956
0.684557044339
0.683182345653
0.681357896919
0.679114881242
0.676625467783
0.673886928799
0.621217150017
0.6951282848
0.664639407168
0.67990865827
0.675425633188
0.679312729302
0.680255052892
0.681703959668
0.682587068527
0.683111453738
0.683226237519
0.682823498916
0.681855168986
0.680488161155
0.678763630785
0.676708275909
0.674488649007
0.672069698127
0.618616906242
0.69503620321
0.663346676705
0.678796503516
0.674010286312
0.67774613462
0.678454612031
0.679691972577
0.680353764236
0.680668624911
0.680601484522
0.680067231103
0.679032235639
0.677678532602
0.676040534974
0.674132812367
0.672110141747
0.669928436244
0.623916258602
0.695651520525
0.664945727078
0.679529819146
0.674260540667
0.677316648026
0.677377602379
0.6779531487
0.678019224321
0.677804649373
0.677305369672
0.676453651454
0.675211855086
0.673748066558
0.672091792805
0.670247428029
0.668354067712
0.666377041607
0.628701193573
0.696843416876
0.666845431511
0.680794492108
0.67514796226
0.677663255971
0.677211889783
0.677307824747
0.676917267527
0.676326239264
0.675522605787
0.6744631247
0.673076306035
0.671554290419
0.669886970025
0.668098277119
0.666283198623
0.664435000239
0.630464428849
0.697664872612
0.668752827183
0.682167302262
0.676242884774
0.678282057447
0.677415248596
0.677094173953
0.676348812265
0.675458401678
0.674412308481
0.673189599606
0.671705339728
0.6701285653
0.668461660672
0.66670373416
0.664955877049
0.663171170828
0.638660867474
0.699498937628
0.670524709076
0.683430163495
0.677201876928
0.678793406906
0.677529744086
0.676833923665
0.675761972653
0.674584666391
0.6733344022
0.67194682023
0.670355955757
0.668708886063
0.667031157299
0.665272605588
0.663556735758
0.661838033485
0.631783894954
0.699919482629
0.672777087594
0.685129796833
0.678627145998
0.679753451573
0.67810471268
0.677026848665
0.675638906278
0.67420403931
0.672733470271
0.671186000783
0.669474682049
0.667751502202
0.665998461142
0.66420413994
0.662457017418
0.660744626879
0.658955272356
0.702276917618
0.674390265695
0.685907845237
0.679189533524
0.67988062851
0.677892951411
0.676528286417
0.674893723157
0.673254700941
0.671624498197
0.669982745746
0.668208882623
0.666449200589
0.6646944499
0.662887319408
0.661109413575
0.659377052596
0.615767937321
0.702406300897
0.677482979863
0.688652799332
0.681660157046
0.681962442057
0.67970313001
0.678044091697
0.676151030568
0.674260362395
0.672416447095
0.670591790452
0.668674722182
0.666773930324
0.664887233911
0.662978078754
0.661123596475
0.659460956806
0.711489994005
0.705482896128
0.680024626873
0.688968983425
0.682108143901
0.681799344447
0.679217011336
0.677230282948
0.675044446778
0.672863657291
0.670715337526
0.668733234917
0.666736720962
0.664764995532
0.662868369338
0.660951725807
0.659018086692
0.656910581493
0.564309935077
0.701224218956
0.687888014761
0.695173122969
0.688320093505
0.687876121552
0.685382497273
0.683563818321
0.681606565557
0.679662475135
0.677866363789
0.676191600977
0.674444746212
0.672710201667
0.670996148169
0.669151516525
0.667204420844
0.66563316232
0.835089561075
0.720483339131
0.695443350246
0.701739964511
0.695351813217
0.694240601559
0.69118869746
0.688439019611
0.685312778755
0.681934888027
0.678419929915
0.675127650964
0.671793540793
0.668323194259
0.664802030318
0.661215260612
0.657513801737
0.653927999135
0.649337824674
0.683013729865
0.678110290164
0.679806750721
0.672011215225
0.671003944185
0.66834637063
0.66629169828
0.664205407215
0.662373467493
0.660895659925
0.65951632348
0.658074592625
0.656962882194
0.656176768215
0.655517569496
0.655182574
0.654415026623
0.500150302993
0.499789583162
0.499603093827
0.49962130024
0.499835560825
0.500211561908
0.500646437512
0.501106624068
0.501565463245
0.502004432943
0.50241152339
0.502779758036
0.503105820828
0.503388840359
0.503629677823
0.50383035796
0.50399349552
0.504122419308
0.504220200462
0.50428977
0.504334355194
0.504356082707
0.504358138944
0.504341128466
0.504306834397
0.504254710972
0.504186263786
0.504101087752
0.503999677061
0.503881095455
0.503745469635
0.503592169455
0.503421471896
0.503232496964
0.503025365954
0.502800146561
0.502557925702
0.50229792426
0.50202129634
0.50172808295
0.501419663299
0.501096787039
0.500761164685
0.500414452256
0.500058801632
0.49969676415
0.499330961434
0.498964534209
0.498600758751
0.498242603971
0.497892937966
0.497553153208
0.497226390724
0.496916882913
0.496629999092
0.49637087249
0.496144899882
0.495957477373
0.495814125474
0.49572010595
0.495679490039
0.495693492578
0.495763065277
0.495891195403
0.496078835817
0.496322879114
0.496621263729
0.496971883225
0.497371434921
0.497817148824
0.498304770588
0.498830450248
0.499389438095
0.499977517305
0.500590038652
0.501223035634
0.501872557758
0.502534063663
0.503203766571
0.503879040678
0.50455784914
0.505236901503
0.505914149212
0.506586890707
0.507255902805
0.507918517032
0.508574639676
0.509230558856
0.509882523038
0.510534092413
0.511186025839
0.511838508244
0.512493714318
0.513125172237
0.51371827985
0.514311036883
0.514935234019
0.515576056308
0.516231607809
0.516895878998
0.517674820895
0.518547190333
0.518689045853
0.518735593386
0.51895278944
0.519394640364
0.520027524778
0.520373755686
0.520778717636
0.521143234621
0.521441306415
0.521698369036
0.521919227797
0.522125654507
0.522310554329
0.522482724469
0.52264538806
0.522801168686
0.522950919909
0.523093691525
0.523226155459
0.523347084403
0.5234577613
0.523559259895
0.523654402905
0.52374444006
0.523830105741
0.523911895429
0.523990167083
0.524065315749
0.524137707502
0.524207554715
0.524275038663
0.524340178491
0.524403036613
0.524463525276
0.524521629028
0.524577686469
0.524631230958
0.524682124804
0.524728620097
0.524772125849
0.524811818028
0.524846170459
0.524873475051
0.524891908215
0.524900350587
0.524897990009
0.524884118536
0.524858185001
0.524819093542
0.524765307841
0.524695097158
0.524606814269
0.524498677131
0.524368851173
0.524215273277
0.524035682138
0.52382710167
0.523585911992
0.523306747828
0.52298388473
0.522609256182
0.522171538946
0.521655279469
0.521043513941
0.520315289011
0.519453979095
0.518446340716
0.51726958963
0.515910751566
0.514373338507
0.512674588472
0.510856947714
0.508980713488
0.506989630537
0.50493383686
0.502892361891
0.500975220464
0.499494698581
0.500048139955
0.499814389581
0.49991568068
0.500202819372
0.500551619348
0.50090858428
0.501252192398
0.501572116328
0.501863825628
0.502125142985
0.502355751026
0.502555057236
0.502723970781
0.502862893238
0.502973217828
0.503056054616
0.503113232417
0.503146540884
0.503158441168
0.50315040759
0.503124962144
0.503083517587
0.503028394544
0.502959775825
0.50287903839
0.502785324694
0.502679478071
0.502560653819
0.502428634955
0.502282104897
0.502120888196
0.501943998644
0.50175084964
0.501540254138
0.501312548366
0.501067020326
0.500803979547
0.500523140445
0.500225016608
0.499909467358
0.499577474701
0.499229799936
0.498867933814
0.498493617051
0.498109114002
0.497717194815
0.497321244867
0.496924890174
0.496532783725
0.49615011698
0.495784499445
0.495440986195
0.495122481484
0.494831963987
0.494573335782
0.494350472779
0.494167188035
0.494029201038
0.493942455771
0.493909052376
0.49393045411
0.494008918122
0.494144053339
0.494331861974
0.494573379156
0.494871221621
0.495225568259
0.495636071766
0.496101790655
0.496621701728
0.497193886221
0.497816228731
0.498485411791
0.49919788038
0.499949534728
0.500735721224
0.50155132822
0.502391025246
0.503249289879
0.504122089482
0.505006318983
0.505898134835
0.506793359446
0.50769013522
0.508590138986
0.509488090156
0.510377275963
0.511267319234
0.512179108662
0.513094196473
0.513981843832
0.514875442691
0.515814835765
0.516769416867
0.517653635314
0.518462168689
0.519303745873
0.519995307668
0.520680537861
0.521398024865
0.52208760561
0.522908476128
0.52351628225
0.524171669492
0.524775968285
0.525358108985
0.525704228525
0.525969885664
0.526206468336
0.526451707347
0.526700540113
0.52695794099
0.527221259054
0.527486817414
0.527747075493
0.528005682171
0.528262733725
0.528519506331
0.528776509179
0.529030968919
0.529279052848
0.529518916629
0.529750457102
0.529975328784
0.530195454534
0.53041177726
0.53062502125
0.53083563941
0.531044134467
0.531250700579
0.531455432641
0.531658363735
0.531859639557
0.532059391408
0.532258021201
0.532455904745
0.532653672691
0.532852113479
0.53305195998
0.533252941548
0.533454881001
0.533659051895
0.533865856334
0.534074996962
0.534285592209
0.534497207101
0.534710241657
0.534925692055
0.535144792768
0.535368568656
0.535598144457
0.535834739574
0.536079579784
0.536333359319
0.536595940261
0.536866482153
0.537142979356
0.537422795973
0.537702315759
0.537978218683
0.538245464809
0.538498449961
0.538731722287
0.538941184416
0.539123096863
0.53927443485
0.539398713353
0.539488089714
0.539543331513
0.539566130104
0.539554813004
0.539502486888
0.539399408238
0.539243993521
0.538965617198
0.53865601583
0.538288622279
0.537873063341
0.537451387969
0.537009763372
0.500417620922
0.500342092072
0.500376901441
0.500492396324
0.500614521658
0.500715003404
0.500803011384
0.500885026293
0.500964788228
0.501042433559
0.501117412235
0.501188124552
0.501252929731
0.501309928119
0.501357716091
0.501395065638
0.501421470269
0.501436589754
0.50144081676
0.501434590433
0.501418808449
0.501393476034
0.501360122699
0.501318364936
0.501268562161
0.501209949618
0.501142687352
0.50106549172
0.500977897606
0.50087853081
0.500766794214
0.50064121852
0.500501419674
0.500346353396
0.500175676535
0.499988859929
0.499786358245
0.499567595304
0.499333136286
0.499083254651
0.498818874101
0.498541010722
0.498251245289
0.497951474447
0.497644069418
0.497331767392
0.497017875547
0.49670600157
0.496400202727
0.496104832446
0.495826074922
0.495570353299
0.495344590153
0.495153311278
0.49500003285
0.494887578599
0.49481829428
0.494792112328
0.494808151203
0.494867929695
0.494974129725
0.49512891944
0.495337696418
0.495604215994
0.495926725972
0.496305984431
0.496743132621
0.497238269151
0.49778980733
0.498395256795
0.499050824409
0.499752016333
0.500493697296
0.501270458004
0.502076812815
0.502907296187
0.503756666703
0.504619719389
0.505491569863
0.506367525624
0.50724548168
0.50812252547
0.50899425409
0.509857902051
0.510717317214
0.511574157001
0.51241421804
0.513234682458
0.514059578724
0.514898826744
0.515718697865
0.516491534903
0.517292984346
0.518099077326
0.518873970505
0.519618907855
0.520306978939
0.520839581135
0.521446068208
0.522241185835
0.523105441509
0.523723635271
0.524054079648
0.524397897929
0.524588759989
0.524828421716
0.5252237419
0.525791436014
0.526333669369
0.526806014056
0.527243200438
0.527648405092
0.528022710033
0.528369639808
0.528693723793
0.529002073513
0.529298252743
0.529585478497
0.529865177335
0.530135566564
0.530394526408
0.530641612415
0.530878188643
0.531106482515
0.531327624993
0.531542350863
0.531751159631
0.53195445475
0.532152586609
0.532346059122
0.532535577239
0.532721857117
0.532905373099
0.533086428391
0.533265279989
0.533442249556
0.533617899638
0.533792612961
0.533966547861
0.534138583458
0.534308653729
0.534477764572
0.534647113774
0.534816358237
0.534983981918
0.535148811561
0.535310337455
0.535468562367
0.535623366605
0.535774589108
0.535922041432
0.536065740052
0.536205560613
0.536341524586
0.536473881904
0.536603145241
0.53673004017
0.536855720543
0.536981382504
0.537108731674
0.537239486101
0.537375361134
0.537518106773
0.537669620116
0.537831292893
0.538004749542
0.538192602729
0.538395214997
0.538609295229
0.538831738602
0.539057374375
0.53927623864
0.539476033988
0.539632956955
0.539720303876
0.539720733731
0.539615088241
0.539395785275
0.539106759692
0.538902957928
0.500886983262
0.500767997204
0.5005062302
0.500365570604
0.500288974682
0.500229451622
0.500192861405
0.500178883988
0.500185318805
0.500209088943
0.500247028106
0.500295215256
0.500350368766
0.500408990216
0.50046833527
0.500525887392
0.50057990969
0.50062901691
0.500672683601
0.500709881147
0.500740947787
0.500765560655
0.500783865235
0.500795206798
0.500799945646
0.500796670681
0.50078503981
0.500763726449
0.500731920178
0.500687959334
0.500630939853
0.500559514708
0.500472815357
0.500369481205
0.500249572323
0.50011215898
0.49995730996
0.499784900631
0.499595532529
0.499389503054
0.499168031396
0.498932407318
0.498684586689
0.498426899359
0.498162160584
0.497893637844
0.497625165253
0.497360643665
0.497104592902
0.496861865813
0.49663713152
0.49643395628
0.496258048236
0.496114262405
0.496007072009
0.495940223458
0.495917139486
0.49593946438
0.496005781107
0.496113359091
0.49626152842
0.496451375799
0.496685603128
0.496969579226
0.497309828919
0.497710374617
0.498173310221
0.498699744409
0.499289424012
0.499940484038
0.50064952578
0.501411484073
0.502219849464
0.503067689579
0.503947625268
0.504851350382
0.505771476015
0.506702373284
0.507636881161
0.508568223827
0.509494141358
0.510415315187
0.511323675763
0.512209924455
0.513082371943
0.513948941816
0.514795517281
0.515588742802
0.516374934072
0.517164532132
0.517923335924
0.518634543097
0.519310398295
0.519971952746
0.520587866651
0.521208166922
0.521892619054
0.522633270132
0.523477230234
0.524279917203
0.524845219976
0.525099228698
0.525282512049
0.525504496533
0.52569401454
0.526015633224
0.526544862177
0.527216311224
0.527868620926
0.52845596607
0.528984473672
0.529452967141
0.529868539418
0.530241859222
0.53058278642
0.530900076359
0.531199053472
0.531483793809
0.531755674652
0.532013826751
0.532257249202
0.532486990652
0.532706036461
0.532916653855
0.533120007806
0.533316792179
0.533507662918
0.533693277059
0.53387433524
0.534051504512
0.534225685844
0.534397461767
0.534567046878
0.534734762199
0.534901004757
0.535066473953
0.5352317455
0.535396971803
0.535561389459
0.5357237098
0.535883652201
0.536042890675
0.536203322729
0.536364901068
0.536526454694
0.536687025661
0.536846323664
0.537004482236
0.537161719902
0.53731828496
0.537474348108
0.537630087414
0.537785353275
0.537940003053
0.538093902338
0.53824689544
0.538398685599
0.538548739151
0.538696389674
0.538840923618
0.538981942757
0.539119014513
0.539251807465
0.539380615816
0.539506187456
0.539630005072
0.539755507449
0.539884864291
0.540019841248
0.540163220478
0.540316445024
0.540477896984
0.540643990195
0.540807598996
0.540950537492
0.541067078347
0.541148756046
0.541193312187
0.54125103193
0.541452225282
0.501430027038
0.500765297506
0.500109200735
0.49986842754
0.499782904675
0.499726893441
0.499693357253
0.499679193285
0.499684759501
0.499708642161
0.499749728823
0.499805546057
0.499873442646
0.499950078102
0.500032730296
0.500118481951
0.500205406706
0.50029130341
0.500375068917
0.500455615437
0.50053244035
0.500604346757
0.500671668007
0.500733220393
0.500788533301
0.500836545363
0.500876638512
0.500907118861
0.500927046183
0.500934765052
0.500929248778
0.500908740801
0.500872594153
0.500819645979
0.50074935014
0.500660994809
0.500554933721
0.500430659955
0.500288826822
0.500129894886
0.49995505957
0.499765600581
0.499563501855
0.499351008271
0.499130934653
0.498906321517
0.498680846486
0.498458357664
0.498242955966
0.498039308182
0.497853597377
0.49769017467
0.497554364622
0.497451298136
0.497385003786
0.497358956267
0.497376959077
0.497441519358
0.497553068126
0.497713032965
0.497922541081
0.498182134226
0.498491976182
0.498851149063
0.499260570289
0.499722801895
0.500240224988
0.500814551707
0.501445744668
0.502132658083
0.502872523205
0.503661034895
0.504491366207
0.505357760485
0.506253572494
0.507170263607
0.508099157592
0.509036849436
0.509979611945
0.510914648259
0.511835686106
0.512752882381
0.513659948289
0.514538641816
0.515400710427
0.51626052567
0.517097850664
0.51789307882
0.518637859872
0.519367128404
0.520098013189
0.520778331285
0.521446991357
0.522087332378
0.522753335437
0.523530711879
0.524368107741
0.525186299406
0.525899382911
0.526370592863
0.526584618865
0.526669156906
0.526816818779
0.527036213806
0.527304441988
0.527707167502
0.528243813199
0.52884271642
0.529427464939
0.529973467868
0.530467088063
0.530902688971
0.531286826988
0.531629456707
0.531939931824
0.532226209449
0.532493941591
0.532747164912
0.532987396169
0.533214454417
0.533428411144
0.533631478959
0.533826885999
0.534016509366
0.534200967733
0.534380424049
0.534555038886
0.534725069577
0.53489089853
0.535052926757
0.535211440009
0.535366739879
0.535519279548
0.535669471919
0.535817884539
0.535965173737
0.536111675749
0.536257003955
0.536399576769
0.536538061971
0.536672294529
0.536804820907
0.536937968081
0.537072132157
0.537206549982
0.537340342013
0.537473197092
0.53760513363
0.537736339957
0.537867052174
0.537997407816
0.538127520361
0.538257530019
0.538387529247
0.538517586089
0.538647634881
0.538777650509
0.538907636004
0.539037473157
0.539167019227
0.53929643596
0.5394258821
0.53955563106
0.539686359543
0.53981874214
0.539953917255
0.540094230045
0.540240696877
0.540393512221
0.540553746021
0.54072048003
0.540890748324
0.541061387378
0.541227243525
0.541378085449
0.541512899419
0.54163893173
0.541771927118
0.541972930911
0.542356653757
0.501920790456
0.50008144859
0.499220287783
0.499224400168
0.499328852029
0.499377038188
0.499398809147
0.499413907661
0.499436140137
0.499471811623
0.499523914198
0.499591206939
0.499672300175
0.49976408836
0.49986433792
0.499970087048
0.500079464461
0.500190264288
0.500301399503
0.500410954628
0.500518627204
0.500623326995
0.500724391772
0.500820741168
0.500912169054
0.500996941947
0.501074265316
0.501142553801
0.501200673707
0.501246810483
0.501279801078
0.501298147024
0.501300859907
0.501286566155
0.501255191261
0.501205855408
0.50113864752
0.501053536544
0.500951300113
0.500832439943
0.500698462469
0.500550803238
0.500391697167
0.500223508606
0.500049169747
0.499871708665
0.499694769436
0.499521788221
0.499356753476
0.499204200111
0.499070035661
0.498958503577
0.49887535644
0.498825798974
0.498814482152
0.498845517392
0.498922661543
0.499045209261
0.499211577907
0.499420781107
0.499672737567
0.499967553177
0.500307164899
0.500693428466
0.501131333531
0.501624422108
0.502176275715
0.502789094875
0.50346252578
0.504193629222
0.504979923791
0.505815480018
0.506691280686
0.507598703118
0.50853365576
0.50948627764
0.510442806062
0.511397741927
0.512354898702
0.513304910779
0.514223209865
0.515145330946
0.516054746757
0.51693822621
0.517784586278
0.518589876709
0.519376781675
0.52013925247
0.520877664037
0.521610370907
0.522295508148
0.522977348866
0.523731729467
0.524498857235
0.525284930335
0.52605704386
0.526748001336
0.527313475927
0.52772890375
0.527960346788
0.52807474215
0.528196979636
0.528399187214
0.528659613005
0.528988314894
0.529416907089
0.529915242666
0.530437156421
0.530949402334
0.531435443806
0.531880025517
0.532278490252
0.532635135823
0.532956888214
0.533250675575
0.533522648265
0.533777564688
0.534018382248
0.534246050471
0.5344601133
0.53466088978
0.534850819991
0.535032538363
0.535207470747
0.535375977611
0.535538108992
0.535693978077
0.535843901602
0.535988381655
0.536128055048
0.536263656114
0.536396124645
0.536526220719
0.53665459238
0.536781969844
0.536909099377
0.537036199136
0.537162229659
0.537285288347
0.537403603733
0.537517445125
0.537629467709
0.537741977374
0.537855627587
0.537969826399
0.538083902424
0.538197523812
0.538310655439
0.53842340054
0.538535722862
0.538647673109
0.538759294361
0.538870649637
0.538981886976
0.539093090721
0.539204365756
0.539315766958
0.539427386747
0.539539236079
0.539651378784
0.539764114782
0.539877749401
0.539992778424
0.540110075628
0.540230671577
0.540355924979
0.540488122882
0.540628437531
0.540777424458
0.540936300749
0.541104029437
0.541277846085
0.541455283184
0.541632748667
0.541801678722
0.541962390594
0.54212486759
0.542311783851
0.542582198652
0.543026010118
0.502172842549
0.49866991585
0.498100447966
0.498683985244
0.499029154808
0.499179680558
0.499255198117
0.499309031957
0.499366810808
0.499436318873
0.499521472126
0.499621046991
0.499734031734
0.499857396249
0.499989427488
0.500127236067
0.500269427227
0.500413569954
0.50055873219
0.50070350793
0.500847158543
0.500988160842
0.501126524065
0.501260770719
0.501390186711
0.501513580832
0.501630111961
0.501738000062
0.501836220117
0.501923052699
0.501997413182
0.502057578985
0.502102869222
0.502132190083
0.502145023687
0.502140810073
0.502119950169
0.502082198198
0.502028460999
0.501959470738
0.501876769078
0.501781839085
0.501676910246
0.501564190741
0.501446398404
0.501326014525
0.501206160864
0.501089645036
0.500979387308
0.500878846354
0.500794624913
0.500730274914
0.500692160908
0.500687512514
0.500722727045
0.500803678396
0.500933598408
0.501109192339
0.501328675103
0.501590098399
0.501892417467
0.502232898458
0.502611249059
0.503030006226
0.503496422875
0.504014522547
0.504589870531
0.505226807931
0.505924998828
0.506680359556
0.507489767423
0.508350369867
0.50924934072
0.510172533494
0.511116953299
0.512076667289
0.513036607054
0.513990880596
0.514949077918
0.515893963062
0.516816836807
0.517703678173
0.518551133847
0.519385627103
0.520197783132
0.52097705576
0.521722755056
0.522435879681
0.523153911876
0.523901159477
0.524634352603
0.525386949952
0.526148026666
0.526871977492
0.52755483057
0.528150529362
0.52863153133
0.528992900144
0.529254472584
0.529429757843
0.529586364821
0.529781937648
0.530027849506
0.530316794579
0.530667730154
0.531083878902
0.531534620924
0.531992835347
0.532440877298
0.532866369814
0.533258902178
0.533615961757
0.533939777734
0.534234358914
0.534504076428
0.534753293432
0.534985469214
0.535202769209
0.535405767379
0.535594394132
0.535769785221
0.535934620459
0.536091630797
0.536242377933
0.536387533434
0.536527391285
0.536662240193
0.536792460856
0.536918569835
0.537041172712
0.537160859714
0.53727810412
0.537393280193
0.537506891758
0.537619646402
0.537732229426
0.537844589319
0.537955292628
0.538062218526
0.538163661342
0.53826039084
0.538355010255
0.538449806615
0.53854541863
0.53864143403
0.538737398782
0.538833120715
0.538928691758
0.539024099818
0.539119394652
0.539214558825
0.539309638202
0.539404682622
0.539499736351
0.539594909726
0.539690345608
0.539786139935
0.539882397952
0.539979167382
0.540076612101
0.540175111134
0.540275088261
0.540377094602
0.540482162462
0.540591447734
0.540706342554
0.540828976802
0.540960567324
0.541101852682
0.541254159301
0.541416779558
0.541587443255
0.54176473637
0.541946882901
0.542127549216
0.542308505842
0.542500667096
0.542730191445
0.543050817001
0.543529824593
0.502056740437
0.496742598519
0.497094321486
0.498378158378
0.498860169133
0.499076636961
0.499207861014
0.499321662304
0.499439681659
0.499567021846
0.499707097919
0.499857616612
0.500018589501
0.500187136178
0.500362503532
0.500542076216
0.500725019785
0.500909257667
0.501094314861
0.501278297963
0.50146105351
0.501641259873
0.501818292592
0.501991095765
0.502159474432
0.502321758541
0.502477337765
0.502624781559
0.502763165175
0.502890887485
0.50300705293
0.503110400783
0.503200177343
0.5032753326
0.503335910782
0.503381287468
0.503411731635
0.503427439528
0.503429316321
0.503418030606
0.503395181588
0.503362139909
0.503320903077
0.503273297396
0.503221370319
0.503166809948
0.503111337067
0.503056357249
0.503003421789
0.502954279133
0.502914148891
0.502889088313
0.502887064767
0.502919614372
0.502998330149
0.503133389722
0.503325180352
0.503566880387
0.503854247037
0.504182056775
0.504543432336
0.504930802791
0.505339282166
0.505779177054
0.50625883465
0.506786032654
0.507368310582
0.508014273889
0.508726867855
0.5094975908
0.510318548955
0.511190280567
0.512102274422
0.513027874383
0.513981574777
0.514949264475
0.515908184921
0.516850474479
0.517764422647
0.518645169383
0.519514022244
0.520359231351
0.521169508644
0.521946330163
0.522687580076
0.523399358587
0.524105132388
0.524825659845
0.525564017504
0.52630444235
0.527015075418
0.527716731921
0.528371388947
0.528965640153
0.5294974207
0.529944515365
0.530302139826
0.530577657386
0.530798045371
0.530985495204
0.531182389607
0.531407135916
0.531663142013
0.531958993031
0.532305757123
0.532692012429
0.53309368807
0.533494582082
0.533883757765
0.534252890578
0.53459610852
0.534912047462
0.5352016082
0.535466895897
0.535710721331
0.535936266024
0.536146173317
0.536342096978
0.536524473817
0.536693494687
0.536850542965
0.536998063811
0.537138294649
0.537272521388
0.537401274081
0.537524726286
0.537643016978
0.537756380107
0.537865205309
0.537970003559
0.538071332181
0.538169725544
0.538265810251
0.538360339406
0.538454291672
0.538548395253
0.538642357822
0.538734525303
0.538822614121
0.538905288549
0.53898352444
0.539059778165
0.539136079855
0.539212991073
0.539290267103
0.539367586431
0.539444928966
0.539522349896
0.539599915365
0.539677631421
0.539755451846
0.539833397715
0.539911506712
0.539989870951
0.540068622155
0.540147936377
0.540227967719
0.54030889517