/*--------------------------------*- C++ -*----------------------------------*\
| =========                 |                                                 |
| \\      /  F ield         | OpenFOAM: The Open Source CFD Toolbox           |
|  \\    /   O peration     | Version:  v1806                                 |
|   \\  /    A nd           | Web:      www.OpenFOAM.com                      |
|    \\/     M anipulation  |                                                 |
\*---------------------------------------------------------------------------*/
FoamFile
{
    version     2.0;
    format      ascii;
    class       volVectorField;
    location    "20";
    object      U;
}
// * * * * * * * * * * * * * * * * * * * * * * * * * * * * * * * * * * * * * //

dimensions      [0 1 -1 0 0 0 0];


internalField   nonuniform List<vector> 
12225
(
(9.73887782304 0.0399639342972 0)
(9.50262659615 0.0407332699306 0)
(9.24655134849 0.0401775812411 0)
(8.99536731553 0.0404920481073 0)
(8.75700597616 0.0404428837705 0)
(8.53020495508 0.0400479890997 0)
(8.31334411321 0.0395356535445 0)
(8.10571050307 0.039004715081 0)
(7.90674243989 0.0384917609212 0)
(7.71569980505 0.0380302717002 0)
(7.53171440724 0.0376596119544 0)
(7.35385297623 0.0374230059108 0)
(7.18108584719 0.037371084967 0)
(7.0121965266 0.0375756263606 0)
(6.84562247403 0.0381597133141 0)
(6.67905867246 0.0393929772426 0)
(6.5088930328 0.0421195149571 0)
(6.3180849616 0.0438757246605 0)
(10.0164834523 0.0713669402849 0)
(10.0362672309 0.0696921534418 0)
(10.0232982837 0.0671032864629 0)
(9.99492446462 0.06791450297 0)
(9.96029378164 0.0686870669697 0)
(9.92045258159 0.0691006993198 0)
(9.87553405228 0.0695095254729 0)
(9.82619862426 0.0700314662882 0)
(9.77309424851 0.0706779813771 0)
(9.71658399152 0.0714849445918 0)
(9.65679301005 0.0725249143172 0)
(9.59366864673 0.0738960040481 0)
(9.52696180459 0.0757287341259 0)
(9.45614691055 0.0782209424315 0)
(9.38028092377 0.0817173938674 0)
(9.29768517448 0.0869191108742 0)
(9.20653378681 0.0956071513966 0)
(9.09416860348 0.113974758904 0)
(10.0211662956 0.0581444084605 0)
(10.0530812724 0.0581401497819 0)
(10.0667627759 0.056596215061 0)
(10.0704804571 0.0592806272609 0)
(10.0713691 0.0621136191323 0)
(10.0699554468 0.0644569388695 0)
(10.0656516646 0.0667263870878 0)
(10.0584364161 0.0690908470752 0)
(10.0484491101 0.0715794390631 0)
(10.0356914126 0.0742597138398 0)
(10.0200357768 0.0772579909061 0)
(10.0012762985 0.0807431156063 0)
(9.97911902707 0.0849376454112 0)
(9.95313026164 0.0901710679123 0)
(9.92267810767 0.0969928737419 0)
(9.88687939836 0.106410548811 0)
(9.84543932746 0.12044431428 0)
(9.7936747698 0.141275394646 0)
(10.015930044 0.0477375994324 0)
(10.0429667746 0.055270838986 0)
(10.0584980128 0.0570365656873 0)
(10.0654006947 0.0610853238386 0)
(10.06993007 0.0648759008565 0)
(10.0731457745 0.0678920955211 0)
(10.0745578141 0.0706641335637 0)
(10.0740514193 0.0734902122583 0)
(10.0717046594 0.0764773703171 0)
(10.0674947954 0.0797428965647 0)
(10.0612834822 0.0834573665247 0)
(10.0528739512 0.0878356215854 0)
(10.042025906 0.0931528272503 0)
(10.0284413874 0.0998024324026 0)
(10.0117732632 0.108402074219 0)
(9.99170622527 0.119960108597 0)
(9.96862519397 0.136113953615 0)
(9.94112314337 0.15802558806 0)
(10.0115738357 0.0396894843512 0)
(10.0334453056 0.0512789922812 0)
(10.04822031 0.0543311695177 0)
(10.055456487 0.0581952355179 0)
(10.060142034 0.0620351612433 0)
(10.0636470435 0.065306409738 0)
(10.0656256465 0.0684150454155 0)
(10.0659280407 0.0716755461646 0)
(10.0646222149 0.0752207579526 0)
(10.0617165397 0.0791753512636 0)
(10.0571157789 0.083716436226 0)
(10.0506756333 0.089073835927 0)
(10.0422347502 0.0955454929405 0)
(10.0316257277 0.103546911143 0)
(10.0187149023 0.113689977324 0)
(10.00351632 0.126872280694 0)
(9.9866310893 0.144328804159 0)
(9.96788757181 0.166870622998 0)
(10.0084088237 0.0332796229643 0)
(10.0259071984 0.0470457063564 0)
(10.0394732043 0.0518137770257 0)
(10.0468051614 0.0563206684019 0)
(10.0514686632 0.0608755793838 0)
(10.0549123763 0.0649330602739 0)
(10.0569467808 0.068763464054 0)
(10.0574092193 0.0727058148298 0)
(10.0563490967 0.0769470161497 0)
(10.0537942964 0.0816411470734 0)
(10.0496860266 0.0869838269953 0)
(10.0439259988 0.0932247677971 0)
(10.0364191776 0.10068084325 0)
(10.0271004105 0.109771317639 0)
(10.0159844808 0.121066061311 0)
(10.0032711653 0.13531663918 0)
(9.98962240291 0.153417496196 0)
(9.97532118536 0.175933275513 0)
(10.0060804639 0.0281935724847 0)
(10.0199836301 0.0429136927096 0)
(10.0321272933 0.0492339370509 0)
(10.0393650466 0.0543280449835 0)
(10.0439709832 0.0592964919802 0)
(10.0473149366 0.0638035204067 0)
(10.0493597931 0.0680688884888 0)
(10.049951779 0.0724555008352 0)
(10.0491157366 0.0771986265711 0)
(10.0468875877 0.082476765311 0)
(10.0432395367 0.0884948425492 0)
(10.0381161246 0.0955086927917 0)
(10.0314810942 0.103835096309 0)
(10.023352038 0.113871508467 0)
(10.0138489872 0.126117330099 0)
(10.0032752231 0.141167455027 0)
(9.99228422054 0.159638795348 0)
(9.98126420396 0.181862515913 0)
(10.0044033517 0.0241563114524 0)
(10.0154017244 0.0390214128574 0)
(10.0260553319 0.0465881793342 0)
(10.0330422314 0.0523032659775 0)
(10.0375922862 0.0577091595888 0)
(10.0408774981 0.0627374022865 0)
(10.0429730864 0.0675713985841 0)
(10.0437468047 0.0725519566182 0)
(10.043200751 0.0779315779024 0)
(10.041374393 0.0839021004415 0)
(10.0382698879 0.0906712627823 0)
(10.0338746445 0.0984918267437 0)
(10.0282061654 0.107667146281 0)
(10.0213486045 0.118556830796 0)
(10.0134938368 0.131577589274 0)
(10.0049959072 0.147176698589 0)
(9.99646430105 0.165754936272 0)
(9.98831423779 0.187459507683 0)
(10.0031957546 0.0209380920029 0)
(10.0118843429 0.0354516225337 0)
(10.0210901937 0.0439262978187 0)
(10.0277033304 0.0502491297638 0)
(10.0321830493 0.0560774368304 0)
(10.035438699 0.0615780377168 0)
(10.0376098336 0.0669243671713 0)
(10.0385964001 0.0724277622499 0)
(10.0383879045 0.0783525827655 0)
(10.0370271646 0.0849080038489 0)
(10.0345441386 0.0923067065663 0)
(10.0309660178 0.100793604554 0)
(10.0263560022 0.110648767913 0)
(10.0208473468 0.12218365874 0)
(10.0146744944 0.135729643019 0)
(10.0082041962 0.151604349488 0)
(10.0019784643 0.170045808274 0)
(9.99639518988 0.191071262174 0)
(10.0023308364 0.0183543604539 0)
(10.0092102737 0.0322342101166 0)
(10.0170844077 0.0412889032549 0)
(10.0232446001 0.048153924689 0)
(10.0276352163 0.0543826843076 0)
(10.03089238 0.0603180042673 0)
(10.033175733 0.0661514021997 0)
(10.0344198682 0.0721680688831 0)
(10.0346106272 0.0786333211343 0)
(10.033792808 0.0857644705172 0)
(10.0320183774 0.0937701202457 0)
(10.0293473374 0.102876206328 0)
(10.0258780506 0.113328060985 0)
(10.021775689 0.125381537095 0)
(10.0172931756 0.139285467985 0)
(10.0127848237 0.15524883841 0)
(10.0087165704 0.173390919776 0)
(10.0054826351 0.193646522364 0)
(10.0017112958 0.0162616755849 0)
(10.0071933191 0.0293764246855 0)
(10.0138960089 0.0387292293859 0)
(10.0195722512 0.0460310802345 0)
(10.0238609831 0.0526189524357 0)
(10.0271513674 0.0589398728278 0)
(10.0295879299 0.0652125466383 0)
(10.0311345609 0.0716979066496 0)
(10.0317798737 0.0786502460571 0)
(10.0315700957 0.0862845954241 0)
(10.0305734265 0.0947989939468 0)
(10.0288750977 0.104395409406 0)
(10.0265982965 0.115280955692 0)
(10.0239251653 0.127656947112 0)
(10.0211086389 0.141699863299 0)
(10.0184741717 0.157533500252 0)
(10.0164088205 0.175195088423 0)
(10.0153024509 0.194574236639 0)
(10.001302393 0.0146501961155 0)
(10.0058097306 0.0270158265693 0)
(10.0115996387 0.0364505551981 0)
(10.0168404494 0.0440544143211 0)
(10.0210343766 0.0509284542139 0)
(10.0243858961 0.0575584769685 0)
(10.0270045917 0.0641862912266 0)
(10.0288726625 0.0710540760133 0)
(10.0299845159 0.0784002877195 0)
(10.0303874614 0.0864313213142 0)
(10.030159127 0.095331591613 0)
(10.0293997677 0.105278196284 0)
(10.0282451299 0.1164419304 0)
(10.0268804595 0.12897600226 0)
(10.0255457985 0.142998980661 0)
(10.0245320382 0.158572982006 0)
(10.0241597386 0.175682133931 0)
(10.0248275117 0.194191668006 0)
(10.0010008531 0.0133109567911 0)
(10.0047522155 0.0249153758632 0)
(10.0097777956 0.0342582938537 0)
(10.014616164 0.042044269969 0)
(10.0187205263 0.0491423520996 0)
(10.0221541088 0.0560256702525 0)
(10.0249843327 0.0629487704735 0)
(10.0272041426 0.0701381544693 0)
(10.0288150104 0.0778126727789 0)
(10.0298656486 0.0861639068085 0)
(10.0304391867 0.0953583428865 0)
(10.0306448988 0.105546827136 0)
(10.0306240858 0.116864445822 0)
(10.030557665 0.129421058974 0)
(10.0306665312 0.143287104912 0)
(10.0312040476 0.158478008195 0)
(10.0324265575 0.174941288154 0)
(10.0347454286 0.192527283926 0)
(10.0007553752 0.0119967637439 0)
(10.0038722323 0.0227475679786 0)
(10.0082178014 0.0318428800873 0)
(10.0126768183 0.0397051261227 0)
(10.0167142044 0.0469741787663 0)
(10.0202854192 0.0540732033525 0)
(10.0234102681 0.0612552167251 0)
(10.0260843664 0.0687285966454 0)
(10.0283150392 0.0766870641257 0)
(10.0301508083 0.085299613955 0)
(10.0316754463 0.0947085952888 0)
(10.0329996432 0.105034094113 0)
(10.0342611488 0.116373105785 0)
(10.0356266129 0.128792635619 0)
(10.0372880416 0.142319769517 0)
(10.0394546107 0.156932208311 0)
(10.0423176621 0.172553252295 0)
(10.0463102269 0.189033503557 0)
(10.0005695081 0.0107023676902 0)
(10.0031982009 0.020515457644 0)
(10.0069962499 0.0291868992304 0)
(10.0111456387 0.0369632963292 0)
(10.0151674517 0.0442883720178 0)
(10.0189504685 0.0515100960971 0)
(10.0224700744 0.0588607908229 0)
(10.0257168509 0.0665245844845 0)
(10.0287003728 0.0746645855228 0)
(10.031466342 0.0834198782142 0)
(10.034093098 0.0929026411959 0)
(10.0366839065 0.103198794089 0)
(10.0393631121 0.11436737565 0)
(10.0422735682 0.126436177189 0)
(10.0455708944 0.139396406497 0)
(10.0494162862 0.153198713682 0)
(10.0539380504 0.167752819571 0)
(10.0595966763 0.182916778657 0)
(10.0004452849 0.00939156935759 0)
(10.0027487469 0.0181640627126 0)
(10.0061794968 0.0262121866796 0)
(10.0101499647 0.0336910595698 0)
(10.0142562516 0.0408938689183 0)
(10.0183576313 0.0480821838355 0)
(10.0223951511 0.055448564912 0)
(10.0263487367 0.0631439728562 0)
(10.0302247015 0.0712953395846 0)
(10.0340612296 0.0800061092298 0)
(10.0379243496 0.0893537033579 0)
(10.0419008122 0.0993891375106 0)
(10.0460921243 0.110136386853 0)
(10.0506095513 0.12159089754 0)
(10.0555679231 0.133717864213 0)
(10.0610803007 0.146452069301 0)
(10.0672168828 0.159700398431 0)
(10.0744698582 0.173334900719 0)
(10.0003830028 0.00798518355939 0)
(10.002535031 0.0155587864188 0)
(10.0058202926 0.0227399959326 0)
(10.0098054853 0.0296465922995 0)
(10.014153752 0.0364649372172 0)
(10.018719105 0.0433718258586 0)
(10.0234205871 0.0505068089774 0)
(10.0282249195 0.0579789750243 0)
(10.0331289038 0.0658747383635 0)
(10.0381572704 0.0742587967453 0)
(10.043357037 0.0831728731321 0)
(10.0487906975 0.0926352684492 0)
(10.0545298671 0.102641048259 0)
(10.0606498961 0.113162277502 0)
(10.067224071 0.124148965413 0)
(10.0743210185 0.135530634378 0)
(10.0819606495 0.14722027775 0)
(10.0906690594 0.159109365943 0)
(10.0003816468 0.00634307458621 0)
(10.0025650707 0.0124529306224 0)
(10.0059615814 0.0184492344927 0)
(10.0102117496 0.0244375120875 0)
(10.0150145699 0.0305268628743 0)
(10.0202256781 0.0368158578371 0)
(10.025751368 0.0433845882892 0)
(10.031544821 0.0502943424314 0)
(10.037588225 0.0575886423737 0)
(10.0438876076 0.0652935020402 0)
(10.0504661539 0.0734172139505 0)
(10.0573578778 0.0819504938776 0)
(10.0646018648 0.0908671556146 0)
(10.0722376693 0.100125234447 0)
(10.0803007844 0.109668763155 0)
(10.0888224361 0.119430055888 0)
(10.0977830653 0.129333021491 0)
(10.1077414572 0.139289840961 0)
(10.0004571565 0.00420026082772 0)
(10.002894982 0.00836047381178 0)
(10.0067238493 0.0126934895947 0)
(10.0115628503 0.0172922214039 0)
(10.0170970458 0.0221891246343 0)
(10.023177336 0.0274022650693 0)
(10.0297033408 0.0329489943221 0)
(10.0366162286 0.0388409229828 0)
(10.0438812119 0.0450795060389 0)
(10.051483449 0.0516552725975 0)
(10.0594216314 0.0585486848321 0)
(10.0677019921 0.0657302023223 0)
(10.0763332776 0.0731609990913 0)
(10.085323393 0.0807937329356 0)
(10.0946762065 0.0885744245248 0)
(10.1043930591 0.0964441241353 0)
(10.1144237534 0.104341413301 0)
(10.1253531997 0.112199938638 0)
(10.0006146259 0.00184285814547 0)
(10.0035171352 0.00386645031738 0)
(10.0080584276 0.00638875000607 0)
(10.013708772 0.00946913475951 0)
(10.0200844951 0.0130397506169 0)
(10.0270344565 0.0170344270501 0)
(10.0344679524 0.0214159130963 0)
(10.0423234814 0.0261562304681 0)
(10.0505552834 0.0312244664171 0)
(10.0591355934 0.0365865925336 0)
(10.0680490019 0.0422062807484 0)
(10.077285774 0.048044393589 0)
(10.0868372673 0.0540580191482 0)
(10.0966940047 0.0602011072398 0)
(10.1068436567 0.0664253442605 0)
(10.1172734808 0.0726820469188 0)
(10.1279203834 0.0789232586398 0)
(10.1393771093 0.0851007041643 0)
(10.0008122751 -0.000461880091139 0)
(10.0042967819 -0.000443298140535 0)
(10.0096708009 0.000500023396748 0)
(10.0161625044 0.00232353706267 0)
(10.0233054916 0.00480446740835 0)
(10.0309777135 0.00778948824533 0)
(10.0391207789 0.0112021567837 0)
(10.0476793767 0.0149855703442 0)
(10.0566042999 0.019083943007 0)
(10.0658647553 0.0234463579765 0)
(10.0754415222 0.0280273819335 0)
(10.0853180546 0.0327841716621 0)
(10.0954768817 0.0376735363088 0)
(10.1058993953 0.0426520418768 0)
(10.1165654566 0.0476761074711 0)
(10.1274562364 0.0527033133494 0)
(10.1385039305 0.0576925672751 0)
(10.1503173304 0.0626031116119 0)
(10.0011066976 -0.0029717452731 0)
(10.0054250273 -0.00497106862512 0)
(10.0118675407 -0.00541652789407 0)
(10.0192893732 -0.00462274095959 0)
(10.0271714828 -0.00304966197517 0)
(10.0354848321 -0.000920999871004 0)
(10.0442247283 0.00167105069733 0)
(10.0533412063 0.00464957544112 0)
(10.0627859071 0.00793758647132 0)
(10.0725330171 0.0114732069463 0)
(10.0825665016 0.015207049017 0)
(10.0928682406 0.0190945605688 0)
(10.1034164582 0.0230929407848 0)
(10.114187626 0.0271605907443 0)
(10.1251565848 0.0312581017666 0)
(10.1362993963 0.0353478474834 0)
(10.14754253 0.039395225079 0)
(10.1594898048 0.0433672214869 0)
(10.0015756141 -0.00583220815374 0)
(10.0070952663 -0.00983821214336 0)
(10.0148752459 -0.0113793654629 0)
(10.0232651236 -0.0113449710296 0)
(10.0318155151 -0.0105006536608 0)
(10.0406916789 -0.00909468169852 0)
(10.0499528706 -0.00721745179316 0)
(10.0595468216 -0.00497045079143 0)
(10.0694256779 -0.00244336108753 0)
(10.0795736544 0.000301912220394 0)
(10.0899796191 0.00322117439067 0)
(10.1006245736 0.00627462785816 0)
(10.1114854156 0.00942175875207 0)
(10.1225366016 0.0126258862725 0)
(10.1337515822 0.0158525447381 0)
(10.1451062453 0.0190688253077 0)
(10.1565290761 0.022242748115 0)
(10.1686440172 0.0253424440336 0)
(10.0023008204 -0.00923607125736 0)
(10.0095517306 -0.0151142382094 0)
(10.0189448438 -0.017300572993 0)
(10.0282553572 -0.0177251114911 0)
(10.0373517367 -0.0174145336427 0)
(10.0466840274 -0.0165245774142 0)
(10.0563476482 -0.0151252717219 0)
(10.0662761717 -0.0133526184618 0)
(10.0764400707 -0.0113190207797 0)
(10.0868459132 -0.00908969662166 0)
(10.0974909064 -0.00670746938375 0)
(10.1083544482 -0.00420963699866 0)
(10.1194076705 -0.00162976211277 0)
(10.1306229539 0.000999182265788 0)
(10.1419708688 0.00364622804249 0)
(10.1534218042 0.0062807518402 0)
(10.1648969034 0.00886920145414 0)
(10.1769980068 0.01137782922 0)
(10.0035357305 -0.0134698617258 0)
(10.0132443264 -0.0208263614229 0)
(10.0244602426 -0.0230804734965 0)
(10.0345469708 -0.0237652044944 0)
(10.0440908449 -0.0239725292681 0)
(10.0538632312 -0.0236546346244 0)
(10.0639232308 -0.022855842681 0)
(10.0741718519 -0.0217246349639 0)
(10.0846028013 -0.0203613140799 0)
(10.0952463907 -0.0188148115821 0)
(10.1061071324 -0.0171192483047 0)
(10.1171649278 -0.0153071546658 0)
(10.1283925931 -0.0134080993806 0)
(10.1397624263 -0.0114474868469 0)
(10.1512431252 -0.00944896625459 0)
(10.1628014254 -0.00743908443216 0)
(10.1743545084 -0.00545146469415 0)
(10.1865294621 -0.00353464452907 0)
(10.0053982159 -0.0188921496903 0)
(10.0184847523 -0.026844212367 0)
(10.0315372349 -0.0284586354569 0)
(10.0420692391 -0.0290131018763 0)
(10.0518417586 -0.0292277252407 0)
(10.0618960463 -0.0288889657764 0)
(10.0721986994 -0.028129530746 0)
(10.0826331131 -0.0271353204184 0)
(10.0932248863 -0.0259871533871 0)
(10.1040201468 -0.0247143435739 0)
(10.1150233063 -0.0233427065756 0)
(10.1262129609 -0.021898510109 0)
(10.1375631599 -0.0204014721958 0)
(10.1490466908 -0.0188636285462 0)
(10.1606283111 -0.0172936983607 0)
(10.1722620296 -0.0157039116516 0)
(10.1838389405 -0.0141216674972 0)
(10.1959153516 -0.0126094166379 0)
(10.0085738779 -0.0259946234894 0)
(10.0261451276 -0.0330185117815 0)
(10.0408993476 -0.0341080217494 0)
(10.0517204635 -0.0354354732997 0)
(10.0617757909 -0.0364649448309 0)
(10.0721302994 -0.0367604458873 0)
(10.0826198373 -0.0365747118883 0)
(10.0931574811 -0.0361287297288 0)
(10.1038181368 -0.035491521859 0)
(10.1146610425 -0.0346908340573 0)
(10.1256896042 -0.0337624191795 0)
(10.1368852541 -0.0327423255525 0)
(10.1482288396 -0.0316548604753 0)
(10.159699435 -0.0305110498314 0)
(10.1712644222 -0.0293123105975 0)
(10.1828727326 -0.0280552089411 0)
(10.1943936124 -0.0267461208602 0)
(10.2063364909 -0.0254471826806 0)
(10.0128715573 -0.0352603769405 0)
(10.0356720142 -0.0373763997353 0)
(10.0508703815 -0.0355100079488 0)
(10.0610692969 -0.0359358669277 0)
(10.0707808451 -0.0365943451678 0)
(10.0807197384 -0.036794439996 0)
(10.0905461896 -0.0367555829813 0)
(10.1002272102 -0.0366179463319 0)
(10.1098911068 -0.0363809821334 0)
(10.1196120132 -0.0360327961937 0)
(10.1294015016 -0.0355865371955 0)
(10.1392570797 -0.0350633911948 0)
(10.1491811165 -0.0344768264997 0)
(10.159175113 -0.0338286880267 0)
(10.1692284274 -0.0331079529297 0)
(10.1793067523 -0.0322831049493 0)
(10.1892673062 -0.0312923933399 0)
(10.1993612176 -0.0300370808457 0)
(10.0163648615 -0.0492871721873 0)
(10.0400429607 -0.0507153164086 0)
(10.0464950681 -0.0485381988282 0)
(10.0453267434 -0.0484902789703 0)
(10.0426843205 -0.0484943663436 0)
(10.0391639176 -0.0481160799795 0)
(10.0345685743 -0.0475982429901 0)
(10.0291539539 -0.0470565526259 0)
(10.023282566 -0.0464884331222 0)
(10.0171977482 -0.0458830027818 0)
(10.0110481135 -0.0452467575668 0)
(10.004951288 -0.0445910943518 0)
(9.99901428608 -0.043921531467 0)
(9.9933294718 -0.0432350294581 0)
(9.98797223583 -0.0425170868422 0)
(9.98301000773 -0.041724148569 0)
(9.97846207702 -0.0407419942702 0)
(9.97434796186 -0.0388875912155 0)
(9.85283337859 -0.0291965034676 0)
(9.72385952476 -0.0314993537202 0)
(9.57991994582 -0.0315594378142 0)
(9.4374816617 -0.0321082552977 0)
(9.30294420934 -0.0323731448834 0)
(9.17586860947 -0.032291609069 0)
(9.05531667197 -0.0320315169745 0)
(8.94100962539 -0.0316812137443 0)
(8.8328241136 -0.0312681100615 0)
(8.73053574174 -0.0308076314956 0)
(8.63385693467 -0.0303160406161 0)
(8.54250861211 -0.0298074951784 0)
(8.45623855458 -0.0292909807157 0)
(8.37481145029 -0.0287702059474 0)
(8.29800530721 -0.0282428265058 0)
(8.22562580971 -0.0276901334928 0)
(8.15774854152 -0.0270457384076 0)
(8.09279382283 -0.0256570246353 0)
(0.0275287777383 -0.117904810807 1.60813528019e-19)
(0.0631561369244 -0.114904816792 0)
(0.0958226670774 -0.119266784536 0)
(0.0843636634825 -0.0751117789438 0)
(0.00878055594973 0.0589094891292 0)
(-0.142608912335 0.158987691241 -9.69899014844e-20)
(-0.269751719891 0.170898862 0)
(-0.408745336846 0.176404444747 0)
(-0.556406924739 0.181565608394 3.50444925693e-20)
(-0.711507421029 0.186079747121 0)
(-0.873157328547 0.189819721222 -2.53877136127e-20)
(-1.04058324014 0.192802877762 0)
(-1.21309033179 0.195088538676 -2.09151456392e-20)
(-1.39005074465 0.196744879783 -1.96258730418e-20)
(-1.57089353553 0.197837309582 0)
(-1.75509800062 0.198425551389 1.81272121255e-20)
(-1.94218741746 0.198562227242 1.77442978967e-20)
(-2.13172329679 0.198293546286 1.75316721539e-20)
(-2.32330074201 0.197659000204 0)
(-2.51654322918 0.196692530247 0)
(-2.71109816903 0.195422188717 0)
(-2.90663181709 0.193871215835 0)
(-3.10282519853 0.19205766313 0)
(-3.29936922704 0.189995572477 0)
(-3.49596056525 0.187694492615 -1.85996678561e-20)
(-3.69229720638 0.185160739531 -1.8944172202e-20)
(-3.88807450846 0.182397088649 0)
(-4.08298138709 0.179404093246 1.96973852978e-20)
(-4.27669735828 0.176179845773 2.00967123434e-20)
(-4.46888988919 0.1727214549 2.05059482099e-20)
(-4.659212491 0.169024993198 0)
(-4.84730355873 0.165087038011 0)
(-5.03278652294 0.160904615906 -2.17614770781e-20)
(-5.21527083376 0.156476818357 0)
(-5.3943540123 0.151804787567 0)
(-5.569624735 0.146893175081 -2.30040753794e-20)
(-5.74066739442 0.141749913877 0)
(-5.90706735007 0.13638755034 0)
(-6.06841716989 0.130822712243 0)
(-6.22432351037 0.125077040263 0)
(-6.37441435502 0.119176199963 0)
(-6.51834615842 0.113150297219 5.0468667464e-20)
(-6.65581053893 0.107032402868 0)
(-6.78654025956 0.100858548351 0)
(-6.91031419349 0.0946658558726 5.22868163403e-20)
(-7.02696091795 0.0884920978315 5.28184683873e-20)
(-7.13636072338 0.0823735227697 0)
(-7.23844584137 0.0763444182154 0)
(-7.33319873258 0.0704351664682 5.41741512817e-20)
(-7.42064859617 0.064672028678 0)
(-7.50086579539 0.059075589407 -5.48713462499e-20)
(-7.57395472902 0.0536612005408 0)
(-7.64004578757 0.0484382229719 5.53982647663e-20)
(-7.69928735945 0.043411120416 0)
(-7.75183900629 0.0385788164231 5.57504717843e-20)
(-7.79786505754 0.033935682619 5.58594122763e-20)
(-7.83753010789 0.0294709853342 0)
(-7.87099459982 0.0251708201891 0)
(-7.89840970208 0.0210185444724 0)
(-7.91991381804 0.0169976720234 5.58294895844e-20)
(-7.93563025573 0.0130959987758 0)
(-7.94567847131 0.00931341064161 0)
(-7.95020230381 0.0056708397697 0)
(-7.94941663254 0.00220216073761 0)
(-7.94359003371 -0.00105886719412 0)
(-7.93302133169 -0.00407078828073 0)
(-7.91804368143 -0.00680122258161 0)
(-7.89902163469 -0.0092384117281 -5.32359186663e-20)
(-7.87633860404 -0.0113818945701 0)
(-7.85038496827 -0.0132393918225 -5.21482336872e-20)
(-7.82154832804 -0.0148275833486 -5.1556644731e-20)
(-7.79020235506 -0.016169618038 0)
(-7.75669507509 -0.017296269961 5.0292957244e-20)
(-7.72133652936 -0.0182429881801 0)
(-7.68438728848 -0.0190509058246 -4.89394514243e-20)
(-7.6460479505 -0.0197635753186 0)
(-7.60645104195 -0.0204287178248 4.75112328724e-20)
(-7.56565513987 -0.0210951494244 -4.67710749703e-20)
(-7.52363979628 -0.0218152114336 0)
(-7.4802993095 -0.0226433647704 0)
(-7.43543281666 -0.0236416178177 0)
(-7.3887248751 -0.0248793626116 0)
(-7.33971094931 -0.0264396017314 -4.27343254303e-20)
(-7.28772417423 -0.0284190155387 4.18155780972e-20)
(-7.23183129553 -0.0309337421475 -8.16559943815e-20)
(-7.17076888524 -0.0341130093461 -7.94928850451e-20)
(-7.1028950776 -0.038095198147 -7.70762731821e-20)
(-7.02617189113 -0.0430098682112 0)
(-6.9381934749 -0.0489641882133 0)
(-6.83628237267 -0.0560173476287 0)
(-6.71764312189 -0.0641639017279 -6.30415502292e-20)
(-6.5795801047 -0.0733243529517 0)
(-6.41972621546 -0.0833447983119 0)
(-6.23625510532 -0.0940087970576 -4.48693391665e-20)
(-6.02805938581 -0.105061348699 0)
(-5.79487844621 -0.116230136979 2.75876511228e-20)
(-5.53736229786 -0.127237095417 0)
(-5.25704525402 -0.137796094571 -5.45322711418e-21)
(-4.95624098646 -0.147614868914 0)
(-4.63786351015 -0.156377970482 0)
(-4.30526129822 -0.16370782178 0)
(-3.96201236532 -0.169160814667 5.62923543793e-20)
(-3.61178276105 -0.172318112333 0)
(-3.25811645233 -0.172926325201 9.90814326941e-20)
(-2.90438666958 -0.171053692922 1.24954651895e-19)
(-2.55394711332 -0.167114417211 0)
(-2.2099892023 -0.161819205514 0)
(-1.87557422474 -0.156289944805 0)
(-1.55373846113 -0.151594981214 2.86515158778e-19)
(-1.24717811449 -0.149217517502 0)
(-0.955995859062 -0.148756481258 0)
(-0.677475911817 -0.151386053249 5.77698657609e-19)
(-0.411727427906 -0.159406005857 7.74361440458e-19)
(-0.147490452788 -0.175053827714 0)
(0.0875253938741 -0.200029118968 -1.68416550557e-18)
(0.365472836195 -0.211660714169 -1.88328567195e-18)
(0.535098433787 -0.188338196917 1.21176685956e-18)
(0.686224000345 -0.158345333451 0)
(0.839736416883 -0.131768503617 0)
(0.990076932253 -0.110028647315 0)
(1.13242510243 -0.0923506108028 -5.09179351387e-19)
(1.26466337472 -0.0778392196443 0)
(1.38594846938 -0.0657828318808 -4.21073989899e-19)
(1.49609723331 -0.0556265975552 0)
(1.5952961519 -0.0469713329328 0)
(1.6839317155 -0.0395055983233 0)
(1.7625041342 -0.0330099063679 3.33895275576e-19)
(1.83155849786 -0.0273068314977 3.21214695878e-19)
(1.89166103235 -0.0222743397255 0)
(1.94337023673 -0.017808753816 0)
(1.98723667671 -0.0138425693366 0)
(2.02378517124 -0.0103173148433 0)
(2.05351827159 -0.00719979736328 0)
(2.07690986663 -0.0044487475088 0)
(2.09443235672 -0.00203529761982 5.56258167425e-19)
(2.10656806871 5.65388360783e-05 0)
(2.11386722724 0.00180479166525 0)
(2.11750952094 0.0032088508116 0)
(2.1179365506 0.00433899672475 -5.45093139674e-19)
(2.11538735897 0.00527387570589 -5.4434735675e-19)
(2.11010335346 0.00605794235927 5.44457225594e-19)
(2.10232474826 0.00671434517522 5.45359113052e-19)
(2.09229444302 0.00725818613674 0)
(2.08024406966 0.00770320618976 0)
(2.06638852537 0.00806057314557 0)
(2.05092613891 0.00834099169261 5.55628665335e-19)
(2.03403994022 0.0085530436024 0)
(2.01589843171 0.00870520144274 0)
(1.99665687338 0.00880401058696 -5.69029284358e-19)
(1.97645761466 0.00885563768696 0)
(1.95543131824 0.00886501641411 -5.80168009754e-19)
(1.93369861713 0.00883753330145 0)
(1.91137118478 0.00877743504033 -5.92836649307e-19)
(1.88855222432 0.008688640796 0)
(1.86533697944 0.00857398697122 0)
(1.84181297368 0.00843683525821 0)
(1.81806128795 0.00828065303469 0)
(1.79415798726 0.00810847216017 0)
(1.77017320367 0.00792103769244 0)
(1.74616962915 0.0077201662971 0)
(1.72220450252 0.00750916132569 0)
(1.69833181718 0.00729154925386 -6.64696766408e-19)
(1.67459927732 0.00706827006074 0)
(1.65104605356 0.00684093952781 0)
(1.62770441716 0.00661188377484 -6.9269913258e-19)
(1.60459986304 0.00638383659367 0)
(1.58174820361 0.00615850523954 0)
(1.55915080244 0.00593960182817 -7.22169961086e-19)
(1.536793023 0.00573384080054 0)
(1.51464171911 0.005547707445 0)
(1.49263615485 0.00538636620473 -7.53160357849e-19)
(1.47067516154 0.00525982103943 7.63960363815e-19)
(1.44860365742 0.00518530569533 -7.75118262712e-19)
(1.42619270895 0.00518866587666 0)
(1.40309899491 0.00530526795246 0)
(1.3787906125 0.0055919601913 -1.62515232826e-18)
(1.35245181845 0.0061477835479 0)
(1.32242283095 0.00719866761346 1.69039855023e-18)
(1.28910378211 0.00901967132887 1.73423165876e-18)
(1.20755203536 0.016231960488 0)
(-0.0172853524105 -0.117206558946 -4.93263802897e-19)
(-0.0823289806537 0.0177731711143 0)
(-0.19001213892 0.161759181985 1.53672965763e-19)
(-0.290506168249 0.238998045352 -9.98185992293e-20)
(-0.394153925564 0.304383218451 -7.37183507603e-20)
(-0.507421937517 0.357067622628 2.97438196574e-20)
(-0.629091502689 0.391068374533 5.12917835766e-20)
(-0.763338781821 0.417517001728 0)
(-0.908087758539 0.439175770375 -1.9715003543e-20)
(-1.06130029187 0.457126685065 3.65456817886e-20)
(-1.22152475616 0.472034372946 5.05400786725e-20)
(-1.3876775761 0.484361118111 -3.20411631308e-20)
(-1.55888816107 0.494452377935 4.56949813956e-20)
(-1.7344256663 0.502581499551 1.45400708008e-20)
(-1.9136584708 0.508972869675 0)
(-2.09603033625 0.513815798042 -1.41400379247e-20)
(-2.28104474619 0.517271731483 -1.41257402184e-20)
(-2.46825371836 0.519479633153 -1.42053495704e-20)
(-2.65724943434 0.520558303077 2.94206719278e-20)
(-2.84765703077 0.520609102178 0)
(-3.03912861753 0.519716588321 3.03855431314e-20)
(-3.23133724668 0.517950299449 0)
(-3.4239716546 0.515364786566 -3.1702123574e-20)
(-3.61673106522 0.51200130657 0)
(-3.80932027043 0.507887813419 4.95774709058e-20)
(-4.00144468197 0.503040813921 -1.7358182956e-20)
(-4.19280583073 0.497465695643 -3.49790793953e-20)
(-4.38309730054 0.49115895144 -5.35243048119e-20)
(-4.57200116639 0.484108941593 -1.8109203013e-20)
(-4.75918495352 0.476298678649 -1.85806067853e-20)
(-4.94429936899 0.467707144765 0)
(-5.12697711144 0.458312525483 -3.96223321679e-20)
(-5.306832725 0.44809390019 2.00097192537e-20)
(-5.48346357064 0.437034861299 0)
(-5.65645210055 0.425125362827 0)
(-5.82536945693 0.412365201984 2.14184786568e-20)
(-5.98978036167 0.398765500039 0)
(-6.14924916678 0.384351716579 0)
(-6.3033470537 0.369164242532 0)
(-6.45166005689 0.353260216394 0)
(-6.59379745223 0.336712587451 0)
(-6.72940014689 0.319610201336 4.89502443776e-20)
(-6.85814831343 0.302055134339 9.84540233636e-20)
(-6.97976866763 0.284161151756 0)
(-7.09403993897 0.266049419068 5.10738017843e-20)
(-7.2007970177 0.24784544412 -5.08580943449e-20)
(-7.29993295827 0.229673655367 0)
(-7.39139818919 0.211653982916 0)
(-7.47519991993 0.193896650021 -1.58618186429e-19)
(-7.55139501626 0.176499154401 -1.06979908772e-19)
(-7.62008359281 0.159542414947 5.3595952353e-20)
(-7.68140017809 0.143090179779 1.08697776423e-19)
(-7.73550132774 0.127187672177 5.50287606706e-20)
(-7.78256676776 0.111862871886 0)
(-7.82277832144 0.0971259486797 -1.6566508045e-19)
(-7.8563188173 0.0829717400895 -5.52773424979e-20)
(-7.88336604433 0.0693824668737 0)
(-7.90407300009 0.0563327690844 1.1176719241e-19)
(-7.91861530495 0.0437929027109 -1.11957658624e-19)
(-7.92711346015 0.0317378538678 -5.57906726989e-20)
(-7.9296568817 0.0201640959735 0)
(-7.9263092637 0.00912103510482 0)
(-7.9178987245 -0.00130270584676 0)
(-7.90468104247 -0.0110504358519 1.10776835953e-19)
(-7.88683434005 -0.0200667880077 0)
(-7.86458557679 -0.0282945582001 -1.09370824338e-19)
(-7.83823691808 -0.035708466097 0)
(-7.8081274297 -0.042296968709 -5.39338971902e-20)
(-7.77460102211 -0.0480653226429 0)
(-7.73800686349 -0.0530361107911 -5.28847155366e-20)
(-7.69869058024 -0.0572524040728 -5.23160427559e-20)
(-7.65698421888 -0.0607747699173 0)
(-7.61319553172 -0.063681968965 -5.09857021841e-20)
(-7.56759737436 -0.0660656696816 0)