/*--------------------------------*- C++ -*----------------------------------*\
| =========                 |                                                 |
| \\      /  F ield         | OpenFOAM: The Open Source CFD Toolbox           |
|  \\    /   O peration     | Version:  v1806                                 |
|   \\  /    A nd           | Web:      www.OpenFOAM.com                      |
|    \\/     M anipulation  |                                                 |
\*---------------------------------------------------------------------------*/
FoamFile
{
    version     2.0;
    format      ascii;
    class       volScalarField;
    location    "6";
    object      p;
}
// * * * * * * * * * * * * * * * * * * * * * * * * * * * * * * * * * * * * * //

dimensions      [0 2 -2 0 0 0 0];


internalField   nonuniform List<scalar> 
12225
(
-1.66606184518
-2.3543558035
-2.66967070141
-2.78973876534
-2.84863982014
-2.89579437807
-2.9431572126
-2.98982878055
-3.03188400879
-3.0657402637
-3.08893048884
-3.09989376261
-3.09753967398
-3.08077067773
-3.04802869658
-2.99682553242
-2.92234683683
-2.8180980403
-1.82979300919
-2.37985216659
-2.67511825307
-2.79395840801
-2.85339365207
-2.90082961415
-2.94809253974
-2.99444513019
-3.03613164141
-3.06968469938
-3.09269976725
-3.10364739918
-3.1014563595
-3.08505984389
-3.05298173752
-3.00300903322
-2.93205863113
-2.85178158985
-1.96906027766
-2.38290083917
-2.65753500301
-2.78280234098
-2.84907826698
-2.90068642849
-2.95003286084
-2.99724966228
-3.03924744965
-3.07298824694
-3.09631924813
-3.10786358898
-3.10666676779
-3.09181299827
-3.06211899876
-3.01604631295
-2.95196503089
-2.87724659078
-2.09077508881
-2.40232486159
-2.65442222501
-2.78539129537
-2.85795485652
-2.91245935768
-2.96228202543
-3.00882058297
-3.04986349869
-3.08288079757
-3.1059787402
-3.11791412406
-3.11783432218
-3.10498305592
-3.07850002514
-3.0374492047
-2.9810924813
-2.91324097347
-2.19917565098
-2.4335336881
-2.65775740819
-2.78888826688
-2.8649703579
-2.92087429876
-2.97038976486
-3.01598402767
-3.05619290729
-3.08888816301
-3.11235593905
-3.12543676659
-3.12736013389
-3.11753273714
-3.09541744119
-3.06060729318
-3.01305951761
-2.95514041594
-2.2961648147
-2.47254658881
-2.66731066039
-2.79489828512
-2.87336065203
-2.930841474
-2.98066585596
-3.02603963924
-3.06612435555
-3.09915697028
-3.12360810586
-3.13842942625
-3.14297047874
-3.13683797171
-3.11982978374
-3.09202940458
-3.05402819992
-3.00814705323
-2.38346908502
-2.5167268524
-2.68300528913
-2.80413945278
-2.88355289923
-2.94228454345
-2.99244702818
-3.03768515797
-3.07771568043
-3.1111507759
-3.13668238176
-3.15341247793
-3.16084456634
-3.15880153908
-3.1473993131
-3.1271444693
-3.09913425393
-3.06585399439
-2.46260909614
-2.56403803707
-2.70427913924
-2.81689947543
-2.89579259528
-2.95531824799
-3.00583222491
-3.05111113376
-3.09132975652
-3.12546295146
-3.15243876997
-3.17152610441
-3.18239092256
-3.18506117551
-3.17992580051
-3.16782070612
-3.15019028252
-3.12958385181
-2.53487470875
-2.6129466884
-2.73035441106
-2.83329337532
-2.91034309771
-2.97014546389
-3.02099042128
-3.06649118877
-3.10715416414
-3.14228365188
-3.17104349373
-3.19287677501
-3.20760986134
-3.21545434623
-3.21701592847
-3.21335951752
-3.20611795358
-3.19771374669
-2.60134557435
-2.66234481388
-2.76037093645
-2.85326689241
-2.9274153027
-2.98696661957
-3.03808299136
-3.08397269132
-3.12533926326
-3.16176861014
-3.19265097842
-3.21760168662
-3.2365976312
-3.25000189057
-3.25857380142
-3.26350585006
-3.26647931879
-3.26966301371
-2.66288782426
-2.71142707598
-2.79342330246
-2.8765633835
-2.94709498031
-3.00593201042
-3.05725265347
-3.1036952795
-3.1460318086
-3.1840698943
-3.21740557131
-3.24581476213
-3.26940561105
-3.28865279682
-3.30440405059
-3.31788785865
-3.33072723038
-3.34474110813
-2.71547688685
-2.75571980537
-2.82579967255
-2.90063940161
-2.96748869659
-3.02533008702
-3.07677688925
-3.123867637
-3.16733107267
-3.20711737864
-3.24298065615
-3.274824768
-3.30285197631
-3.32760316443
-3.34994887471
-3.37108590835
-3.39251727888
-3.41574089853
-2.76469691274
-2.79869548261
-2.85906902453
-2.9264684793
-2.98960845294
-3.04627833794
-3.09781411306
-3.14565610999
-3.19042378618
-3.23215623151
-3.27073312326
-3.30616231773
-3.33871801008
-3.368966849
-3.39777107963
-3.42624340613
-3.45574148685
-3.48741695749
-2.8173053141
-2.84609655965
-2.89782048665
-2.95798868039
-3.01713679853
-3.07239788308
-3.1240349575
-3.17287018778
-3.21934812367
-3.26354796202
-3.30544886794
-3.34514027718
-3.38293908782
-3.41940898314
-3.45534550025
-3.49173630767
-3.52972517784
-3.5701111121
-2.87253794994
-2.89724657276
-2.94176155979
-2.99541706586
-3.05065010948
-3.10444344164
-3.15627793719
-3.2064159303
-3.25507589568
-3.3023264283
-3.34819041793
-3.39281219776
-3.43649973028
-3.47977385193
-3.52330823071
-3.56791814213
-3.61450320511
-3.66348785632
-2.92911222334
-2.950865031
-2.98989060376
-3.03828734321
-3.09020453699
-3.14282073724
-3.19515933611
-3.24702974371
-3.29842494865
-3.34933338577
-3.39978987088
-3.44991087322
-3.4999768937
-3.55038517227
-3.60167475026
-3.65442554328
-3.70930802436
-3.76636912351
-2.98478770632
-3.00467876208
-3.04013584635
-3.08504445706
-3.1348482916
-3.18706475888
-3.24051193881
-3.29470349822
-3.34942619264
-3.40457303859
-3.46011220502
-3.51610849283
-3.57273040077
-3.6302477902
-3.68899666341
-3.74935314581
-3.81172215629
-3.87586501482
-3.03547996538
-3.05459617953
-3.0886064301
-3.13230921971
-3.18186436639
-3.23504459104
-3.29060909824
-3.34791730213
-3.40661368347
-3.46648881517
-3.52741647437
-3.58936085991
-3.65235553499
-3.71651532181
-3.78198679628
-3.84895256804
-3.9176108473
-3.98749932475
-3.07347055489
-3.09312274038
-3.12833950001
-3.17387880251
-3.2258611686
-3.282060218
-3.34123953473
-3.40274259882
-3.46616238251
-3.53121157859
-3.59765611497
-3.66533609509
-3.73413747984
-3.8040225984
-3.87496945331
-3.94700069039
-4.02015091493
-4.09379479297
-3.08089842195
-3.10275690382
-3.14244768318
-3.19330328109
-3.25039611675
-3.31124599954
-3.37476730973
-3.44054686212
-3.50827341276
-3.57768583878
-3.64845787228
-3.72036260621
-3.79316131012
-3.86675244126
-3.9410005403
-4.01588224753
-4.09134015384
-4.16671508059
-3.06705049725
-3.09225583998
-3.13852214009
-3.19652187375
-3.25966828404
-3.32528061943
-3.39276168626
-3.4621014356
-3.53324625364
-3.6059257941
-3.67982390036
-3.75459363574
-3.83000253486
-3.90584031279
-3.98201531398
-4.05841108461
-4.13504117327
-4.21116303541
-3.03673367893
-3.06745028299
-3.12357559178
-3.1910267632
-3.26106129384
-3.3313923394
-3.40244196596
-3.4749064995
-3.54897094481
-3.62440866058
-3.70082198478
-3.77782395227
-3.85512009087
-3.93250122481
-4.00984700967
-4.0870651808
-4.16414595816
-4.24038646099
-2.99239066537
-3.03201631562
-3.10223549642
-3.18118847421
-3.25818887701
-3.33259295631
-3.40656526277
-3.4816427389
-3.55821784456
-3.63601547728
-3.71454343523
-3.79336641744
-3.87214726202
-3.95070645015
-4.02889810229
-4.10668636757
-4.18403563538
-4.26032333455
-2.93524283135
-2.98926370781
-3.07882204655
-3.17061411173
-3.25372271467
-3.33108473024
-3.40721693208
-3.48443057505
-3.56315137093
-3.64294644561
-3.72319698974
-3.80339464263
-3.88320986125
-3.96245092619
-4.04102604845
-4.11886033205
-4.19594265037
-4.27157083551
-2.86549936383
-2.94261916626
-3.05728474191
-3.16184302149
-3.24921462003
-3.32816246718
-3.40576350313
-3.48481223766
-3.56555158289
-3.64730229277
-3.72929517811
-3.81096297289
-3.89197750353
-3.97217149753
-4.05146036769
-4.12976620106
-4.20705495132
-4.28262705279
-2.78254705787
-2.89609218477
-3.04099965306
-3.15626973908
-3.24529832705
-3.32431250929
-3.40248662002
-3.4826117309
-3.56454880581
-3.64734417318
-3.73011230027
-3.81228910786
-3.89360437871
-3.97395449657
-4.05329418168
-4.13152941349
-4.20847385727
-4.28307446158
-2.68516887171
-2.85455755428
-3.0322415874
-3.1543550368
-3.24304692297
-3.32217026751
-3.40183743772
-3.48416565424
-3.56833978545
-3.65301750818
-3.7371775434
-3.82026479106
-3.90212344138
-3.98275949699
-4.06223974652
-4.14054380711
-4.21743534273
-4.29157034386
-2.5718897458
-2.82407909944
-3.03072371972
-3.15129489266
-3.23446724603
-3.31070874603
-3.39011261055
-3.4737023184
-3.55974864138
-3.64634374059
-3.73217547626
-3.81661242547
-3.89950961095
-3.9809583065
-4.06113839834
-4.14016639296
-4.21783510813
-4.29219773247
-2.44041893719
-2.8155402421
-3.05075696903
-3.16798536922
-3.24460090029
-3.31629564191
-3.39327186803
-3.47587752759
-3.56174783609
-3.64852986909
-3.7346555102
-3.8193707737
-3.90249334201
-3.98414245638
-4.06459280886
-4.14419549808
-4.2232736498
-4.30097097416
-2.27860887002
-2.7830550061
-3.04313473606
-3.16346541208
-3.24015805388
-3.31178297315
-3.38897332142
-3.47203236268
-3.55846198688
-3.64579866186
-3.73241488742
-3.81753384187
-3.90097340416
-3.98287941141
-4.06358011905
-4.143571142
-4.22363490598
-4.30814255575
-1.9518414286
-1.95421649097
-1.95919284365
-1.97083223635
-1.99334034046
-2.02977891499
-2.0820157197
-2.15147410455
-2.23915879411
-2.34571050573
-2.47143443176
-2.61637764004
-2.78033906859
-2.96295080621
-3.16367665991
-3.38189499413
-3.61688509396
-3.86790972859
-4.13418672527
-4.41496921346
-4.70950599469
-5.01711922705
-5.33715036005
-5.66903683611
-6.01224853348
-6.36636262798
-6.73099118944
-7.10585507438
-7.4906983994
-7.8853622373
-8.28969042177
-8.70360229705
-9.12698120766
-9.55974695535
-10.0017352143
-10.4527665762
-10.912506468
-11.3805370092
-11.8562005218
-12.3386678544
-12.8267715627
-13.3190819079
-13.8137374295
-14.308517201
-14.8006686521
-15.286995754
-15.7637487298
-16.226795199
-16.6715174083
-17.0928779769
-17.485278992
-17.8427549064
-18.1590400609
-18.4278075678
-18.6427921487
-18.7979253811
-18.8870920188
-18.9038024986
-18.8408358255
-18.6901984425
-18.4434979945
-18.0928229736
-17.6314004653
-17.0535629731
-16.3545990725
-15.5311326668
-14.5817283387
-13.507539442
-12.3129414475
-11.0059630659
-9.59849586019
-8.10610555181
-6.54755443258
-4.94395886433
-3.31780259606
-1.69175059476
-0.0876053406358
1.47466367586
2.97762758143
4.40698751482
5.75169301799
7.00398621118
8.1593803617
9.21642852932
10.175723689
11.0395208531
11.8123521815
12.5006427436
13.1104170444
13.6469229523
14.1167557797
14.5280944936
14.8879276951
15.2005354769
15.4702289979
15.7024898807
15.9022138354
16.0741191011
16.2213211612
16.3451492155
16.4481287418
16.5348596622
16.6076539729
16.6662403343
16.7119951418
16.7484305604
16.7766624716
16.7941721591
16.8005031619
16.7996841658
16.7946201423
16.78673021
16.77672035
16.7650523118
16.7521081913
16.7382521563
16.7238227418
16.7091409202
16.6944897616
16.6801225149
16.6662461363
16.6530385173
16.6406423167
16.6291829131
16.6187514321
16.6094211186
16.601231411
16.5942148726
16.5883810869
16.5837396292
16.5802782586
16.5779843459
16.5768232308
16.576761282
16.577745444
16.5797264815
16.5826391623
16.5864243641
16.5910111869
16.5963336578
16.6023139241
16.6088762338
16.6159414942
16.6234365479
16.6312878068
16.6394233454
16.647766288
16.6562467
16.6647980264
16.6733552067
16.6818550681
16.6902458609
16.6984792624
16.7065121882
16.7143006958
16.7218059826
16.7289903432
16.7358224994
16.7422731595
16.7483234682
16.7539607907
16.7591846893
16.764001722
16.7684308475
16.7725105829
16.7763021669
16.7798825319
16.7833779352
16.7869823357
16.7909937103
16.7958614729
16.8022701961
16.8110488615
16.8231544555
16.8398669763
16.863070698
16.8955073925
16.9410224039
17.006390233
17.0773390981
-1.92394093508
-1.93623005556
-1.94887082021
-1.96297303169
-1.98679384203
-2.02455102897
-2.07839386586
-2.14982978306
-2.23981342311
-2.34890383572
-2.47732009625
-2.62501984086
-2.79172518794
-2.97699494656
-3.18023800963
-3.40078196249
-3.63787531675
-3.89075166516
-4.15862025707
-4.44072429051
-4.73632121188
-5.04473676331
-5.36533551331
-5.69756903202
-6.04093951725
-6.39504678697
-6.75954440209
-7.13418097001
-7.51874884634
-7.91312422489
-8.31720725724
-8.73095572827
-9.15431605241
-9.58725259452
-10.0296680186
-10.4814253973
-10.9422582954
-11.4117880443
-11.8894196882
-12.374349245
-12.8654595958
-13.361335018
-13.8601548631
-14.3596932287
-14.857194285
-15.3493773139
-15.8324512296
-16.3022510156
-16.7541751842
-17.1830727063
-17.5832113309
-17.9484589217
-18.272425822
-18.5487254472
-18.7712606019
-18.9342726324
-19.0319053072
-19.0576186932
-19.0037723096
-18.8616734249
-18.622470759
-18.2785964713
-17.8239854441
-17.2531875945
-16.5612256884
-15.744216822
-14.8000781323
-13.7292844483
-12.5355963807
-11.2266059959
-9.81400950873
-8.31347062567
-6.74408896261
-5.127528336
-3.48694451679
-1.84573027359
-0.22632320551
1.35074668723
2.86758867231
4.30963125415
5.66580775166
6.92824519997
8.09229212377
9.15675727429
10.1228476143
10.9928415518
11.7708343194
12.4635130058
13.0777595861
13.6187485115
14.0921731141
14.5059852778
14.8677074784
15.1813551492
15.4511882811
15.6836484819
15.8839227101
16.0556830671
16.2034799887
16.3285528847
16.4322016486
16.5204583219
16.5959096289
16.6569883553
16.7044979571
16.7415461338
16.7695945542
16.7873385593
16.7947859634
16.7949641852
16.7905691344
16.7831102023
16.7733956584
16.7619437987
16.7491744561
16.735464604
16.7211660838
16.706599763
16.6920554336
16.6777833458
16.6639950206
16.6508659591
16.6385437874
16.6271506903
16.6167827878
16.6075081865
16.5993713204
16.5924001351
16.5866095387
16.5820045391
16.5785778559
16.5763122704
16.5751778171
16.5751365457
16.5761399138
16.578134818
16.5810602936
16.5848540426
16.5894489438
16.5947763053
16.6007607586
16.607325452
16.6143928304
16.6218897762
16.6297438188
16.6378821403
16.6462303382
16.6547151775
16.6632657685
16.671819749
16.6803198918
16.6887152961
16.6969575946
16.7050020545
16.7128044248
16.7203248862
16.7275267853
16.7343791229
16.7408524442
16.7469262419
16.7525870484
16.7578324096
16.7626676795
16.7671137606
16.7712044823
16.7749974417
16.7785790288
16.782084311
16.785718404
16.7897981053
16.794785597
16.8012860592
16.8100430767
16.8219895036
16.8383468759
16.86094382
16.892465374
16.9366236459
16.9996855979
17.0697108667
-1.90516116596
-1.92196117846
-1.9478130167
-1.98100875621
-2.02382917515
-2.07854298769
-2.14733278509
-2.23189009657
-2.33335069021
-2.45241599442
-2.58941047422
-2.74437334333
-2.91709712841
-3.10720654386
-3.31417808155
-3.53740935357
-3.77622409401
-4.02993366971
-4.29782995383
-4.57923961188
-4.87350674975
-5.18004207236
-5.49829729698
-5.82780892064
-6.16816689741
-6.51905547697
-6.88021576574
-7.25148250418
-7.63273946174
-8.02395250286
-8.42511720959
-8.8362855878
-9.25750406395
-9.68883257321
-10.1302714983
-10.5817721002
-11.043154997
-11.5141132644
-11.9941157892
-12.482399626
-12.9778807972
-13.4791569866
-13.9844141718
-14.4914038256
-14.9973056827
-15.4987077006
-15.9917016117
-16.4720458807
-16.935099779
-17.3755194375
-17.7873385047
-18.1641790212
-18.4994294448
-18.7866863632
-19.0200999513
-19.1941607663
-19.3029339596
-19.3395405819
-19.2958946874
-19.1632695974
-18.9336050039
-18.6000686697
-18.156534397
-17.5970595337
-16.9159878532
-16.1084607491
-15.171212553
-14.1035066063
-12.9080515989
-11.5917295465
-10.1660311542
-8.64699972273
-7.05460959877
-5.41173240917
-3.74293528513
-2.07306711904
-0.425779245119
1.17751646339
2.71819458977
4.18123260272
5.55569040409
6.83393503284
8.01114743299
9.08621244436
10.0613402722
10.9393148396
11.7234031493
12.4200021625
13.0369289443
13.5795849337
14.0533392647
14.466378728
14.8273969849
15.1411587477
15.4120545957
15.6463750783
15.848225342
16.0215356142
16.1724969833
16.3019120933
16.4100038309
16.5011483863
16.5775707341
16.6393418635
16.6879518944
16.7256931884
16.7537843403
16.772037094
16.7809654515
16.7826979177
16.7794884172
16.77287172
16.7637868299
16.7528456018
16.7405243016
16.7272236386
16.7133098229
16.6991060337
16.6849057464
16.670956601
16.6574733255
16.644629534
16.632577619
16.6214372484
16.6113081567
16.6022541123
16.5943239929
16.5875424161
16.5819294226
16.5774862888
16.574210469
16.5720806562
16.5710716251
16.5711415545
16.5722467755
16.5743308232
16.5773375708
16.5812024991
16.5858620903
16.5912458633
16.5972810409
16.6038903923
16.6109985529
16.618532613
16.626420971
16.6345903508
16.642967297
16.6514797
16.6600605294
16.6686493115
16.6771900832
16.6856302556
16.6939203224
16.7020139278
16.7098669715
16.7174385342
16.7246897566
16.7315869761
16.7381023453
16.7442141784
16.7499076471
16.7551773878
16.7600257688
16.7644678022
16.7685326184
16.7722720648
16.7757674081
16.779144326
16.7825935249
16.7864033809
16.7909783679
16.796854837
16.8047098108
16.8154098067
16.8300906879
16.8502060151
16.8778163246
16.9158981844
16.9689884299
17.0298465473
-1.95655135606
-1.97786260036
-2.01096498312
-2.05548652151
-2.11192629784
-2.18103469546
-2.26390112217
-2.36154095729
-2.47475203587
-2.60408568647
-2.74982064266
-2.91201014658
-3.0904954247
-3.28497201036
-3.49500152094
-3.7200770862
-3.95962476584
-4.21306312311
-4.47979363754
-4.75925397645
-5.05089944748
-5.35425047325
-5.66886761528
-5.99439499542
-6.33052969075
-6.67706229609
-7.03384165551
-7.40081121472
-7.77796712842
-8.16538991152
-8.56319385505
-8.97155185542
-9.39063366155
-9.8206211918
-10.2616333345
-10.7137314338
-11.1768364646
-11.6507263081
-12.1349360359
-12.6287457047
-13.1310952748
-13.6405901375
-14.1554121193
-14.673287847
-15.191325976
-15.7059833336
-16.2132222584
-16.7087304439
-17.1878462833
-17.6450409362
-18.0740481541
-18.468204941
-18.8206830512
-19.1250935828
-19.3758259652
-19.5674750933
-19.6936494348
-19.7468705273
-19.7189665925
-19.6017753529
-19.387935176
-19.0709492614
-18.6447251354
-18.1030171445
-17.439271258
-16.647170739
-15.7216037351
-14.659899618
-13.4630649359
-12.1367861251
-10.6921343949
-9.14570364279
-7.51889037208
-5.83647122842
-4.12513781297
-2.41199522414
-0.722613476264
0.920379625205
2.49746181071
3.99270187593
5.39497782077
6.697114081
7.89407173569
8.98446486078
9.97109744471
10.8576111996
11.646674422
12.3449465714
12.9616410826
13.5051774907
13.9806674905
14.3950225449
14.7572731455
15.0726765229
15.347418637
15.588475429
15.7981745198
15.9785815466
16.1335694645
16.2651643221
16.3757232292
16.4685878794
16.54604847
16.6091539973
16.659275355
16.6981329442
16.7269760421
16.7464137838
16.7572708951
16.761124647
16.7597722862
16.7546625353
16.7468053276
16.7369068084
16.7255032675
16.7130363921
16.6998898801
16.686401023
16.6728663015
16.6595391555
16.6466353649
16.6343339643
16.6227881637
16.6121222457
16.6024339328
16.5937904714
16.5862399989
16.5798114676
16.574524434
16.5703835079
16.5673852223
16.5655109571
16.5647349273
16.5650179382
16.5663163967
16.5685764675
16.5717428142
16.5757534831
16.5805454545
16.5860497232
16.5921947308
16.5989044879
16.6061057647
16.6137263396
16.6216954383
16.6299399697
16.6383878913
16.6469682696
16.6556156291
16.6642687669
16.6728718537
16.6813717012
16.6897194588
16.6978684384
16.7057755491
16.7133996458
16.7207035139
16.7276535468
16.734222048
16.7403854824
16.7461267482
16.7514359616
16.7563129469
16.7607683707
16.7648284538
16.7685384319
16.7719719617
16.7752422142
16.7785209558
16.7820593558
16.7862057612
16.7914159254
16.7982620006
16.8074608869
16.8199291607
16.8368094285
16.859512608
16.8899217633
16.9306032031
16.976556002
-2.09142295669
-2.11291019205
-2.1481056478
-2.19765274438
-2.26137417802
-2.33936839792
-2.43192927511
-2.53936636513
-2.66193485158
-2.79979804909
-2.95297987318
-3.12138448045
-3.30478352057
-3.50286235615
-3.71521513993
-3.94139878902
-4.18092443828
-4.43331058306
-4.69806791203
-4.97474872168
-5.26292536953
-5.56223652878
-5.87236074296
-6.19305938056
-6.52414738495
-6.86553325365
-7.21718560515
-7.57916997401
-7.95160885586
-8.33471253367
-8.72872977092
-9.13397056668
-9.55074379911
-9.97936825609
-10.4200945316
-10.8731049657
-11.3384273262
-11.8159272575
-12.3052046634
-12.8055777575
-13.3160017011
-13.8350820429
-14.3609962438
-14.8914613438
-15.4235448379
-15.9536114927
-16.477520178
-16.9909223191
-17.489187134
-17.9666649487
-18.4167934182
-18.8325730458
-19.2069108476
-19.5334380797
-19.8066106803
-20.0206447389
-20.1682955657
-20.2417341882
-20.233209932
-20.1353051678
-19.9412769098
-19.6451559967
-19.2413120136
-18.7234597978
-18.0841053811
-17.3150792647
-16.408664129
-15.3592765298
-14.1652533053
-12.8302857579
-11.3644563345
-9.78480132168
-8.11465945715
-6.38156067556
-4.61508918498
-2.84537821486
-1.10094678992
0.593682233224
2.21778593409
3.75377350167
5.1899779997
6.51961724117
7.73710926531
8.84114630176
9.8358028083
10.7270715179
11.5207462925
12.2226305404
12.8406157613
13.3855206342
13.8653131334
14.2871399381
14.659715206
14.9870668626
15.2722326816
15.519830619
15.7338262821
15.9181247531
16.0763231831
16.2110141687
16.3247258043
16.4202681784
16.4999111399
16.5651675592
16.6174459514
16.6582595723
16.6888990344
16.7103419527
16.723580689
16.7299449009
16.7309177366
16.7278307405
16.7217096978
16.7133319555
16.7032883422
16.6920671187
16.680072897
16.667662376
16.6551353923
16.6427555875
16.6307376561
16.619270583
16.6085051887
16.5985736647
16.5895688215
16.5815660086
16.5746097275
16.5687377898
16.5639656884
16.5603059435
16.55775038
16.5562879315
16.5558884411
16.5565203063
16.5581363145
16.5606899603
16.5641236562
16.568381291
16.5733981998
16.5791093699
16.5854427839
16.5923262121
16.599686804
16.6074547217
16.6155586487
16.6239276824
16.6324901317
16.6411780283
16.6499265157
16.6586767473
16.6673731526
16.6759648156
16.6844028305
16.6926420329
16.7006386637
16.7083524475
16.7157448829
16.7227819621
16.7294329008
16.7356723845
16.7414796343
16.7468416203
16.7517528732
16.7562193492
16.760259882
16.7639126675
16.7672392382
16.7703367313
16.7733507524
16.7764935714
16.7800542571
16.7844074613
16.7900153054
16.7974390555
16.8073556399
16.8205514139
16.8378534755
16.8600713815
16.8878606512
16.9161071457
-2.28578054392
-2.30603999271
-2.34153258893
-2.39314971442
-2.460346762
-2.5430013993
-2.64099732735
-2.75421224545
-2.88250107772
-3.02568952362
-3.183541412
-3.35577870665
-3.54206007805
-3.7420168344
-3.95523578356
-4.18130319434
-4.41978635096
-4.67027966371
-4.93238254855
-5.20574503621
-5.49004251465
-5.78501931307
-6.09046173007
-6.40624027179
-6.73228052376
-7.06860362612
-7.41529473908
-7.77253951776
-8.14058649943
-8.51977694924
-8.91049668903
-9.31319623913
-9.72832760974
-10.1563507864
-10.5976519634
-11.0525368333
-11.5211401707
-12.0034129513
-12.4990155396
-13.0072982451
-13.5272231271
-14.0573896626
-14.5959782285
-15.1407302957
-15.688740472
-16.23636608
-16.7794243708
-17.3135665443
-17.8342655613
-18.3359085341
-18.811702399
-19.2543394525
-19.6564577149
-20.01148291
-20.3133182734
-20.5548852165
-20.7275975558
-20.8234859187
-20.8355665488
-20.757317853
-20.5830171295
-20.3082364694
-19.9288589805
-19.4391420366
-18.8308157285
-18.093521776
-17.2159639269
-16.1881048812
-15.003995807
-13.6640263742
-12.1763784779
-10.5581181841
-8.8350830734
-7.03903065622
-5.20392525058
-3.36419118209
-1.55264660251
0.203357080745
1.881220641
3.46033566337
4.92877075456
6.28202105658
7.51764400848
8.63523800858
9.63866861354
10.534434563
11.3325282487
12.0425490059
12.67160728
13.2310338309
13.7277895243
14.165025576
14.5483245372
14.883231177
15.1750868282
15.4286783113
15.6482018652
15.8375459697
16.0001898967
16.1390074647
16.2566438444
16.3557038373
16.438435665
16.5065877288
16.5616838279
16.6051876766
16.6384250093
16.6625367683
16.6786259252
16.6879144313
16.6917024647
16.691199345
16.6874146865
16.6811500496
16.6730411591
16.6636054206
16.6532751159
16.6424177117
16.6313458834
16.6203265496
16.6095839174
16.5993089678
16.5896610878
16.580771601
16.5727399292
16.5656415273
16.5595284928
16.5544392088
16.5503956275
16.5474100524
16.5454796804
16.5445933117
16.5447259287
16.5458464053
16.5479125664
16.550879074
16.5546931446
16.5592996485
16.5646372898
16.5706424096
16.5772456503
16.5843772964
16.5919668575
16.599945828
16.6082442588
16.6167928537
16.6255220702
16.6343661728
16.6432623522
16.6521533477
16.6609847632
16.6697065974
16.6782703842
16.6866311878
16.6947450613
16.7025715029
16.7100712938
16.7172095171
16.7239536501
16.7302766001
16.7361548437
16.7415721849
16.7465184672
16.7509940465
16.7550096129
16.7585937593
16.7617952553
16.7646926156
16.7674021149
16.7700930565
16.7729923797
16.7763897694
16.780631672
16.7861189808
16.7932887945
16.8025714204
16.8142595517
16.8282438213
16.8436040388
16.854549318
-2.509653566
-2.52877703137
-2.56429115941
-2.6166326705
-2.6851670426
-2.76978781634
-2.87020219855
-2.98607707328
-3.11704313381
-3.26271502743
-3.42267610881
-3.59650740454
-3.78376791749
-3.98402917637
-4.19685305284
-4.42183073508
-4.65855794357
-4.90667607344
-5.16584533667
-5.43578641311
-5.71625226481
-6.00707026295
-6.30811362844
-6.61934293733
-6.94077824367
-7.27253895823
-7.61481401383
-7.96789852052
-8.33215791527
-8.70805683924
-9.09611183201
-9.49690864354
-9.9110381011
-10.3390972741
-10.7816043233
-11.2389840212
-11.7114714247
-12.1990936544
-12.7015616367
-13.2182475198
-13.7481087235
-14.2897289784
-14.8412978486
-15.4006285355
-15.9649641102
-16.5308351577
-17.094148772
-17.6506295722
-18.1959747879
-18.724987274
-19.2308834872
-19.7061914222
-20.1431250244
-20.5341533165
-20.8712952364
-21.1446383057
-21.3437248738
-21.4608007142
-21.4902095519
-21.4266764781
-21.2666616861
-21.0094600017
-20.6542383243
-20.1964441875
-19.62711538
-18.9332436465
-18.0986240583
-17.1064109288
-15.943713923
-14.6057906522
-13.0980794284
-11.4375680834
-9.65360714919
-7.78410497847
-5.86992455692
-3.9522316007
-2.06994527267
-0.253265606432
1.47485996841
3.09549892401
4.59579826635
5.97080232471
7.22058619944
8.35038383892
9.36875711786
10.2817293572
11.0999910369
11.8329414718
12.4846954178
13.0616077402
13.5706029176
14.0184613205
14.4113097463
14.754894941
15.054574987
15.3152161062
15.5411506476
15.7363325199
15.9042775076
16.0480348907
16.1703405533
16.2737337619
16.3604579485
16.4323824835
16.4911328969
16.5381850278
16.5748958461
16.6024794986
16.6220978026
16.6349182543
16.6421317945
16.6448477724
16.6440431154
16.6405191539
16.6349406746
16.6278468304
16.6196962264
16.6108679001
16.6016914779
16.5924386102
16.5833482612
16.5746139651
16.5664073545
16.5588586336
16.5520783094
16.546141382
16.5411116777
16.5370266803
16.533918779
16.5317981698
16.5306715177
16.5305253624
16.5313438878
16.533094237
16.535743051
16.5392444185
16.5435527993
16.5486129309
16.5543688337
16.5607572736
16.5677137043
16.5751698502
16.583059022
16.5913131523
16.599865344
16.6086472845
16.6175931225
16.6266385026
16.6357239888
16.6447930077
16.6537936475
16.6626758804
16.6713930618
16.6798996513
16.6881529418
16.6961113137
16.7037361539
16.7109906345
16.7178417252
16.7242591929
16.7302175698
16.7356957243
16.7406792405
16.7451607514
16.7491433924
16.7526428946
16.7556935212
16.7583524166
16.7607056254
16.7628760042
16.7650282686
16.7673654924
16.7701196918
16.7735320015
16.7778132912
16.7830636227
16.7891002314
16.795095554
16.7990012347
16.7945619864
-2.73577098891
-2.75410020898
-2.78963597508
-2.84205408433
-2.91084022176
-2.99597780188
-3.09709878861
-3.21378095255
-3.34554556395
-3.49189454768
-3.65230689958
-3.82627605176
-4.01329394554
-4.21288770545
-4.42459628693
-4.64800793589
-4.8827322771
-5.12843892823
-5.38482735971
-5.6516667168
-5.92876557215
-6.21601196539
-6.51334488818
-6.82079505091
-7.13845732741
-7.46653081562
-7.80529071541
-8.15512439935
-8.51649767711
-8.8899824992
-9.27621067528
-9.67588810053
-10.0897297981
-10.5184562162
-10.9627047157
-11.4230067296
-11.8996847227
-12.392827698
-12.9021850086
-13.4271450368
-13.9666612623
-14.5193067595
-15.083297752
-15.6565807223
-16.2367213695
-16.820723223
-17.404872589
-17.9851410502
-18.5575859339
-19.1178277012
-19.6592634102
-20.1741234635
-20.6534525904
-21.0871066302
-21.4630288902
-21.7670182702
-21.9875088174
-22.1176204903
-22.1531868105
-22.0916240243
-21.9344486947
-21.6875270135
-21.354741102
-20.9325517091
-20.4108067232
-19.7732030111
-18.9972766232
-18.0568054672
-16.929012897
-15.6022016248
-14.0784776941
-12.3755811773
-10.5293076226
-8.58587441131
-6.5941140219
-4.60145394845
-2.65072065133
-0.776612863714
0.995076061916
2.6477992295
4.17497614966
5.57741662144
6.85525625417
8.0141767349
9.06380812278
10.0084567561
10.8533596684
11.6060018744
12.2741893301
12.8654919443
13.3872222315
13.8463664953
14.2493611435
14.6021495782
14.9102308491
15.1785820962
15.4116706342
15.6135070888
15.7876651596
15.9372861228
16.065167827
16.1738410273
16.2655479114
16.3422275828
16.4055671767
16.4570809335
16.4981444342
16.5300168685
16.5538786522
16.5708762658
16.5821258202
16.58867467
16.5914569973
16.5912731847
16.5887962757
16.5845894827
16.5791263486
16.5728058984
16.5659678326
16.558899789
16.5518479339
16.5450196842
16.5385901827
16.5326999614
16.5274625277
16.5229634382
16.519269999
16.5164291051
16.5144755762
16.5134273672
16.5132930679
16.5140662301
16.515733244
16.518267937
16.5216396924
16.5258088756
16.5307324015
16.5363597569
16.5426375185
16.5495061683
16.5569044787
16.5647677719
16.573031918
16.5816312769
16.5905012836
16.5995764634
16.6087938957
16.6180920896
16.6274141232
16.6367054096
16.6459156903
16.6549960589
16.6639008723
16.6725850097
16.6810061878
16.689122519
16.6968951487
16.7042860518
16.7112608883
16.7177868654
16.7238357102
16.7293817838
16.7344055086
16.7388919782
16.7428352874
16.7462382657
16.7491184263
16.7515098243
16.7534673109
16.7550670367
16.756410765
16.7576163644
16.7588035616
16.760060852
16.7613901121
16.7625994099
16.763109956
16.7615580151
16.7551721123
16.737598039
-2.94065422426
-2.9585681809
-2.99423582539
-3.04655184368
-3.1152508341
-3.20038199453
-3.30152558924
-3.41822440509
-3.5499500511
-3.69615110012
-3.85625470744
-4.02970915967
-4.215971065
-4.41454408061
-4.62495548902
-4.8467935321
-5.07967799035
-5.32329760478
-5.57737871151
-5.8417237102
-6.11617976761
-6.40067785536
-6.69520359254
-6.99983774371
-7.31472986269
-7.64013799955
-7.97640188794
-8.32397924939
-8.68341343771
-9.05536074153
-9.44054478082
-9.83976877987
-10.2538497942
-10.683611038