/*--------------------------------*- C++ -*----------------------------------*\
| =========                 |                                                 |
| \\      /  F ield         | OpenFOAM: The Open Source CFD Toolbox           |
|  \\    /   O peration     | Version:  v1806                                 |
|   \\  /    A nd           | Web:      www.OpenFOAM.com                      |
|    \\/     M anipulation  |                                                 |
\*---------------------------------------------------------------------------*/
FoamFile
{
    version     2.0;
    format      ascii;
    class       volScalarField;
    location    "6";
    object      pa;
}
// * * * * * * * * * * * * * * * * * * * * * * * * * * * * * * * * * * * * * //

dimensions      [0 2 -2 0 0 0 0];


internalField   nonuniform List<scalar> 
12225
(
-1.28342889473
-0.913011425228
-0.712320088236
-0.764102601942
-0.374996461002
-0.0114132351622
0.427747193647
0.82962240389
1.2268190022
1.64059578294
2.27852305565
3.41399774808
5.32289073564
8.42105031957
13.2295593899
20.0395093553
27.2219658687
25.8903371265
21.5692328858
9.23800678127
8.10955946274
7.79852062487
7.76068424552
7.90034231006
8.240118796
8.74515702892
9.4640581026
10.4541911012
11.9090924035
13.9997693626
16.8325781092
20.6469295105
25.5954756878
31.2061365747
34.7961719734
28.3051986915
-5.15178672667
2.5960273209
2.53607297107
2.39444072999
2.47263356694
2.65076548173
2.94749999268
3.32325575525
3.83496263684
4.56899756617
5.73940229838
7.54591727666
10.1681155965
13.7568376122
18.3686319344
23.3147536035
25.9971377993
21.1849038693
8.55984544191
6.59931902962
6.5379619676
6.22162501152
6.12002754267
6.0702836857
6.12098255765
6.24187183158
6.48963169257
6.94674421699
7.77652866322
9.12782520395
11.1493234543
13.9037902151
17.2769310043
20.4582075746
21.3532045969
17.2824416307
5.67822121538
5.90870931003
5.79091226078
5.66919962616
5.69096048912
5.76619904869
5.94196839762
6.1949435181
6.57999942518
7.16826509311
8.07885966893
9.41152467887
11.2537657466
13.587874907
16.1654050011
18.1795813936
18.1499915295
14.9643163048
6.53884620986
6.33354713806
6.25995441663
6.14904247817
6.17278955307
6.23411243936
6.39192449458
6.62971011169
7.00151876674
7.56929925476
8.42067797711
9.62124396825
11.2052939734
13.0919332993
14.9712497062
16.1518294801
15.7060963104
13.3035691442
6.68634964188
6.54445511785
6.54225886624
6.48450152902
6.5460721101
6.62615692035
6.79266964317
7.03239263973
7.39654223898
7.93443781379
8.70845997912
9.75551348464
11.0681414159
12.5258659254
13.8202744278
14.4254743197
13.82337852
12.0064443577
6.79301143011
6.69009063598
6.76689510063
6.75376005286
6.85062836808
6.94976728605
7.12691252251
7.36936675165
7.72323398614
8.22389425289
8.91230715361
9.80066171532
10.8515026652
11.9284382559
12.7627134262
12.9900404088
12.3537542311
10.9504021739
6.81798591447
6.77022641172
6.92731244965
6.95470843896
7.08482744173
7.2027850932
7.39052778063
7.63399402392
7.97288312042
8.42986657663
9.02793367462
9.75999673627
10.5706880395
11.3272528652
11.8165611241
11.8051859353
11.186433055
10.0725528903
6.81834105664
6.81084519225
7.04232567071
7.10360110836
7.2631404558
7.39736210849
7.59312020759
7.833432787
8.15160381112
8.55907548651
9.06467504903
9.64789052309
10.246625061
10.7444448913
10.9845970185
10.8283261109
10.2472395639
9.3378125631
6.84368495593
6.83242739324
7.11304219985
7.20266188144
7.38656616766
7.5335011414
7.73357017887
7.96611789265
8.25902172142
8.61393243683
9.0286930077
9.475263839
9.89380664661
10.1897625574
10.2557678892
10.0157921313
9.47814395218
8.72230228731
6.85503520673
6.8105223968
7.1122008306
7.2204393684
7.42129254561
7.57573027268
7.77526369618
7.99624699727
8.26228493127
8.56798411693
8.9045047927
9.241729806
9.52508247211
9.68288073639
9.6422161603
9.36378567339
8.87035844674
8.22359196011
6.84379819204
6.74771390208
7.06698803488
7.18289368764
7.39544881941
7.55329733668
7.74881159239
7.95514896714
8.19190508142
8.44922583084
8.71495336433
8.95603298702
9.13027772031
9.18336727037
9.07037340998
8.77477672043
8.3251728668
7.77355872396
6.84347345659
6.66199325415
7.0053637562
7.11806749496
7.33745541321
7.49304086463
7.68063573148
7.86712322977
8.06911383089
8.27282785346
8.46235532802
8.61133417685
8.68501219395
8.64970173151
8.48124703206
8.1791373168
7.77769268096
7.31261407493
6.83615791346
6.55671445541
6.9194557075
7.02365249584
7.24300534787
7.39177336215
7.56573476341
7.72945371836
7.89297098208
8.04058406996
8.15799887961
8.22275143318
8.21220670554
8.10805760888
7.90139174171
7.60311111182
7.24633260124
6.85998884195
6.81416180094
6.42764241284
6.80182260041
6.88806675959
7.10218431397
7.23544907202
7.39102612968
7.52427532117
7.64744382449
7.74117821783
7.79566550055
7.7933775865
7.72303713665
7.5754645787
7.35253031292
7.07089565514
6.75908150524
6.44084567538
6.79740560925
6.29279771632
6.66425986573
6.725595914
6.92569496949
7.03783264286
7.16564651375
7.26359519806
7.34202728576
7.38581923097
7.38750136222
7.33772271386
7.2298785914
7.06267802162
6.84294008008
6.58749537512
6.32175170053
6.06084242163
6.73092697516
6.13294463121
6.4992387197
6.53397398947
6.71617217181
6.80327649894
6.90116235494
6.96264557899
7.00001318685
7.00194665965
6.96509125865
6.88493913551
6.75920815318
6.59021146114
6.38637839487
6.16303030339
5.94127853748
5.73136861028
6.60176194139
5.9774575432
6.33696191491
6.34920112885
6.50992284532
6.56998254094
6.6380761905
6.66575287485
6.66875447344
6.63827308209
6.57492398102
6.47711455621
6.34545435642
6.18333182893
5.99912600193
5.8058578294
5.62071821847
5.45166974296
6.5234890015
5.96100718956
6.27404111416
6.27418028311
6.40798295759
6.44564934515
6.48653396627
6.49060087332
6.47011921971
6.42122425309
6.34351250258
6.2392700671
6.10720844852
5.95288411669
5.78236735647
5.60831914206
5.44581351627
5.30162714311
6.43455844114
5.9610701788
6.2580969538
6.25266057922
6.37033665086
6.38906328209
6.41564201992
6.40276667506
6.37078165048
6.31075361634
6.22793820941
6.12022337648
5.99083117949
5.84147284079
5.67955134303
5.51676896075
5.36618844157
5.23514994762
6.35851239317
5.98119599146
6.2614701712
6.26118468762
6.36501706398
6.37287717937
6.38388981412
6.36098521637
6.32010052007
6.25419507295
6.16777843509
6.06098560856
5.93523993673
5.7909150176
5.63699779371
5.48243936645
5.34065491413
5.2176179162
6.34503889723
6.0442106725
6.30684689075
6.30653630196
6.397844617
6.39201901196
6.39304031798
6.3604806649
6.31121319145
6.24113264422
6.15294959514
6.04837311721
5.9247979064
5.78845996913
5.64167670039
5.49519975042
5.36161883882
5.2433794555
6.26537180642
6.10151099423
6.3392126583
6.35145398689
6.42649981768
6.41047901025
6.39721047636
6.35367942645
6.29739893177
6.22129002501
6.13214283499
6.02733441715
5.91026311497
5.77906040926
5.64148115787
5.50378553295
5.3748269449
5.26134149866
6.53572800322
6.37817814304
6.60452993248
6.62213728977
6.6809853916
6.653777043
6.63536690238
6.58919702832
6.53067377245
6.45637497431
6.36983655366
6.27256421795
6.16197343917
6.04514938244
5.92214105355
5.79703820006
5.67857614768
5.57289877487
4.41168480667
5.59490162296
5.77814314752
5.81640410657
5.83768684652
5.79239754607
5.7525291062
5.68529325055
5.60428850977
5.50537024632
5.39539905141
5.27739555564
5.15650267638
5.03202980958
4.90833832597
4.78608798205
4.66452322326
4.52478718892
12.2110066161
8.98890534189
9.26579499111
9.23025576823
9.20310649726
9.13664465007
9.08791058052
9.02338122011
8.95366645788
8.87475583375
8.7933521398
8.71345864553
8.63739642273
8.56720957159
8.50093667266
8.4279781814
8.33782699634
8.30085667317
-13.3824088332
0.799445434208
1.39388477516
1.41952800819
1.39943731122
1.39396654361
1.40781917877
1.40640615948
1.39504669663
1.36803844236
1.33496485906
1.30267930093
1.26223992758
1.2115812414
1.14831123593
1.05686224463
0.913287787528
0.549940539297
30.8907110538
15.5189830074
14.2247446312
14.082521613
13.9415730589
13.7983435981
13.6604494874
13.4998809492
13.3143168978
13.1006756473
12.8652208455
12.6157190406
12.350098372
12.0675559409
11.7783999011
11.4881589852
11.1713215845
11.0496880783
-3.99210020641
-0.990717481698
-1.03074118289
-1.2065692307
-1.09019842586
-1.03017837274
-0.930854847992
-0.861296133801
-0.809126598579
-0.790340592631
-0.801951975931
-0.842322739621
-0.898676343288
-0.957533020144
-0.989779491575
-0.935514779254
-0.704415084775
-0.41436854175
0.771198244382
0.771321514491
0.7678174477
0.767291151274
0.77280553692
0.782538200282
0.793789242668
0.802618201603
0.808477306141
0.80980303409
0.8081281662
0.803066794919
0.79692277282
0.78959446203
0.783389418036
0.778172930486
0.775987289964
0.77658879026
0.781616411006
0.790685505768
0.804989304721
0.82395335875
0.848188257343
0.877051467507
0.910479597704
0.947701407055
0.98827649636
1.03149928448
1.07671924172
1.12334964842
1.17080587151
1.2186726859
1.26655166052
1.31420035793
1.3614277099
1.40804926221
1.45415271219
1.49968302137
1.54463664291
1.58896060761
1.63267935317
1.67573709837
1.71818700946
1.75996617746
1.80116235909
1.84166250776
1.88151543084
1.92052968087
1.95866021471
1.99552432627
2.03075959708
2.0636243096
2.09363728725
2.12051843256
2.14433463854
2.16486853424
2.18228040425
2.19637111038
2.20763474653
2.21600539729
2.22266374798
2.22741233379
2.22977583354
2.22813658572
2.22206150416
2.21006640537
2.19185936096
2.16626435545
2.13328993835
2.09198045204
2.04261664599
1.9844383397
1.91811401279
1.84304327083
1.76035784668
1.66982898823
1.57304619627
1.47002989026
1.36252086627
1.25061410258
1.13656102858
1.02058973513
0.90487006338
0.789582164025
0.677050773699
0.567521070037
0.462716501035
0.362979873559
0.269144014488
0.180652230651
0.0952371654584
0.0139021510092
-0.0626877009412
-0.133610923314
-0.196743013971
-0.245347882055
-0.277934877758
-0.30579641187
-0.345044954643
-0.387149705813
-0.402149402819
-0.368642644594
-0.347434234477
-0.397376995689
-0.489581379579
-0.556044979986
-0.587591325492
-0.624443446806
-0.670323171931
-0.712870261289
-0.751297053037
-0.78496302937
-0.814231266712
-0.839751853528
-0.862181550989
-0.882088605223
-0.899899806259
-0.915913376416
-0.930436502665
-0.943766440017
-0.956279738503
-0.968151286841
-0.979476858417
-0.990254167723
-1.00047751876
-1.01020661751
-1.01953108872
-1.02856365789
-1.03741160633
-1.04617268051
-1.05493687842
-1.06376728719
-1.07271530813
-1.08178006655
-1.09094614693
-1.10016120106
-1.10935323615
-1.11839075982
-1.12720944457
-1.13568804938
-1.14389420703
-1.1515044678
-1.1585975194
-1.16490276971
-1.1705977444
-1.1755046884
-1.17986631196
-1.18351960746
-1.18674883194
-1.18939590417
-1.19179156319
-1.19381642197
-1.19582278767
-1.1976587674
-1.19972814129
-1.20190876071
-1.20463870357
-1.20779388887
-1.21178866131
-1.21643368254
-1.22195492711
-1.2279159725
-1.23424326669
-1.24015142247
-1.24516350534
-1.24818453548
-1.24847723968
-1.24496847636
-1.23662663551
-1.22230403897
-1.20188288149
-1.1763304266
-1.14863286998
-1.12453454903
-1.11381750338
-1.12574101222
-1.16986366176
-1.25300977792
-1.3723067236
-1.51311951439
0.801557841965
0.775356560631
0.761886110859
0.765906414412
0.777223512845
0.786802763197
0.79036962712
0.785152474519
0.771447452563
0.748982427862
0.719425984532
0.682863122336
0.640977278284
0.59386417779
0.543126923864
0.488899399225
0.432685629283
0.374655873293
0.316171627362
0.257391844128
0.199364472435
0.142240014401
0.0867027559043
0.0327093662075
-0.019489347852
-0.0700873422626
-0.119291390752
-0.167362911096
-0.214689248847
-0.261604318058
-0.308540615816
-0.355767776675
-0.403587525613
-0.452277103104
-0.502033753661
-0.552963816696
-0.605162259341
-0.658707679056
-0.713623814039
-0.769996016982
-0.827848684354
-0.887208915702
-0.948014314281
-1.010224253
-1.0736720626
-1.13825505188
-1.2037364126
-1.26996478765
-1.33666727735
-1.40357016732
-1.47024758171
-1.53624062937
-1.60167472311
-1.66675438218
-1.73146695507
-1.79579741485
-1.85943828125
-1.92197884345
-1.98204325058
-2.03893641067
-2.09225261015
-2.14091484912
-2.18294618274
-2.21863846149
-2.24841967487
-2.27311229644
-2.29305445414
-2.30880375218
-2.32043479374
-2.32827725975
-2.33220304149
-2.33244614087
-2.32878581884
-2.32146494187
-2.31029694692
-2.29554707969
-2.2769789874
-2.25506361437
-2.22981001621
-2.20171365396
-2.17053177061
-2.1366879374
-2.10006844939
-2.06104037676
-2.01896185119
-1.97390236228
-1.92616487947
-1.87602414937
-1.82165615545
-1.76522339799
-1.71080985163
-1.66040258633
-1.60874796241
-1.55375089638
-1.49984217224
-1.44590817651
-1.38408696205
-1.30971058517
-1.23396491546
-1.15804982005
-1.06934582788
-0.982385019196
-0.927123745231
-0.894735836265
-0.830703449034
-0.720381441158
-0.68422191847
-0.734438526128
-0.778038265667
-0.804450330127
-0.820790335923
-0.830563943638
-0.835668643705
-0.837035293657
-0.835314145088
-0.830930533787
-0.824172242077
-0.815192868338
-0.804189477603
-0.791460932277
-0.777325082737
-0.761973012392
-0.745453925659
-0.727719417646
-0.708770819745
-0.688672665893
-0.667550453401
-0.645543281038
-0.622801308061
-0.599466981969
-0.575682398024
-0.551573558026
-0.527248877735
-0.502774244224
-0.478187437974
-0.453498364169
-0.428683656601
-0.403727437124
-0.378632014621
-0.353539996561
-0.328504943303
-0.303505593802
-0.278513605924
-0.253539976026
-0.228679626725
-0.204031065733
-0.179706982776
-0.155778680976
-0.132349164047
-0.10949045692
-0.0873447991041
-0.065975962554
-0.0455348620879
-0.0261669611809
-0.0081879359687
0.00811262396525
0.0222391190371
0.0337445555062
0.0419999047029
0.0465621557571
0.0467254374448
0.0420195963186
0.0319943423705
0.0166099748917
-0.00403878412321
-0.0293686247723
-0.058514811063
-0.0901416026863
-0.122844743946
-0.155138143996
-0.186104297017
-0.21592174518
-0.246259039887
-0.281044093459
-0.323303796456
-0.37398958211
-0.431604339729
-0.486235489884
-0.506563755893
-0.406564211788
0.873435290181
0.762574573887
0.706382060086
0.707391816761
0.723326208777
0.73074858197
0.724533039054
0.705510970778
0.677690566806
0.643349878461
0.605373217705
0.564652550243
0.523010917629
0.480624895513
0.438849510327
0.397667352244
0.358220823062
0.320458500171
0.285302412728
0.252683380476
0.223324360689
0.197019686898
0.174139069748
0.154474729853
0.13795498519
0.124186926262
0.112861454648
0.103514332771
0.0956353653168
0.0887665797218
0.0824140652868
0.0761844227776
0.069649012964
0.0625586809567
0.0546420382956
0.0456889085319
0.0355978356441
0.0242703555543
0.0115841242553
-0.00253391531264
-0.0181362101395
-0.0352789770753
-0.053931721936
-0.0740980225872
-0.095661175227
-0.118576443905
-0.142684525321
-0.167899931624
-0.194032814701
-0.22098588275
-0.248532599182
-0.276325073889
-0.303865751632
-0.331152075652
-0.358361801424
-0.385854616746
-0.414030261657
-0.443854780648
-0.476785527275
-0.514068946134
-0.556495349942
-0.605816886595
-0.662647663144
-0.72597757846
-0.794309789919
-0.866443995918
-0.94123038432
-1.01783016755
-1.09535549719
-1.17312758092
-1.25033199413
-1.32625780422
-1.40002117829
-1.47091781969
-1.53802024615
-1.60059194169
-1.65784191353
-1.70927186962
-1.75442014868
-1.793075458
-1.82497106416
-1.85011217719
-1.86853547965
-1.88053131385
-1.88610570487
-1.88548029826
-1.87933876804
-1.86822723045
-1.85225594708
-1.83196368232
-1.81357143697
-1.80101934224
-1.79213553102
-1.78151727915
-1.77028835841
-1.75974318802
-1.7418225448
-1.71866382456
-1.68537774049
-1.64370995365
-1.6091060193
-1.6086254031
-1.63787024695
-1.69528775883
-1.74693229976
-1.74362449705
-1.68597327948
-1.61016927167
-1.55360543516
-1.51702489519
-1.49485875343
-1.48239991862
-1.47663711037
-1.47539295587
-1.47717974386
-1.48091913338
-1.48579912201
-1.4911741554
-1.49662013299
-1.50197914372
-1.50720648596
-1.51225246336
-1.51694161322
-1.52106228934
-1.52445841714
-1.52706422074
-1.52887276094
-1.52993100506
-1.5302986216
-1.53006898183
-1.52932624476
-1.52817210714
-1.52666192215
-1.52482314326
-1.52260923212
-1.51993983092
-1.51669353859
-1.5127842985
-1.50817958657
-1.50302619143
-1.49733654351
-1.49112265546
-1.48418596966
-1.47650090088
-1.46796827582
-1.45862492115
-1.44836098391
-1.43714284398
-1.42478234891
-1.41116618341
-1.39602603217
-1.37914844308
-1.36022998069
-1.33901479561
-1.31513415622
-1.28830407265
-1.25818964567
-1.22455920521
-1.18717419295
-1.14594053462
-1.10085625316
-1.05208474499
-0.999924284922
-0.944892650742
-0.887635328895
-0.829009531356
-0.770038365224
-0.711918730771
-0.656551828117
-0.606396446796
-0.564515642553
-0.53533483093
-0.524923858859
-0.540783347027
-0.587771523632
-0.669900724551
-0.78911886387
-0.936519544887
-1.08065826085
-1.14648183802
0.95101255398
0.683226428287
0.564930113684
0.565468633776
0.587091671643
0.592813424019
0.579774999482
0.552712529064
0.517718876721
0.477998391915
0.436737436501
0.394737296803
0.353581723657
0.313282398276
0.274922435407
0.238347967565
0.204458318679
0.173085020538
0.145007518045
0.120040978333
0.0986895119521
0.08082118951
0.0667014397511
0.0560147546003
0.0487736957647
0.0446153666497
0.0431761946004
0.0440295725854
0.046696032168
0.0507183974928
0.0555691964014
0.0608530932717
0.0661667904731
0.0711571923034
0.0755247176665
0.0791200969931
0.0817100372855
0.0831871484591
0.083458185048
0.0824524526687
0.0801203075614
0.07645369386
0.0715032807515
0.0653180920415
0.0580460010975
0.0497805449839
0.0407293051598
0.0309998970176
0.0207747410183
0.0101523595799
-0.000811505155642
-0.01226351041
-0.0240370765495
-0.0360288557408
-0.0482111012914
-0.0607051429303
-0.0736077040391
-0.0873010559991
-0.102401003905
-0.119864384339
-0.14003705093
-0.163025867872
-0.189034428021
-0.218147818807
-0.250195305135
-0.285106834137
-0.322729322532
-0.363050303034
-0.405982902417
-0.451540912447
-0.499590207366
-0.550062016287
-0.602670801977
-0.657086907684
-0.712828879529
-0.769342443625
-0.825913855714
-0.881924756707
-0.936689257677
-0.989594353528
-1.04007474047
-1.08768917696
-1.13203095275
-1.1729252663
-1.2103266959
-1.24413010044
-1.27458006875
-1.30248060394
-1.32870379583
-1.35666982297
-1.38815604269
-1.42759003687
-1.4761777575
-1.52515311917
-1.56403477087
-1.58750877473
-1.60006738049
-1.59617747627
-1.55437782109
-1.51263817747
-1.53105811703
-1.5911543558
-1.64980814379
-1.70394370858
-1.7266932693
-1.6853742403
-1.5765297839
-1.43988638771
-1.31980862256
-1.22708467215
-1.15812019802
-1.10660325028
-1.06765700858
-1.0377251252
-1.01428318215
-0.995504958702
-0.980010182739
-0.966749186336
-0.955007551668
-0.944392782925
-0.934712978145
-0.925766173439
-0.917266042375
-0.908902287508
-0.900426685367
-0.891674231811
-0.882553597685
-0.873027734731
-0.863097019743
-0.85279315119
-0.84216075083
-0.83124742823
-0.820062046966
-0.808555971491
-0.796598642629
-0.784002808376
-0.770583221542
-0.756214823909
-0.740949516553
-0.724964225617
-0.708431891045
-0.691357576047
-0.673670613567
-0.655349436248
-0.63644711499
-0.617068076246
-0.597331927179
-0.577372079876
-0.557334561728
-0.537380722924
-0.517677605008
-0.498402857614
-0.479770060842
-0.461983522442
-0.445228240387
-0.429662654369
-0.415411567655
-0.402547716473
-0.391094887616
-0.38101090478
-0.372119638829
-0.364178061557
-0.356906777435
-0.349955909821
-0.342904264238
-0.335263126601
-0.326502386774
-0.316171800117
-0.304195018787
-0.290990181543
-0.277721325227
-0.266983815652
-0.263057113238
-0.271302595693
-0.296374685396
-0.341680682088
-0.407298052013
-0.484808164281
-0.549062590555
-0.55109745261
0.979416596732
0.487300148954
0.319094281061
0.348988121411
0.389803510308
0.40082758279
0.388076519737
0.360596851733
0.32576122509
0.28683878487
0.246620858008
0.205872244199
0.16601450332
0.127076498907
0.0900122016542
0.0546787641837
0.0218289398775
-0.00869659140529
-0.0363435015634
-0.0612592302301
-0.082985407139
-0.101773658232
-0.117410657412
-0.130082316445
-0.139899345717
-0.147191827486
-0.152203163263
-0.155345551464
-0.157056156294
-0.15775364458
-0.15788894452
-0.157846615294
-0.158064519042
-0.158780732391
-0.160308708577
-0.162857342497
-0.166587294057
-0.171574115678
-0.17796311678
-0.18576422622
-0.195016885849
-0.205693291277
-0.217737293986
-0.231068454865
-0.245544440651
-0.26105029529
-0.277408304242
-0.294498475338
-0.312136922954
-0.330258496066
-0.348712266289
-0.367361164205
-0.386016018863
-0.404547179977
-0.422833163788
-0.440956550535
-0.458901176027
-0.476639183313
-0.49366266752
-0.509286555241
-0.522716799709
-0.533519136949
-0.541399183595
-0.546638196005
-0.549500046913
-0.550387758882
-0.549672900143
-0.547917121569
-0.5456869711
-0.543740345753
-0.542814081064
-0.543707862909
-0.54710221752
-0.55366744522
-0.56376831422
-0.577654435157
-0.595340924541
-0.616683789696
-0.64133159841
-0.668826742391
-0.698664719647
-0.730282810529
-0.763059152592
-0.796657343838
-0.830788881431
-0.865241033639
-0.900154441703
-0.93558681396
-0.974095251362
-1.01706328885
-1.06412850382
-1.10701895343
-1.13825851149
-1.1587109249
-1.16114147763
-1.13179332459
-1.09189074891
-1.06295687071
-1.06515568258
-1.12080991128
-1.2232111156
-1.33183372531
-1.41477283102
-1.46997567072
-1.48467243796
-1.45037406567
-1.37373446891
-1.27999674331
-1.1933670349
-1.12362569279
-1.07153843551
-1.03398143853
-1.00750169371
-0.989153713209
-0.976628104529
-0.968161426517
-0.962376963669
-0.958230307685
-0.955035046059
-0.952448150156
-0.950337997589
-0.948569880202
-0.946929507001
-0.945179400833
-0.94312795481
-0.940650229922
-0.937698480433
-0.934266136615
-0.930401604371
-0.926164017638
-0.921643874106
-0.916895637767
-0.9119427242
-0.906696106705
-0.900979480998
-0.894531729587
-0.887117319337
-0.87861818313
-0.869148502535
-0.858945814066
-0.848265271211
-0.837099462439
-0.825437302302
-0.813209311399
-0.800488764325
-0.787292517431
-0.773724806416
-0.759794875019
-0.745590000896
-0.731089850812
-0.716344079434
-0.701284353548
-0.685927977864
-0.670165345387
-0.653966625296
-0.637183273234
-0.619766591573
-0.601578263006
-0.582610171612
-0.562790638687
-0.542134703857
-0.520621073674
-0.498376944585
-0.475521525301
-0.4522818848
-0.428851649077
-0.405443444925
-0.382356874403
-0.36016141659
-0.339743842115
-0.322483377149
-0.310664286284
-0.307395651862
-0.315996217489
-0.338865569185
-0.377316501911
-0.428223959105
-0.481623092235
-0.514524178128
-0.493980851916
0.914581279127
0.148417344523
-0.0266704957171
0.0741502857353
0.145367718337
0.167138671205
0.161079365135
0.140545522652
0.112943865034
0.0812912802696
0.0482836359943
0.01465744561
-0.0182173141044
-0.0502067967323
-0.0804234714501
-0.108924388704
-0.135070730601
-0.15898358709
-0.180155116542
-0.198729148814
-0.214431538737
-0.227332466387
-0.237309953319
-0.244600033513
-0.249210724906
-0.251386218149
-0.251426536505
-0.249638387092
-0.246409455364
-0.242092547613
-0.237133099193
-0.231855235588
-0.226625414397
-0.22174886527
-0.217524601988
-0.214080114093
-0.211665062334
-0.210362664218
-0.210286737384
-0.211469749999
-0.213978451665
-0.217783329285
-0.222867694474
-0.229155134114
-0.236552304725
-0.244956642665
-0.254230580498
-0.264281386006
-0.274994740801
-0.28629583214
-0.298104001881
-0.310417054157
-0.323100945232
-0.336120058732
-0.349466513052
-0.363296704075
-0.377723052106
-0.392971437747
-0.409107718831
-0.426272176159
-0.444356832879
-0.463259724998
-0.482530220232
-0.501592868505
-0.519680622285
-0.53612352638
-0.550231567157
-0.56152080623
-0.56962754296
-0.574506425492
-0.57629547227
-0.575513499565
-0.57282159413
-0.569106466996
-0.565324594409
-0.562427837426
-0.561222701641
-0.562468969548
-0.566654122831
-0.574020896858
-0.584636840404
-0.59847470478
-0.615341636416
-0.634976987553
-0.657288010945
-0.68231755541
-0.710458866665
-0.740298574378
-0.765386221104
-0.782221825385
-0.791701585424
-0.785714874473
-0.749297113298
-0.694099361242
-0.643642344889
-0.618791918294
-0.632034878346
-0.68370769031
-0.774909441459
-0.899224262522
-1.03505560343
-1.15522963129
-1.24574439479
-1.30453932355
-1.32668453337
-1.31289748412
-1.27103773741
-1.21569503988
-1.15998307938
-1.11130079665
-1.07242634104
-1.04304409558
-1.02167910611
-1.0065970092
-0.996192359033
-0.989084339192
-0.984120097936
-0.980382655664
-0.977274954206
-0.974531251831
-0.972071272841
-0.969824423857
-0.967645177428
-0.965355801362
-0.962793455246
-0.95985636942
-0.956497325161
-0.952725287386
-0.948586866803
-0.944159271099
-0.939524680042
-0.934740071283
-0.929790499306
-0.924545981476
-0.918750271935
-0.912078547748
-0.904236228669
-0.895127665705
-0.88487476514
-0.87379468012
-0.862104192007
-0.849872983842
-0.837064965222
-0.823677673138
-0.809740323911
-0.795314490903
-0.780453471588
-0.765213857352
-0.749639677938
-0.73377075718
-0.717628512436
-0.701220069569
-0.684540190602
-0.667559523439
-0.650244777328
-0.632540668512
-0.614411013654
-0.595810531407
-0.576740114574
-0.557188098753
-0.537173552021
-0.516704930022
-0.495853064887
-0.474685113906
-0.4533244856
-0.431872181564
-0.410461833827
-0.389330229635
-0.368983658898
-0.35025103948
-0.334489126115
-0.323778513619
-0.320755838804
-0.32805202378
-0.347648450526
-0.380044136414
-0.421624800519
-0.462508753411
-0.483524958755
-0.463221315759
0.731129654171
-0.327255581139
-0.443376213369
-0.236985322757
-0.137869764524
-0.104347905663
-0.099083502262
-0.107513482318
-0.122883881146
-0.142493364937
-0.16409312017
-0.18682325228
-0.209451577197
-0.231717093757
-0.252855143525
-0.272822546169
-0.291113068459
-0.307741655936
-0.322394403047
-0.335082173123
-0.345544619278
-0.353899590862
-0.360053376935
-0.364035816786
-0.365964829654
-0.365988775285
-0.364284105486
-0.361076675645
-0.356691062931
-0.35138066811
-0.345497208051
-0.339299469442
-0.333158932916
-0.327240237747
-0.32182985127
-0.317089110299
-0.313186524898
-0.310176941077
-0.308214715422
-0.307296688406
-0.307493196446
-0.308766531589
-0.311116585612
-0.31446171685
-0.318736976934
-0.323834791476
-0.329663163353
-0.336125695375
-0.343127100694
-0.35064914013
-0.358657521134
-0.367155632311
-0.376069033982
-0.385349458068
-0.394987263857
-0.40521939675
-0.416300193935
-0.428483652188
-0.441697566421
-0.45570434211
-0.470026067143
-0.484438632699
-0.498762749113
-0.512928104578
-0.526714770215
-0.539903998731
-0.552117460907
-0.562988187555
-0.572035722802
-0.578876382202
-0.583154700994
-0.584699651636
-0.583489706088
-0.579862065817
-0.574325135996
-0.567586225987
-0.560406106763
-0.553727812417
-0.548412292823
-0.545076486174
-0.544234992847
-0.54623756421
-0.551448224719
-0.55993643046
-0.571038696445
-0.582671073776
-0.591741630761
-0.594207075754
-0.58214576568
-0.548406410859
-0.498490278527
-0.438379771594
-0.377280857808
-0.33309204286
-0.324239043752
-0.362455358159
-0.443102290663
-0.55466985986
-0.686315871766
-0.825085934651
-0.955428384795
-1.06445185604
-1.14697647354
-1.20168603033
-1.22722537297
-1.22610464788
-1.20452611974
-1.17124810936
-1.13426829179
-1.09909034351
-1.06882544246
-1.0444521243
-1.02575848762
-1.01192736643
-1.00195554885
-0.994818434123
-0.989548077261
-0.985338897566
-0.981650062139
-0.978247287026
-0.975080129129
-0.972111807928
-0.969252632475
-0.966361157062
-0.963302783989
-0.959985114014
-0.956362784675
-0.952448367779
-0.948285731482
-0.943958217729
-0.939536208193
-0.93506905174
-0.930502171267
-0.925662730641
-0.92023294975
-0.913830924806
-0.906151306165
-0.897098420563
-0.886842726852
-0.87569695261
-0.863881649603
-0.851485961355
-0.838499436723
-0.824953847826
-0.810880632287
-0.796350707083
-0.781402733827
-0.766098384471
-0.750467488494
-0.734561022011
-0.71838896993
-0.701975481217
-0.685297514923
-0.668344289124
-0.651061965946
-0.633418811442
-0.615357539218
-0.596858372232
-0.57789724475
-0.558486138689
-0.538635188913
-0.518393114166
-0.4978304513
-0.477049892415
-0.456177472629
-0.43534418304
-0.4147130085
-0.394548225323
-0.37534511451
-0.357876015265
-0.343380907435
-0.333622964433
-0.330719240833
-0.336676949735
-0.352951078322
-0.37936706259
-0.412066681155
-0.441902507996
-0.453697907105
-0.43312245866
0.426275352298
-0.899426920044
-0.889804537105
-0.569534886725
-0.459896882027
-0.415442604272
-0.395239911853
-0.386806741485
-0.385308814673
-0.388456240376
-0.394214001169
-0.40174875784
-0.410008545245
-0.418649670556
-0.42707354695
-0.435151413171
-0.442537135483
-0.449178477966
-0.454812464831
-0.459408909966
-0.462899345457
-0.4651901372
-0.466256448241
-0.466105420052
-0.464742418345
-0.462162155044
-0.458557330348
-0.453971308093
-0.448642424114
-0.44267278197
-0.436357064945
-0.42981488435
-0.423299053299
-0.416954456369
-0.41100509066
-0.405494799246
-0.400622504923
-0.396416962513
-0.392983917549
-0.390322193019
-0.388509490378
-0.387501904848
-0.387322842222
-0.387890869928
-0.389175198693
-0.391073685723
-0.393520852395
-0.39642752059
-0.399750122203
-0.403459842728
-0.407576957432
-0.412159450214
-0.417170132794
-0.4225423502
-0.428346566734
-0.434944507862
-0.442873787169
-0.452451260633
-0.463439404311
-0.475365930479
-0.487654383078
-0.500072136818
-0.512400553151
-0.524520094329
-0.536209824769
-0.547308220509
-0.557574246647
-0.566794023806
-0.574645152538
-0.580834603114
-0.585042629493
-0.587049419048
-0.586580941254
-0.583570607523
-0.578214328141
-0.570901788483
-0.56207970456
-0.552430568861
-0.542841699057
-0.534085448015
-0.526815227216
-0.52139600197
-0.517700945126
-0.514932122103
-0.510765226037
-0.500789362258
-0.478888072547
-0.440496492602
-0.385278519526
-0.32143898381
-0.258995972027
-0.208769891956
-0.183222673318
-0.191400984331
-0.238395642395
-0.322007104782
-0.43214996849
-0.557121658392
-0.68700183698
-0.811852358147
-0.922942461107
-1.01442073868
-1.08418927143
-1.13166718478
-1.15689927859
-1.16226888924
-1.15214703784
-1.13209219504
-1.10734900516
-1.08200046797
-1.05879478676
-1.03910456267
-1.02332764129
-1.01122516093
-1.00222907866
-0.995602353997
-0.990546939908
-0.986352986789
-0.982545905812
-0.978919658867
-0.975451797555
-0.972142872356
-0.968948940456
-0.965765646208
-0.962492613516
-0.959045882438
-0.955395096629
-0.951546895756
-0.947556125674
-0.94349397274
-0.939433698046
-0.935395833291
-0.931303203184