/*--------------------------------*- C++ -*----------------------------------*\
| =========                 |                                                 |
| \\      /  F ield         | OpenFOAM: The Open Source CFD Toolbox           |
|  \\    /   O peration     | Version:  v1806                                 |
|   \\  /    A nd           | Web:      www.OpenFOAM.com                      |
|    \\/     M anipulation  |                                                 |
\*---------------------------------------------------------------------------*/
FoamFile
{
    version     2.0;
    format      ascii;
    class       surfaceScalarField;
    location    "6";
    object      phi;
}
// * * * * * * * * * * * * * * * * * * * * * * * * * * * * * * * * * * * * * //

dimensions      [0 3 -1 0 0 0 0];
oriented        oriented;


internalField   nonuniform List<scalar> 
24170
(
3.07325940698e-06
1.15145439279e-07
2.98677917483e-06
8.64790748841e-08
2.90674990893e-06
8.00283448064e-08
2.83013118012e-06
7.66183459907e-08
2.75695369272e-06
7.31768891961e-08
2.68721635e-06
6.97371338524e-08
2.62079679966e-06
6.64190728565e-08
2.55752459793e-06
6.32720403258e-08
2.49721090397e-06
6.0313377729e-08
2.43966024293e-06
5.75505504477e-08
2.38467073772e-06
5.49892665821e-08
2.33203229462e-06
5.26383234627e-08
2.28152063745e-06
5.05114763713e-08
2.23288786934e-06
4.86326426299e-08
2.18583952396e-06
4.70481618395e-08
2.13996637522e-06
4.58729449592e-08
2.09436737165e-06
4.55987696473e-08
4.6171165402e-08
2.04819615368e-06
3.43156008713e-06
1.00832653039e-07
3.42689204435e-06
9.11456026947e-08
3.4201353075e-06
8.67838790287e-08
3.41070691124e-06
8.60460200537e-08
3.39900301189e-06
8.48799871866e-08
3.38555973177e-06
8.31799313766e-08
3.3707667649e-06
8.12114105719e-08
3.3549044849e-06
7.913392736e-08
3.33817879521e-06
7.70386094138e-08
3.3207411318e-06
7.49878931378e-08
3.30269643664e-06
7.30335825309e-08
3.28410680341e-06
7.12276478939e-08
3.26498943187e-06
6.96285174744e-08
3.24530977449e-06
6.83119949456e-08
3.22496331222e-06
6.73942895058e-08
3.2037506535e-06
6.70852547277e-08
3.18156516123e-06
6.77838822556e-08
6.91821394442e-08
3.15855404251e-06
3.68023447364e-06
8.31141314977e-08
3.68493600581e-06
8.64433026678e-08
3.68795637648e-06
8.37629042154e-08
3.69001104351e-06
8.39911323769e-08
3.69097529607e-06
8.3915401027e-08
3.69098002888e-06
8.3175106251e-08
3.69014405779e-06
8.20471391123e-08
3.68854355775e-06
8.07343670302e-08
3.68622571396e-06
7.93563201866e-08
3.6832191274e-06
7.79944557894e-08
3.67953633022e-06
7.67162975892e-08
3.67517395329e-06
7.55900006211e-08
3.67010911262e-06
7.46933159514e-08
3.664294778e-06
7.41263118011e-08
3.65765646557e-06
7.40325695227e-08
3.65011317475e-06
7.46285147776e-08
3.64166308186e-06
7.62340026081e-08
7.8514792471e-08
3.63233067969e-06
3.93997212339e-06
6.85286773878e-08
3.9463020666e-06
8.01119889097e-08
3.95033024392e-06
7.97336219069e-08
3.95370239861e-06
8.06182555857e-08
3.95638513362e-06
8.12319709458e-08
3.95844325029e-06
8.11165066204e-08
3.95996404472e-06
8.05258246101e-08
3.96100137617e-06
7.96966591597e-08
3.96157946025e-06
7.87778635578e-08
3.96170315012e-06
7.78704678867e-08
3.96136285733e-06
7.70562915488e-08
3.96053728083e-06
7.64153207526e-08
3.95919335343e-06
7.60369938916e-08
3.95728679167e-06
7.60326503154e-08
3.95476723395e-06
7.6551916701e-08
3.95159799402e-06
7.77975857808e-08
3.94779623811e-06
8.00356498408e-08
8.31991388246e-08
3.94311191462e-06
4.21884458234e-06
5.68105137597e-08
4.22568242702e-06
7.32736052796e-08
4.22995338598e-06
7.54622352753e-08
4.23349763263e-06
7.70738780034e-08
4.23644880363e-06
7.82806053965e-08
4.23884550903e-06
7.87197715016e-08
4.24075902693e-06
7.86121844305e-08
4.24224167394e-06
7.82140090477e-08
4.24331967082e-06
7.76998198794e-08
4.24400022508e-06
7.71899351219e-08
4.24427677519e-06
7.67797300102e-08
4.24413284512e-06
7.6559279696e-08
4.24354425806e-06
7.66256037896e-08
4.24248272823e-06
7.70942256475e-08
4.24092404931e-06
7.81106513155e-08
4.23886394824e-06
7.985776993e-08
4.23634025436e-06
8.25595181556e-08
8.63217844242e-08
4.23321795712e-06
4.5184678795e-06
4.74282789288e-08
4.52535876991e-06
6.6381486509e-08
4.52983305953e-06
7.09870006808e-08
4.5334808045e-06
7.34254313876e-08
4.53657343146e-06
7.51874016739e-08
4.53914266902e-06
7.6150067302e-08
4.54123873898e-06
7.65157133117e-08
4.54290626471e-06
7.65461442507e-08
4.54417084024e-06
7.64349727603e-08
4.5450418179e-06
7.63187084782e-08
4.54551695723e-06
7.63044052705e-08
4.54558656366e-06
7.64894960842e-08
4.54523726278e-06
7.6974765943e-08
4.54445736286e-06
7.78740086912e-08
4.54324653964e-06
7.93214096519e-08
4.54163116834e-06
8.1473160608e-08
4.53968757594e-06
8.45032127304e-08
8.85221859455e-08
4.53748733051e-06
4.84023007581e-06
3.99177253413e-08
4.84688331469e-06
5.97279048361e-08
4.85151517207e-06
6.63548926052e-08
4.8552671437e-06
6.96733419161e-08
4.8584824565e-06
7.19720113851e-08
4.86120284692e-06
7.34296427747e-08
4.86346128408e-06
7.42572568754e-08
4.86529283722e-06
7.47145937421e-08
4.86672105226e-06
7.50067857939e-08
4.86775712346e-06
7.52826711862e-08
4.86840339253e-06
7.56581912334e-08
4.86865762907e-06
7.62353206768e-08
4.86851779231e-06
7.7114679372e-08
4.8679885701e-06
7.84033214165e-08
4.8670915566e-06
8.02185605963e-08
4.86587963319e-06
8.26852521244e-08
4.86445625654e-06
8.59268526616e-08
9.00116653532e-08
4.86296714916e-06
5.18561206592e-06
3.38854082213e-08
5.19184793824e-06
5.34910851248e-08
5.19656298254e-06
6.16390325256e-08
5.20041563072e-06
6.5820072301e-08
5.2037473687e-06
6.86397358809e-08
5.20661451429e-06
7.05620901912e-08
5.20903843602e-06
7.1832967404e-08
5.21104452062e-06
7.27082466226e-08
5.2126533429e-06
7.3397722339e-08
5.21387774998e-06
7.40581159966e-08
5.21472501017e-06
7.48108143723e-08
5.21520102759e-06
7.5759236362e-08
5.21531554409e-06
7.70001039143e-08
5.21508916461e-06
7.86297035853e-08
5.21456301617e-06
8.07447429204e-08
5.21381112581e-06
8.34373052423e-08
5.21295471537e-06
8.67834841011e-08
9.08006836013e-08
5.21216584582e-06
5.55621108538e-06
2.90116197488e-08
5.56193753388e-06
4.77644567615e-08
5.56665376187e-06
5.69226479703e-08
5.57059458877e-06
6.18791443854e-08
5.57403997613e-06
6.51942717638e-08
5.57705390623e-06
6.7548117879e-08
5.57965051381e-06
6.92363362227e-08
5.58184630245e-06
7.05124593299e-08
5.58365843594e-06
7.15856131931e-08
5.58510120737e-06
7.26153953178e-08
5.58618712017e-06
7.37249867736e-08
5.5869305821e-06
7.50158485708e-08
5.58735312636e-06
7.6577666361e-08
5.58748999756e-06
7.8492937995e-08
5.58739856629e-06
8.08363545047e-08
5.58716733732e-06
8.36687332925e-08
5.58692423586e-06
8.70267445865e-08
9.08894718707e-08
5.5868357616e-06
5.9537522046e-06
2.50345187916e-08
5.95894309469e-06
4.25727355177e-08
5.96358705015e-06
5.22779574282e-08
5.96759654066e-06
5.78689883974e-08
5.9711542001e-06
6.16360689403e-08
5.97431863058e-06
6.43831982269e-08
5.97709863277e-06
6.64559617823e-08
5.97950319849e-06
6.81075580208e-08
5.98154606002e-06
6.95425358219e-08
5.98324277884e-06
7.09185188628e-08
5.98461101183e-06
7.23566637192e-08
5.98567349345e-06
7.39533103171e-08
5.9864626455e-06
7.57885446694e-08
5.98702615168e-06
7.79294853866e-08
5.98743335968e-06
8.04292577961e-08
5.98778080291e-06
8.33214761395e-08
5.98819538272e-06
8.66123774963e-08
9.02555646565e-08
5.98882923251e-06
6.3800967782e-06
2.17498399442e-08
6.38477170462e-06
3.78977039109e-08
6.38928891463e-06
4.77605434866e-08
6.39334589977e-06
5.38118245106e-08
6.39701622422e-06
5.7965531385e-08
6.40033934875e-06
6.10599265263e-08
6.40331803252e-06
6.347711241e-08
6.40595509132e-06
6.54704181907e-08
6.40826098898e-06
6.72365539772e-08
6.41025233249e-06
6.89271938402e-08
6.41195142066e-06
7.06575820992e-08
6.41338852778e-06
7.25163253858e-08
6.41460524471e-06
7.4571907894e-08
6.41565872509e-06
7.68761744306e-08
6.41662577695e-06
7.94624004833e-08
6.41760501083e-06
8.23424621894e-08
6.41871592469e-06
8.55015167402e-08
8.88816544963e-08
6.42008995632e-06
5.74320327572e-06
1.93802626058e-08
5.74679074623e-06
3.43097969158e-08
5.75048457931e-06
4.40662919724e-08
5.75393557852e-06
5.03604787896e-08
5.75712642198e-06
5.47743805227e-08
5.76006724297e-06
5.81188758274e-08
5.76275389866e-06
6.07902752016e-08
5.765184447e-06
6.30397541298e-08
5.76736537188e-06
6.5055637648e-08
5.76931102696e-06
6.69815741274e-08
5.77104313151e-06
6.89256076024e-08
5.77259174937e-06
7.0967729361e-08
5.77399742731e-06
7.31667087865e-08
5.77531289668e-06
7.556090345e-08
5.77660558228e-06
7.8170203409e-08
5.7779569439e-06
8.09914118556e-08
5.77946088194e-06
8.39980186489e-08
8.7125641898e-08
5.78121688854e-06
7.00050298421e-06
1.70328557478e-08
7.00424205979e-06
3.05706251819e-08
7.0083175615e-06
3.99906549001e-08
7.01228057666e-06
4.63972691267e-08
7.01603566963e-06
5.10191419655e-08
7.01956325469e-06
5.45911236343e-08
7.02284837603e-06
5.75050496232e-08
7.02588366965e-06
6.00044188266e-08
7.02867393218e-06
6.22653666223e-08
7.03123575053e-06
6.44198227072e-08
7.03359633721e-06
6.65649225928e-08
7.03579433727e-06
6.87701054087e-08
7.03787972398e-06
7.10814426136e-08
7.03991622374e-06
7.35250931423e-08
7.04198018126e-06
7.6106608741e-08
7.04416055043e-06
7.88118194705e-08
7.04655347034e-06
8.16052379018e-08
8.44233703255e-08
7.04925621795e-06
8.53315940486e-06
1.47203091146e-08
8.53701627452e-06
2.67137371186e-08
8.54146358725e-06
3.55432995127e-08
8.54598347455e-06
4.18775195977e-08
8.55039568221e-06
4.66068717239e-08
8.55463772819e-06
5.03492211649e-08
8.55867661512e-06
5.34661495267e-08
8.56249653741e-06
5.61846636274e-08
8.56609894252e-06
5.86630580085e-08
8.5695015229e-06
6.10173549712e-08
8.5727365041e-06
6.33298957538e-08
8.5758496963e-06
6.56570588141e-08
8.57889996644e-06
6.80315668223e-08
8.58195851448e-06
7.04670035631e-08
8.58510795934e-06
7.29578677372e-08
8.58843847703e-06
7.54817895597e-08
8.59204412409e-06
7.80003444404e-08
8.04543534037e-08
8.59601325129e-06
1.04015111156e-05
1.2428298428e-08
1.04054887416e-05
2.27361623876e-08
1.04103216519e-05
3.07105888154e-08
1.04154614506e-05
3.67377116447e-08
1.04206506853e-05
4.14180020774e-08
1.0425774141e-05
4.52257706538e-08
1.04307731799e-05
4.84675508589e-08
1.04356185452e-05
5.13394020101e-08
1.04403059938e-05
5.39761441801e-08
1.04448512471e-05
5.64717830477e-08
1.0449289646e-05
5.88918966456e-08
1.0453670376e-05
6.12760201047e-08
1.04580576663e-05
6.36449501185e-08
1.04625246865e-05
6.60000559656e-08
1.04671543098e-05
6.8329117449e-08
1.04720312066e-05
7.06052326413e-08
1.04772398813e-05
7.27923558063e-08
7.48397459013e-08
1.04828549239e-05
1.26791186851e-05
1.00996203122e-08
1.26832881337e-05
1.8566806943e-08
1.2688588016e-05
2.54107545331e-08
1.26944717559e-05
3.08542471012e-08
1.27006205108e-05
3.52692826034e-08
1.27068645835e-05
3.89821110373e-08
1.27131109716e-05
4.22212561123e-08
1.27193123458e-05
4.51386410034e-08
1.2725452368e-05
4.78359601519e-08
1.27315424574e-05
5.03822485056e-08
1.27376128002e-05
5.2820922593e-08
1.27437130843e-05
5.51763943619e-08
1.27499021216e-05
5.745544223e-08
1.275625069e-05
5.96523994619e-08
1.27628299668e-05
6.17495924928e-08
1.27697142709e-05
6.37220093321e-08
1.27769683809e-05
6.55380218519e-08
6.71596491594e-08
1.27846495168e-05
1.54556628843e-05
7.61681630595e-09
1.54602059866e-05
1.40238145333e-08
1.54661846753e-05
1.94320696726e-08
1.54730624228e-05
2.39765048485e-08
1.5480474418e-05
2.78573135594e-08
1.54881978385e-05
3.12587528132e-08
1.54961011089e-05
3.43181250391e-08
1.55041107186e-05
3.71291785752e-08
1.55121934384e-05
3.97534265531e-08
1.55203461846e-05
4.22293613219e-08
1.55285892464e-05
4.45779465815e-08
1.55369591096e-05
4.6806384602e-08
1.55455038482e-05
4.89109572467e-08
1.55542766224e-05
5.08796163153e-08
1.55633323265e-05
5.26943477613e-08
1.55727210073e-05
5.43334212418e-08
1.55824860454e-05
5.57736435986e-08
5.69891779433e-08
1.55926563425e-05
1.8840485867e-05
4.76829848456e-09
1.88457657545e-05
8.74380313565e-09
1.88528616501e-05
1.23359130128e-08
1.88612147494e-05
1.56231403827e-08
1.88704103151e-05
1.8661501148e-08
1.88801725316e-05
2.14962768803e-08
1.88903272402e-05
2.41633210013e-08
1.89007682067e-05
2.66879734688e-08
1.89114368212e-05
2.90848565882e-08
1.89223069445e-05
3.13588794859e-08
1.89333779734e-05
3.35070810745e-08
1.89446636554e-05
3.55203173836e-08
1.895618984e-05
3.73851558305e-08
1.89679838144e-05
3.90853487541e-08
1.8980075399e-05
4.06034856528e-08
1.89924863979e-05
4.19222313194e-08
1.90052354807e-05
4.30257866069e-08
4.38987536037e-08
1.90183256741e-05
2.29669727251e-05
1.13251406943e-09
2.29737080715e-05
2.00787317652e-09
2.29827810005e-05
3.26249751035e-09
2.29935081594e-05
4.89530152531e-09
2.30053877436e-05
6.78143271532e-09
2.30180827869e-05
8.80059034357e-09
2.30313738122e-05
1.08719627389e-08
2.30451159027e-05
1.2945234762e-08
2.30592174933e-05
1.49831733664e-08
2.30736197928e-05
1.6955890468e-08
2.30882920923e-05
1.88349498836e-08
2.31032155736e-05
2.05960487849e-08
2.31183852963e-05
2.2215895253e-08
2.31337944897e-05
2.3675428224e-08
2.31494417403e-05
2.49570844268e-08
2.31653152065e-05
2.60480267721e-08
2.31814047767e-05
2.69376603404e-08
2.76191356889e-08
2.31976834133e-05
1.68138465595e-05
-2.00958107057e-09
1.68195425511e-05
-3.688981944e-09
1.68270336396e-05
-4.22899730159e-09
1.68357084153e-05
-3.78080133806e-09
1.68451831044e-05
-2.69324689323e-09
1.68552226417e-05
-1.24071519296e-09
1.68656799755e-05
4.15154120676e-10
1.68764481613e-05
2.17510263577e-09
1.68874597025e-05
3.97270657383e-09
1.68986604446e-05
5.75315578057e-09
1.69100214775e-05
7.47532025133e-09
1.69215125857e-05
9.1029064424e-09
1.69331204529e-05
1.0609858609e-08
1.69448215023e-05
1.19724253099e-08
1.69566054725e-05
1.31752632288e-08
1.69684471057e-05
1.42047465039e-08
1.69803327639e-05
1.50546494483e-08
1.57193388966e-08
1.69922315159e-05
1.46379214864e-05
-5.3628599598e-09
1.46438458077e-05
-9.61387176687e-09
1.46513335207e-05
-1.17174830949e-08
1.46597210423e-05
-1.21688853032e-08
1.46686831219e-05
-1.16566828062e-08
1.46780534281e-05
-1.06113285671e-08
1.46877206913e-05
-9.25389583643e-09
1.46976070619e-05
-7.71092299919e-09
1.47076522834e-05
-6.07421831783e-09
1.47178183766e-05
-4.41232688771e-09
1.4728071965e-05
-2.77989780184e-09
1.47383927519e-05
-1.21691873763e-09
1.47487563286e-05
2.4469222636e-10
1.47591478012e-05
1.58227357977e-09
1.47695438518e-05
2.77791359511e-09
1.47799303704e-05
3.8200740355e-09
1.47902835687e-05
4.70056346985e-09
5.41611604046e-09
1.48005892593e-05
1.2743924663e-05
-9.15589540757e-09
1.27503085669e-05
-1.59981274012e-08
1.27578939375e-05
-1.93034543068e-08
1.27660142748e-05
-2.02898952368e-08
1.27744656796e-05
-2.01087887731e-08
1.27831624502e-05
-1.93091555168e-08
1.27920364691e-05
-1.8128417161e-08
1.28010324074e-05
-1.6707882081e-08
1.28101110788e-05
-1.51533415899e-08
1.28192437492e-05
-1.35457402367e-08
1.28284081018e-05
-1.19448461654e-08
1.28375846233e-05
-1.03938824963e-08
1.28467539697e-05
-8.92535509326e-09
1.28558981913e-05
-7.56197241014e-09
1.28649981007e-05
-6.32232324323e-09
1.28740366916e-05
-5.21807584701e-09
1.28829963584e-05
-4.25863436158e-09
-3.44727891004e-09
1.28918599266e-05
1.10954535012e-05
-1.36804583834e-08
1.11024817619e-05
-2.30266352617e-08
1.11101519809e-05
-2.69738781847e-08
1.11179488884e-05
-2.80872051784e-08
1.11258573424e-05
-2.80177434361e-08
1.11338700402e-05
-2.73225462956e-08
1.11419518457e-05
-2.6210780776e-08
1.11500716739e-05
-2.48282267729e-08
1.11582095629e-05
-2.32916153979e-08
1.11663505646e-05
-2.16875317769e-08
1.11744822316e-05
-2.00766213807e-08
1.11825889389e-05
-1.85019967479e-08
1.11906571472e-05
-1.69933203912e-08
1.11986676097e-05
-1.55741410063e-08
1.12066070099e-05
-1.42606104804e-08
1.12144563643e-05
-1.30685603027e-08
1.12222085501e-05
-1.20092418932e-08
-1.10950073326e-08
1.12298554242e-05
9.66086796807e-06
-1.93340001675e-08
9.66864343119e-06
-3.08021983954e-08
9.67627527388e-06
-3.46059106526e-08
9.68365659117e-06
-3.54687708156e-08
9.69098718482e-06
-3.5348678324e-08
9.69830769412e-06
-3.46432882524e-08
9.70560525256e-06
-3.35086393876e-08
9.71287202637e-06
-3.20952783092e-08
9.72010648938e-06
-3.05263244251e-08
9.72730665335e-06
-2.88879568596e-08
9.73446720597e-06
-2.72376892334e-08
9.74157917377e-06
-2.56143678785e-08
9.74862979373e-06
-2.4045007131e-08
9.75560461389e-06
-2.25490132077e-08
9.76248598799e-06
-2.11425493036e-08
9.76925700005e-06
-1.98393341066e-08
9.77590073237e-06
-1.86528557319e-08
-1.75954262112e-08
9.78240124693e-06
8.41266441033e-06
-2.66459608464e-08
8.4211303534e-06
-3.92681656308e-08
8.42851073001e-06
-4.19863146719e-08
8.43539075754e-06
-4.23490473195e-08
8.44212297265e-06
-4.20810061656e-08
8.44875458521e-06
-4.12751434975e-08
8.45529349735e-06
-4.00476545063e-08
8.46175587323e-06
-3.85577021236e-08
8.46815638987e-06
-3.69268611395e-08
8.4745024473e-06
-3.52340497316e-08
8.48079414644e-06
-3.35296930525e-08
8.4870260052e-06
-3.18466338817e-08
8.49318763004e-06
-3.02071225816e-08
8.49926499318e-06
-2.86267144486e-08
8.50524063971e-06
-2.71183382157e-08
8.51109731085e-06
-2.56957233269e-08
8.51682499979e-06
-2.43814172557e-08
-2.32161074833e-08
8.52244612784e-06
7.32692278313e-06
-3.62844440618e-08
7.33577599145e-06
-4.81213785251e-08
7.34266969979e-06
-4.88801751942e-08
7.34899864561e-06
-4.86780620913e-08
7.35510872106e-06
-4.8191259023e-08
7.36103154898e-06
-4.71979525967e-08
7.36680455781e-06
-4.58206711552e-08
7.37246949527e-06
-4.42225767915e-08
7.37805557196e-06
-4.25128350827e-08
7.38357821104e-06
-4.07568565506e-08
7.38904289877e-06
-3.89944278487e-08
7.39444800157e-06
-3.72520558546e-08
7.39978574259e-06
-3.55450745673e-08
7.4050432473e-06
-3.38843369798e-08
7.4102007396e-06
-3.22758038539e-08
7.41522876307e-06
-3.07237527356e-08
7.42008674889e-06
-2.92398408861e-08
-2.7863611073e-08
7.42473334971e-06
6.38281692753e-06
-4.90353517285e-08
6.39143726756e-06
-5.67417119652e-08
6.39771453441e-06
-5.51574068847e-08
6.4035428399e-06
-5.45071160286e-08
6.4090779118e-06
-5.37259192734e-08
6.41434554525e-06
-5.24655563297e-08
6.41941450926e-06
-5.08895418522e-08
6.42434318979e-06
-4.9151122976e-08
6.42916883101e-06
-4.73383968927e-08
6.43391243981e-06
-4.55003033901e-08
6.43858414506e-06
-4.36670099446e-08
6.44318831611e-06
-4.18558039e-08
6.44772172971e-06
-4.00785474542e-08
6.45217711868e-06
-3.83397221865e-08
6.45653851448e-06
-3.6637068177e-08
6.46077399726e-06
-3.49592497155e-08
6.46482815156e-06
-3.32942024259e-08
-3.16638084674e-08
6.46862676964e-06
5.56204648301e-06
-6.56172549849e-08
5.56925855795e-06
-6.39537163497e-08
5.57461183519e-06
-6.05109841504e-08
5.57958573166e-06
-5.94814925834e-08
5.58411104349e-06
-5.82509586589e-08
5.58825704782e-06
-5.66113034209e-08
5.592118464e-06
-5.47508002184e-08
5.59576004009e-06
-5.27925104677e-08
5.59922244498e-06
-5.08005377317e-08
5.60253157918e-06
-4.88100221384e-08
5.60570579024e-06
-4.68414621333e-08
5.60875801734e-06
-4.4907845318e-08
5.61169653701e-06
-4.30167626923e-08
5.61452663035e-06
-4.11697018672e-08
5.61724704117e-06
-3.93572790369e-08
5.61983490526e-06
-3.75468284144e-08
5.62219948533e-06
-3.56599061384e-08
-3.34834213398e-08
5.62401866634e-06
4.84577069485e-06
-8.37806169138e-08
4.84721890457e-06
-6.54019014292e-08
4.84734274469e-06
-6.063512561e-08
4.84611533527e-06
-5.82545860336e-08
4.84365888322e-06
-5.57942067728e-08
4.84029641073e-06
-5.32485349405e-08
4.83627330016e-06
-5.07274824455e-08
4.83176280742e-06
-4.82817629551e-08
4.82689328426e-06
-4.59309332548e-08
4.82176427674e-06
-4.36814672019e-08
4.81645622055e-06
-4.15337473676e-08
4.8110345647e-06
-3.94858646485e-08
4.80555281165e-06
-3.75346646184e-08
4.80005738097e-06
-3.56740611709e-08
4.79459236244e-06
-3.38919338895e-08
4.78920161725e-06
-3.21561869393e-08
4.78391933119e-06
-3.0378097526e-08
-2.77676340439e-08
4.77820250094e-06
4.11889561984e-06
4.05349369763e-06
3.99285851893e-06
3.93460396124e-06
3.87880978664e-06
3.8255612746e-06
3.77483382175e-06
3.72655208212e-06
3.68062108837e-06
3.63693955085e-06
3.5954058515e-06
3.55592005593e-06
3.51838542946e-06
3.48271142798e-06
3.44881952256e-06
3.41666322124e-06
3.38628486967e-06
3.35851736697e-06
2.09970768156e-08
-2.10222820505e-08
5.79588788092e-09
1.51721530874e-08
-6.50501698887e-08
7.08358217875e-08
-1.65070571474e-07
1.00009180005e-07
-2.8042892162e-07
1.15355920974e-07
-4.06006714967e-07
1.25571626297e-07
-5.39142351652e-07
1.33135660942e-07
-6.7803324505e-07
1.38886558532e-07
-8.21274863768e-07
1.43242152132e-07
-9.67748360331e-07
1.46469898323e-07
-1.11651029664e-06
1.4876263846e-07
-1.26678394728e-06
1.5027054279e-07
-1.41789995043e-06
1.51116834433e-07
-1.56930838726e-06
1.51405966808e-07
-1.72053614767e-06
1.51228818621e-07
-1.87120332822e-06
1.5066539449e-07
-2.02098913973e-06
1.49787153422e-07
-2.16964853414e-06
1.48658082204e-07
-2.31698343596e-06
1.47336084503e-07
-2.46285823292e-06
1.45873476877e-07
-2.60717526687e-06
1.44317957514e-07
-2.74988988819e-06
1.42712943094e-07
-2.89098800811e-06
1.41098395173e-07
-3.03050101571e-06
1.39510887087e-07
-3.1684852665e-06
1.37984189693e-07
-3.30503675537e-06
1.36549196159e-07
-3.4402709593e-06
1.35234178308e-07
-3.57433742298e-06
1.34064193818e-07
-3.70739846631e-06
1.3306103717e-07
-3.83964279479e-06
1.32242194551e-07
-3.97126262625e-06
1.31620273525e-07
-4.10246594056e-06
1.31201479205e-07
-4.23345020821e-06
1.30984944501e-07
-4.36441256178e-06
1.30960946725e-07
-4.49552147547e-06
1.3111026533e-07
-4.62692526711e-06
1.314027419e-07
-4.75872098498e-06
1.31797341673e-07
-4.89096330192e-06
1.32241360947e-07
-5.02363324941e-06
1.3267168498e-07
-5.15664927514e-06
1.33015153664e-07
-5.28983860791e-06
1.33191228641e-07
-5.42295242462e-06
1.33113265681e-07
-5.55564247915e-06
1.32692292977e-07
-5.68748120822e-06
1.31838789567e-07
-5.81794535221e-06
1.30466894253e-07
-5.94644176028e-06
1.28497257232e-07
-6.07229907998e-06
1.25860561737e-07
-6.19479546664e-06
1.2249807019e-07
-6.31315520795e-06
1.18363435548e-07
-6.42657686559e-06
1.13424119179e-07
-6.53423789441e-06
1.07665181834e-07
-6.63532042534e-06
1.01085860165e-07
-6.72901357088e-06
9.36977416196e-08
-6.81453294731e-06
8.55237602052e-08
-6.89112208162e-06
7.65944445379e-08
-6.9580599659e-06
6.69432704318e-08
-7.01467735414e-06
5.66231762459e-08
-7.06035092306e-06
4.5679666095e-08
-7.09447507543e-06
3.41301100221e-08
-7.11643150123e-06
2.19629066888e-08
-7.12553741962e-06
9.1118489436e-09
-7.12107055936e-06
-4.46032806479e-09
-7.10238122968e-06
-1.86838708866e-08
-7.06888099089e-06
-3.34938593808e-08
-7.01999513725e-06
-4.88807796074e-08
-6.95515645939e-06
-6.48325146174e-08
-6.87383724336e-06
-8.13146701001e-08
-6.7755789699e-06
-9.82525690827e-08
-6.66005514318e-06
-1.15520134918e-07
-6.52712078643e-06
-1.3292945479e-07
-6.37688623369e-06
-1.50231801953e-07
-6.20975788813e-06
-1.67124071385e-07
-6.02648642797e-06
-1.8326945847e-07
-5.8281638899e-06
-1.98318280234e-07
-5.61622450289e-06
-2.11937236002e-07
-5.39238624015e-06
-2.23833218849e-07
-5.15860686696e-06
-2.33776551747e-07
-4.9169954167e-06
-2.41606151524e-07
-4.66975495127e-06
-2.47238515625e-07
-4.4190766395e-06
-2.50673262046e-07
-4.1670913736e-06
-2.51983678288e-07
-3.9158014335e-06
-2.51285495625e-07
-3.66705628829e-06
-2.48745303058e-07
-3.42246265594e-06
-2.44589918315e-07
-3.18340258581e-06
-2.39061342659e-07
-2.95101633153e-06
-2.32385707608e-07
-2.72621524295e-06
-2.24808716734e-07
-2.50968620973e-06
-2.16541649659e-07
-2.30189205224e-06
-2.07816144093e-07
-2.10295755719e-06
-1.98974564865e-07
-1.91292067702e-06
-1.90079517489e-07
-1.73182210685e-06
-1.81147539111e-07
-1.55926451524e-06
-1.72604776651e-07
-1.3949683108e-06
-1.64348994182e-07
-1.238794836e-06
-1.562229029e-07
-1.08974682799e-06
-1.49101471412e-07
-9.47090830589e-07
-1.42701704467e-07
-8.12275312162e-07
-1.34862528336e-07
-6.84857235963e-07
-1.2745390574e-07
-5.61771216765e-07
-1.23118606938e-07
-4.44629305883e-07
-1.1716089286e-07
-3.33955176915e-07
-1.10672605382e-07
-2.26249663406e-07
-1.07672750719e-07
-1.20364349537e-07
-1.05812632063e-07
-1.91059910086e-08
-1.01123073072e-07
7.14612805475e-08
-9.03995596261e-08
1.47376286118e-07
-7.5774001085e-08
2.12498899324e-07
-6.50061366481e-08
2.70351347388e-07
-5.77602952986e-08
3.22353899363e-07
-5.19207975385e-08
3.69204649059e-07
-4.67890850745e-08
4.11499053413e-07
-4.22381867544e-08
4.4975974528e-07
-3.82222337577e-08
4.8447784978e-07
-3.46822675634e-08
5.1608341753e-07
-3.15848821297e-08
5.44994621525e-07
-2.88899583684e-08
5.71582686714e-07
-2.65790733629e-08
5.96214416859e-07
-2.46229798454e-08
6.19221209896e-07
-2.30073679319e-08
6.40934894529e-07
-2.17046133475e-08
6.61649233575e-07
-2.06966828344e-08
6.81642138712e-07
-1.99548719539e-08
7.01144044247e-07
-1.94609097915e-08
7.20376524807e-07
-1.91855810648e-08
7.39522065804e-07
-1.91119361415e-08
7.58762815337e-07
-1.92088912892e-08
7.78238500988e-07
-1.94586098365e-08
7.98086336184e-07
-1.98306773201e-08
8.18400119874e-07
-2.03087946669e-08
8.39272212518e-07
-2.08649243979e-08
8.60753969192e-07
-2.14849372083e-08
8.82897561346e-07
-2.21436374707e-08
9.05717270314e-07
-2.28293722257e-08
9.29230422523e-07
-2.3520161188e-08
9.53420326023e-07
-2.42068912703e-08
9.78275274105e-07
-2.48709351245e-08
1.00375387347e-06
-2.55054989224e-08
1.02981990589e-06
-2.60956835884e-08
1.05641542653e-06
-2.66367162065e-08
1.08348990344e-06
-2.7116556796e-08
1.11097777269e-06
-2.75296629568e-08
1.13881156061e-06
-2.78668829095e-08
1.16690886358e-06
-2.81228195773e-08
1.19518330211e-06
-2.82917105734e-08
1.22354076929e-06
-2.83703587587e-08
1.25188716595e-06
-2.83543579977e-08
1.28012253625e-06
-2.82414497244e-08
1.30814820933e-06
-2.80287815503e-08
1.33586127047e-06
-2.77159026206e-08
1.36316155787e-06
-2.73014608801e-08
1.38994632114e-06
-2.67867396392e-08
1.41611732954e-06
-2.61720532758e-08
1.44157494033e-06
-2.54599472483e-08
1.46622567015e-06
-2.46523458492e-08
1.48997646369e-06
-2.375372544e-08
1.51274228378e-06
-2.27679160236e-08
1.53443990806e-06
-2.17008430222e-08
1.55499491377e-06
-2.05571869336e-08
1.57433491047e-06
-1.93431092228e-08
1.59239613012e-06
-1.80631548141e-08
1.6091157414e-06
-1.67223703293e-08
1.62443734177e-06
-1.53231091444e-08
1.63830215458e-06
-1.38670780598e-08
1.65065376318e-06
-1.23525460831e-08
1.66142962723e-06
-1.0777466651e-08
1.67056685774e-06
-9.13738870953e-09
1.67799718009e-06
-7.43104254814e-09
1.68366318293e-06
-5.66517542913e-09
1.68753333852e-06
-3.86985747439e-09
1.68965513363e-06
-2.11994499852e-09
1.69026700595e-06
-6.10678801892e-10
1.68941095546e-06
8.58587004387e-10
1.68666927009e-06
2.74325593212e-09
1.68140640249e-06
5.26551124345e-09
1.67258697944e-06
8.82075061102e-09
1.6586945956e-06
1.38944110893e-08
1.6375886159e-06
2.11063371548e-08
1.60611144549e-06
3.14789408482e-08
1.55897763417e-06
4.71366606587e-08
6.21453142612e-08
1.49684054851e-06
-8.97433513063e-08
6.87113456318e-08
-2.10324480336e-07
1.35745917607e-07
-3.16597760591e-07
1.77105811468e-07
-4.27034955662e-07
2.10441838271e-07
-5.46846392202e-07
2.35165745656e-07
-6.75022793859e-07
2.53744674305e-07
-8.09786734132e-07
2.67898755072e-07
-9.4957165884e-07
2.78668688667e-07
-1.09307336062e-06
2.86743411391e-07
-1.23922077445e-06
2.92614792972e-07
-1.38711316744e-06
2.96654756571e-07
-1.53600370673e-06
2.99158881681e-07
-1.68525813166e-06
3.0037121051e-07
-1.83435315251e-06
3.00499264307e-07
-1.98284717308e-06
2.99723118782e-07
-2.13038435068e-06
2.98201409886e-07
-2.27667175186e-06
2.96075179096e-07
-2.42148522537e-06
2.93470830302e-07
-2.56465059145e-06
2.90502159583e-07
-2.70604995954e-06
2.87272193446e-07
-2.84560598106e-06
2.83874518403e-07
-2.98328857688e-06
2.8039473389e-07
-3.11910131825e-06
2.76911338455e-07
-3.25308843146e-06
2.73496801853e-07
-3.38532235556e-06
2.7021806379e-07
-3.5159112859e-06
2.67136922628e-07
-3.644987046e-06
2.64309818376e-07
-3.77271176089e-06
2.61787515595e-07
-3.89926471406e-06
2.59613841028e-07
-4.02484801639e-06
2.57824224984e-07
-4.14967127059e-06
2.56443460395e-07
-4.27395448255e-06
2.55483467665e-07
-4.39790973757e-06
2.54940314588e-07
-4.52174133984e-06
2.54791635924e-07
-4.64562457107e-06
2.54993913086e-07
-4.76970328529e-06
2.55480801132e-07
-4.89406702393e-06
2.56161690981e-07
-5.01874819419e-06
2.5692202977e-07
-5.14370021477e-06
2.57624436965e-07
-5.26879741441e-06
2.58112067253e-07
-5.39381795598e-06
2.58212732057e-07
-5.5184493113e-06
2.57744759571e-07
-5.64227893389e-06
2.56523309499e-07
-5.76480683932e-06
2.54367489621e-07
-5.88544581453e-06
2.51107858295e-07
-6.00354135742e-06
2.46594385469e-07
-6.11838006206e-06
2.40701878838e-07
-6.22921345713e-06
2.33333789975e-07
-6.335268505e-06
2.24421691017e-07
-6.4357697344e-06
2.13928436183e-07
-6.52995242441e-06
2.01851623e-07
-6.61708017987e-06
1.88217454042e-07
-6.69645358135e-06
1.73075580263e-07
-6.76742129092e-06
1.56496164876e-07
-6.8293789715e-06
1.38557299431e-07
-6.8817742829e-06
1.19344100894e-07
-6.9240799813e-06
9.8934618137e-08
-6.9557746401e-06
7.73803606102e-08
-6.976341334e-06
5.47028792033e-08
-6.98524930629e-06
3.087723874e-08
-6.98199221399e-06
5.86088983101e-09
-6.96610854314e-06
-2.03377093128e-08
-6.93705931018e-06
-4.77271737411e-08
-6.89414347683e-06
-7.64035967276e-08
-6.83660114211e-06
-1.0641746831e-07
-6.7636518926e-06
-1.37775942222e-07
-6.67454237714e-06
-1.70418960465e-07
-6.5685988676e-06
-2.04190850159e-07
-6.44529900847e-06
-2.38815563063e-07
-6.3043439916e-06
-2.73880146551e-07
-6.14573898143e-06
-3.08833341763e-07
-5.96985354559e-06
-3.43005949598e-07
-5.7774643913e-06
-3.75655722511e-07
-5.56975637132e-06
-4.06023093241e-07
-5.34829989376e-06
-4.33390725003e-07
-5.11498778604e-06
-4.57141448244e-07
-4.87195695101e-06
-4.76804070854e-07
-4.62149068257e-06
-4.92068763432e-07
-4.36593834989e-06
-5.02787875001e-07
-4.10761854744e-06
-5.08989534991e-07
-3.84873348677e-06
-5.10866249237e-07
-3.59132043831e-06
-5.08695796493e-07
-3.33720619816e-06
-5.02857872812e-07
-3.08796489239e-06
-4.93829050017e-07
-2.84493633212e-06
-4.82089169734e-07
-2.60919054563e-06
-4.68132325943e-07
-2.38142641209e-06
-4.52578731982e-07
-2.16219783702e-06
-4.35780696595e-07
-1.95199989025e-06
-4.18041719863e-07
-1.75072540899e-06