/*--------------------------------*- C++ -*----------------------------------*\
| =========                 |                                                 |
| \\      /  F ield         | OpenFOAM: The Open Source CFD Toolbox           |
|  \\    /   O peration     | Version:  v1806                                 |
|   \\  /    A nd           | Web:      www.OpenFOAM.com                      |
|    \\/     M anipulation  |                                                 |
\*---------------------------------------------------------------------------*/
FoamFile
{
    version     2.0;
    format      ascii;
    class       volVectorField;
    location    "6";
    object      U;
}
// * * * * * * * * * * * * * * * * * * * * * * * * * * * * * * * * * * * * * //

dimensions      [0 1 -1 0 0 0 0];


internalField   nonuniform List<vector> 
12225
(
(9.73563031534 0.0375405859856 0)
(9.49949231217 0.041673457766 0)
(9.24955273182 0.0412781746124 0)
(9.00128115938 0.040553615555 0)
(8.76288058057 0.0399022235116 0)
(8.53654642697 0.0393232255959 0)
(8.32213206744 0.0387645632541 0)
(8.11876672499 0.0381909403741 0)
(7.92545485957 0.0375940457937 0)
(7.74127732534 0.0369855030159 0)
(7.56542661295 0.0363878052942 0)
(7.39717652655 0.0358284447748 0)
(7.23583183699 0.0353373990652 0)
(7.08068266514 0.0349488900704 0)
(6.9309390298 0.0347100458583 0)
(6.78557935718 0.0347147561962 0)
(6.64329136637 0.0353257720781 0)
(6.49240100944 0.0304652246033 0)
(10.014246329 0.0681394425024 0)
(10.0347041928 0.0730842202516 0)
(10.0266319952 0.0699510644855 0)
(10.0010512942 0.0678759431544 0)
(9.96693634649 0.067095298451 0)
(9.92804520088 0.0670715608161 0)
(9.88580593462 0.0673763513727 0)
(9.84081469453 0.0677639787887 0)
(9.79339938096 0.068131393498 0)
(9.74381418391 0.0684643101558 0)
(9.69228548059 0.0687960307392 0)
(9.63899785008 0.0691839942045 0)
(9.58406247426 0.0697000026113 0)
(9.52748293285 0.07043369906 0)
(9.46910836121 0.0715143100587 0)
(9.40855013289 0.0731767194581 0)
(9.34569102135 0.0760265476641 0)
(9.2738536438 0.0822050404566 0)
(10.0201522399 0.0566919514835 0)
(10.0527562223 0.0616270043371 0)
(10.0701938331 0.0583517227719 0)
(10.0766184794 0.0572903541599 0)
(10.0783686983 0.0583208816698 0)
(10.0780159576 0.0603655452163 0)
(10.0761780018 0.0626970861445 0)
(10.072827671 0.0649525734658 0)
(10.067800106 0.0670127263165 0)
(10.060959646 0.0688952968631 0)
(10.0522287012 0.0706845614512 0)
(10.041566098 0.0724947475522 0)
(10.0289319817 0.0744572510227 0)
(10.0142539732 0.0767279851669 0)
(9.99739997471 0.079517890237 0)
(9.97816277165 0.0831579102385 0)
(9.95668977137 0.0881993566482 0)
(9.92934122588 0.0943299385324 0)
(10.0153967993 0.0466651502556 0)
(10.0430242721 0.0565368818562 0)
(10.0615352625 0.0568657239515 0)
(10.0712904711 0.0580121332046 0)
(10.0772308903 0.0604963093707 0)
(10.0818093063 0.0634641136399 0)
(10.0856960155 0.0663459186314 0)
(10.0888892603 0.0689179438063 0)
(10.0912095153 0.0711741109595 0)
(10.0924790938 0.0732175967377 0)
(10.0925658002 0.075194472722 0)
(10.0913753915 0.0772636131175 0)
(10.0888293027 0.0795910497598 0)
(10.0848437004 0.0823630204148 0)
(10.0793205056 0.0858162188453 0)
(10.072156507 0.0902788959348 0)
(10.0634692421 0.0962001710132 0)
(10.05155306 0.103456164537 0)
(10.0114423832 0.0388217263702 0)
(10.0339512965 0.051576917392 0)
(10.0512326076 0.0540309640723 0)
(10.0613335215 0.0557708697159 0)
(10.0678016919 0.0582249623346 0)
(10.0728944503 0.0609785541886 0)
(10.0773566822 0.0636529319907 0)
(10.0812676703 0.0661110871116 0)
(10.0844997803 0.0683804329469 0)
(10.0869029913 0.0705704049794 0)
(10.0883588934 0.0728217024954 0)
(10.0887831624 0.0752852743358 0)
(10.0881123019 0.0781214302072 0)
(10.0862912676 0.0815135599399 0)
(10.0832726248 0.0856923349866 0)
(10.0790303651 0.090960927931 0)
(10.0736721555 0.0977087502994 0)
(10.066466289 0.106116574465 0)
(10.0084695623 0.0324796451123 0)
(10.026653232 0.0465830968108 0)
(10.0423291795 0.0508305265706 0)
(10.0523618849 0.053345525803 0)
(10.0590210003 0.0561316264496 0)
(10.0642479656 0.0591325750387 0)
(10.0687997073 0.0620918478784 0)
(10.0728107951 0.0649004514671 0)
(10.0761947354 0.0675806363827 0)
(10.0788260822 0.0702284727802 0)
(10.0806014761 0.0729737013906 0)
(10.081449728 0.0759620000931 0)
(10.0813252458 0.0793536739042 0)
(10.0802014593 0.0833336881568 0)
(10.0780738879 0.0881280524311 0)
(10.0749753462 0.094018387111 0)
(10.0710465973 0.101349723344 0)
(10.0660764559 0.110421372717 0)
(10.0062601728 0.0273534399988 0)
(10.0208797848 0.0418210357735 0)
(10.0348347829 0.0475185772535 0)
(10.0445751148 0.0508273042942 0)
(10.0513156562 0.0539750905206 0)
(10.0566208764 0.0571986926419 0)
(10.0612121653 0.0603631378449 0)
(10.0652622905 0.0633969346646 0)
(10.0687212405 0.066330317417 0)
(10.0714878793 0.0692595378305 0)
(10.0734750168 0.072314868643 0)
(10.0746256739 0.0756443830658 0)
(10.0749120494 0.0794112926801 0)
(10.0743332927 0.083799935296 0)
(10.0729206155 0.0890254891548 0)
(10.0707520416 0.0953404415202 0)
(10.068001403 0.103034431184 0)
(10.0646847978 0.112371818889 0)
(10.0046305263 0.0232030125201 0)
(10.0163565665 0.0373915882715 0)
(10.0285976176 0.0441448535694 0)
(10.0378702596 0.0481816353159 0)
(10.0445934744 0.0516911032706 0)
(10.049942286 0.055132846837 0)
(10.0545639798 0.058493978956 0)
(10.0586524812 0.0617485172684 0)
(10.0621894297 0.0649394693815 0)
(10.0650977476 0.0681644293905 0)
(10.067307495 0.0715519065501 0)
(10.0687767947 0.0752473087091 0)
(10.0694952791 0.0794091372019 0)
(10.0694849321 0.0842115722099 0)
(10.0688057792 0.0898485904423 0)
(10.0675685629 0.0965341209671 0)
(10.0659673854 0.10449506056 0)
(10.0641448095 0.113919235261 0)
(10.0034349272 0.0198271633733 0)
(10.0128421634 0.0333423925973 0)
(10.0234615792 0.0407733272882 0)
(10.0321428724 0.0454315611099 0)
(10.0387572226 0.0492905684903 0)
(10.0441154374 0.0529482399667 0)
(10.0487627223 0.0564989337068 0)
(10.0528964328 0.0599623789991 0)
(10.0565233864 0.063394757709 0)
(10.0595892449 0.0668937839911 0)
(10.0620416876 0.0705834782997 0)
(10.0638542231 0.0746026351729 0)
(10.0650328978 0.0791001350792 0)
(10.0656189504 0.0842345116125 0)
(10.0656938768 0.0901735946791 0)
(10.0653887452 0.0970900694663 0)
(10.0649009734 0.105150273195 0)
(10.0644420103 0.114467120326 0)
(10.0025607907 0.0170607955218 0)
(10.0101318229 0.0296816654578 0)
(10.0192771867 0.0374550069322 0)
(10.0272964275 0.0425962705497 0)
(10.0337242259 0.0467704928527 0)
(10.0390583885 0.0506327211741 0)
(10.0437273552 0.0543608199507 0)
(10.0479158992 0.0580166619174 0)
(10.0516485853 0.0616695319383 0)
(10.0548914692 0.0654165333986 0)
(10.0576092879 0.0693754150837 0)
(10.0597902798 0.0736754712238 0)
(10.0614548677 0.0784523335046 0)
(10.062659029 0.0838450124883 0)
(10.0634978913 0.089992477224 0)
(10.0641111906 0.0970265456978 0)
(10.0646865318 0.105059691397 0)
(10.0654789708 0.114144714209 0)
(10.0019214352 0.0147746391196 0)
(10.0080535724 0.0264050152138 0)
(10.0159020554 0.0342475454694 0)
(10.0232377382 0.0397166345576 0)
(10.0294218297 0.0441458060174 0)
(10.0347032065 0.0481833535128 0)
(10.0393917772 0.0520635953158 0)
(10.0436471667 0.0558838698997 0)
(10.047503941 0.0597250679275 0)
(10.0509451709 0.0636824806947 0)
(10.0539511304 0.0678654639959 0)
(10.056523247 0.0723909512204 0)
(10.0586934556 0.0773779824327 0)
(10.0605274316 0.0829434619113 0)
(10.0621263928 0.0891966824906 0)
(10.063629116 0.0962317387057 0)
(10.0652033077 0.104116628128 0)
(10.0671319734 0.11286169834 0)
(10.0014900308 0.0129834613909 0)
(10.0065993438 0.0236764591584 0)
(10.0134272763 0.0314022510913 0)
(10.0201512271 0.0370471070145 0)
(10.0260798272 0.0416532755199 0)
(10.0312939939 0.0458228471676 0)
(10.0360024202 0.0498186567467 0)
(10.0403336541 0.0537630433312 0)
(10.0443243366 0.0577455913883 0)
(10.0479691974 0.0618588718523 0)
(10.0512604738 0.0662030773805 0)
(10.0542093966 0.0708818965972 0)
(10.0568553133 0.0759975247622 0)
(10.0592681205 0.0816453081592 0)
(10.0615485352 0.0879084741883 0)
(10.0638278798 0.0948503250516 0)
(10.0662521042 0.102506380753 0)
(10.0691251329 0.110859801393 0)
(10.0011648617 0.0114714773199 0)
(10.0054636989 0.0212336332162 0)
(10.0114211266 0.0286846223366 0)
(10.0175708232 0.0343695572635 0)
(10.0232304178 0.039079242034 0)
(10.0283617968 0.0433411160483 0)
(10.0330858935 0.0474217010837 0)
(10.0374977208 0.0514576512652 0)
(10.041631305 0.0555440601877 0)
(10.0454895602 0.0597697387491 0)
(10.0490741579 0.0642250856763 0)
(10.0524039664 0.0689997921069 0)
(10.055522729 0.0741786126204 0)
(10.058501106 0.0798360385042 0)
(10.0614353505 0.0860312995549 0)
(10.0644456555 0.0928019111753 0)
(10.0676537955 0.100157620594 0)
(10.0713828399 0.10806209006 0)
(10.0008920203 0.0099710807139 0)
(10.00448661 0.0187015772026 0)
(10.0096382456 0.025715015557 0)
(10.0152129189 0.0313124524499 0)
(10.0205816998 0.0360518978424 0)
(10.02562264 0.0403636040128 0)
(10.0303769872 0.0444971890503 0)
(10.0349020283 0.0485937781881 0)
(10.0392238066 0.0527496634101 0)
(10.043349791 0.0570476774538 0)
(10.0472885465 0.0615657557356 0)
(10.0510637339 0.0663773790699 0)
(10.0547203241 0.0715471365854 0)
(10.0583252287 0.0771274791293 0)
(10.0619651188 0.0831532687003 0)
(10.0657433866 0.0896382775955 0)
(10.0697537044 0.0965705644706 0)
(10.0743349583 0.103900792936 0)
(10.000675034 0.00848714102441 0)
(10.0036947055 0.0161001635742 0)
(10.0081478012 0.0225024994774 0)
(10.0131868211 0.0278425310982 0)
(10.018266126 0.0324863074903 0)
(10.0232184251 0.0367586528681 0)
(10.0280213799 0.0408738743469 0)
(10.0326948267 0.0449644540442 0)
(10.0372522672 0.0491211519929 0)
(10.0417007839 0.0534163218866 0)
(10.0460518618 0.0579130855504 0)
(10.0503300382 0.0626657884085 0)
(10.0545768992 0.067718215212 0)
(10.0588507761 0.0730999062572 0)
(10.0632235911 0.078823936173 0)
(10.067777975 0.0848835113058 0)
(10.0725767549 0.091251712227 0)
(10.0779740254 0.0978719540171 0)
(10.0005154676 0.0070003450273 0)
(10.0031041836 0.0134066189803 0)
(10.0070077396 0.0190163466666 0)
(10.0116038182 0.0238995472504 0)
(10.0164386741 0.0282795625014 0)
(10.0213322562 0.032380023064 0)
(10.0262188274 0.0363656993799 0)
(10.0310857651 0.0403466038355 0)
(10.0359308962 0.0443988485175 0)
(10.0407563875 0.0485794246598 0)
(10.0455712377 0.0529336074813 0)
(10.0503959176 0.0574956314147 0)
(10.0552636214 0.0622883129217 0)
(10.0602193826 0.0673207380951 0)
(10.0653164053 0.0725874359719 0)
(10.0706140516 0.0780670821958 0)
(10.0761446857 0.0837232342149 0)
(10.0822763474 0.0894991511257 0)
(10.0004127412 0.00545942182308 0)
(10.0027234484 0.0105418485657 0)
(10.0062634447 0.0151611965845 0)
(10.0105661127 0.0193592254065 0)
(10.0152566016 0.0232618489759 0)
(10.0201613841 0.027004521458 0)
(10.025190573 0.0306951021991 0)
(10.0303072341 0.0344100814835 0)
(10.0354938062 0.0382021956711 0)
(10.0407432265 0.0421086081763 0)
(10.0460572516 0.0461542967925 0)
(10.0514470404 0.0503540906279 0)
(10.0569330251 0.0547115335304 0)
(10.062543196 0.0592194782537 0)
(10.0683101242 0.063858919092 0)
(10.074269439 0.0686005494142 0)
(10.080425768 0.0734047567185 0)
(10.0871575308 0.078220243351 0)
(10.0003662711 0.00376599127382 0)
(10.0025619941 0.00733987728727 0)
(10.0059608135 0.0107333654488 0)
(10.0101791362 0.013985464248 0)
(10.0148885876 0.0171556466368 0)
(10.0199251562 0.0203044664205 0)
(10.0251882715 0.0234817377736 0)
(10.0306262199 0.0267238338564 0)
(10.0362086903 0.0300547175843 0)
(10.0419178546 0.0334880765435 0)
(10.0477446722 0.0370283549476 0)
(10.0536875501 0.0406716234777 0)
(10.0597516172 0.0444055760314 0)
(10.065947005 0.0482103149593 0)
(10.0722866208 0.0520586180409 0)
(10.0787855978 0.0559173190062 0)
(10.0854266052 0.0597482165315 0)
(10.0925987218 0.0635070914654 0)
(10.0003900482 0.0017235635867 0)
(10.0026724684 0.00345429866246 0)
(10.0062188248 0.00529992761893 0)
(10.0106420511 0.00729885693879 0)
(10.0156106619 0.00944572952616 0)
(10.0209604806 0.0117253250364 0)
(10.0265894826 0.0141264616174 0)
(10.0324417491 0.0166433365437 0)
(10.038479661 0.019270019116 0)
(10.0446753404 0.0219979633087 0)
(10.0510074428 0.0248130628797 0)
(10.0574601029 0.0276965985406 0)
(10.0640227776 0.0306244737757 0)
(10.0706889222 0.0335692364043 0)
(10.0774544468 0.0364997225321 0)
(10.0843177835 0.0393832203419 0)
(10.0912448808 0.0421853464148 0)
(10.0986281378 0.0448702840082 0)
(10.0005108029 -0.000410382858924 0)
(10.003131702 -0.000587162291396 0)
(10.0071711737 -0.000312997475611 0)
(10.012115481 0.000431355277623 0)
(10.0175691226 0.00155347905158 0)
(10.0233620063 0.00295256098035 0)
(10.0294098239 0.00455958357866 0)
(10.0356719643 0.00633180731323 0)
(10.04211597 0.00824159859914 0)
(10.0487104263 0.0102637378328 0)
(10.0554260612 0.012372609701 0)
(10.0622372698 0.0145392818016 0)
(10.0691237635 0.0167340552396 0)
(10.0760695453 0.0189251986428 0)
(10.0830619532 0.0210821363065 0)
(10.0900918532 0.0231738724983 0)
(10.0971184522 0.0251721231896 0)
(10.1045336915 0.0270481727553 0)
(10.000688202 -0.00245826951834 0)
(10.0038131078 -0.00438185964318 0)
(10.0085458918 -0.00542562899115 0)
(10.0141551296 -0.00565277364169 0)
(10.0201549211 -0.00529871061414 0)
(10.0263887649 -0.00456435439692 0)
(10.0328140069 -0.00356776061448 0)
(10.0394199724 -0.00237100825302 0)
(10.046185834 -0.00101251847242 0)
(10.0530806176 0.000474672549461 0)
(10.0600700654 0.00205806963367 0)
(10.0671231924 0.00370316625403 0)
(10.0742142901 0.00537626670509 0)
(10.0813238827 0.00704310827959 0)
(10.088436277 0.00867246670134 0)
(10.0955407428 0.0102347284433 0)
(10.1025952722 0.011704012932 0)
(10.1099964451 0.0130557374606 0)
(10.000975249 -0.00470713541024 0)
(10.0048800339 -0.0083879484163 0)
(10.0105877219 -0.0105619626228 0)
(10.0170217434 -0.0115177590556 0)
(10.0236125395 -0.0117263770092 0)
(10.0302718297 -0.0115016624111 0)
(10.0370378943 -0.0109936841243 0)
(10.0439446848 -0.0102682334954 0)
(10.0509856524 -0.00936446568652 0)
(10.0581294338 -0.00831681284772 0)
(10.0653370578 -0.00716233047018 0)
(10.0725729652 -0.00593789068022 0)
(10.0798083228 -0.00468085116216 0)
(10.0870212221 -0.00342424986004 0)
(10.0941949043 -0.00220023126426 0)
(10.1013182592 -0.00103623796491 0)
(10.1083499859 4.16136499783e-05 0)
(10.1156862763 0.00101242865991 0)
(10.001436631 -0.00731700857973 0)
(10.0065067673 -0.012762011098 0)
(10.0135046661 -0.0157953770597 0)
(10.0208728128 -0.0171936972347 0)
(10.0280328869 -0.0177627006697 0)
(10.0350594911 -0.017913163804 0)
(10.0421117135 -0.0177922993918 0)
(10.0492731101 -0.0174494974942 0)
(10.0565468635 -0.0169150356323 0)
(10.0638972425 -0.0162232104834 0)
(10.0712800124 -0.0154134981944 0)
(10.0786557007 -0.0145266476633 0)
(10.0859945188 -0.0136013742913 0)
(10.0932744053 -0.0126729783128 0)
(10.1004796014 -0.0117728724761 0)
(10.1075998891 -0.0109295847467 0)
(10.1145961583 -0.0101691221058 0)
(10.1218731835 -0.00951567409224 0)
(10.0021788053 -0.0104895354529 0)
(10.0089529412 -0.0176136904372 0)
(10.0175676776 -0.0210949422765 0)
(10.0258956818 -0.0226088548599 0)
(10.0335324613 -0.023350840511 0)
(10.0408356587 -0.0237618305011 0)
(10.048109667 -0.0239379519864 0)
(10.0554777147 -0.0238910764098 0)
(10.0629412885 -0.0236356242208 0)
(10.0704549639 -0.0232024354973 0)
(10.0779671352 -0.022631982615 0)
(10.0854359678 -0.0219673896404 0)
(10.0928313793 -0.0212481509847 0)
(10.1001328849 -0.0205102521837 0)
(10.1073250609 -0.0197847369357 0)
(10.1143967238 -0.0191018421331 0)
(10.1213060704 -0.0184895312295 0)
(10.1284444793 -0.0179761392607 0)
(10.0033663209 -0.0144894380246 0)
(10.012565023 -0.0229953497333 0)
(10.0230730539 -0.026363660768 0)
(10.0322660603 -0.0276773108409 0)
(10.0402234662 -0.0284565848034 0)
(10.047697577 -0.0290635344127 0)
(10.055132753 -0.0295035320276 0)
(10.0626698716 -0.0297451656728 0)
(10.0702958775 -0.0297885766042 0)
(10.0779507441 -0.0296612825983 0)
(10.0855750258 -0.0294029143149 0)
(10.0931248888 -0.0290535480091 0)
(10.1005716673 -0.0286478821074 0)
(10.1078964738 -0.028214285508 0)
(10.1150841027 -0.02777745511 0)
(10.1221221836 -0.0273618753241 0)
(10.1289677673 -0.026998950179 0)
(10.1360386142 -0.0267347559372 0)
(10.0052346331 -0.0196525696062 0)
(10.017766514 -0.028859412902 0)
(10.0303074483 -0.0314567262473 0)
(10.0401343245 -0.0323093340755 0)
(10.0482099051 -0.0329758214491 0)
(10.0557299116 -0.033586815562 0)
(10.0632356481 -0.0340263064206 0)
(10.0708570397 -0.0342297318686 0)
(10.0785572741 -0.0342037133256 0)
(10.0862616767 -0.0339947011945 0)
(10.0939064944 -0.0336606549286 0)
(10.1014505691 -0.03325494535 0)
(10.108870545 -0.0328172770538 0)
(10.1161520157 -0.0323749417002 0)
(10.1232806481 -0.0319457641296 0)
(10.1302358629 -0.0315438383776 0)
(10.1369501847 -0.031193589132 0)
(10.1437603229 -0.0309514424137 0)
(10.0081090838 -0.026375231744 0)
(10.0250373259 -0.0349778098898 0)
(10.0395109437 -0.0362735317335 0)
(10.0496558711 -0.0369071338316 0)
(10.0577035201 -0.038014575428 0)
(10.0652351938 -0.0393067740242 0)
(10.0728081024 -0.0404517170512 0)
(10.080501946 -0.0412860464365 0)
(10.0882405183 -0.0417801727707 0)
(10.0959303536 -0.0419771998954 0)
(10.1035042279 -0.0419479536106 0)
(10.1109277896 -0.0417629092731 0)
(10.1181888985 -0.0414789187317 0)
(10.125284117 -0.0411357064602 0)
(10.1322083263 -0.0407558683013 0)
(10.1389425303 -0.0403473167193 0)
(10.1454029013 -0.0399190362802 0)
(10.1518912097 -0.0395352705353 0)
(10.0122581785 -0.0352158114638 0)
(10.0345159566 -0.0406106786177 0)
(10.050056469 -0.0385542646806 0)
(10.059479007 -0.037120417486 0)
(10.0665568246 -0.0370029851272 0)
(10.0731449277 -0.0376448118919 0)
(10.0797576305 -0.0385445924482 0)
(10.0864034186 -0.0394069494016 0)
(10.0929593575 -0.0401004839808 0)
(10.0993117252 -0.0405944367966 0)
(10.1053939748 -0.0409089689902 0)
(10.1111852284 -0.0410807888765 0)
(10.1166934356 -0.0411468915354 0)
(10.1219393234 -0.0411336872971 0)
(10.1269440881 -0.0410502065839 0)
(10.1317115325 -0.0408773184879 0)
(10.1361470974 -0.0405554725721 0)
(10.1402762206 -0.039987800269 0)
(10.0145814228 -0.0475485026627 0)
(10.0375932405 -0.0536094454475 0)
(10.0453627249 -0.0519101350115 0)
(10.0433976856 -0.0502446492221 0)
(10.0374071269 -0.0493514614871 0)
(10.0298149564 -0.0489974218654 0)
(10.0214105899 -0.0489023310178 0)
(10.0124009334 -0.0488748726144 0)
(10.0028291198 -0.0488149941841 0)
(9.9927282063 -0.0486864597291 0)
(9.98216331271 -0.0484876640767 0)
(9.97123061266 -0.0482317768912 0)
(9.96004017826 -0.0479352927326 0)
(9.94870356966 -0.0476093612901 0)
(9.93733030428 -0.0472517444427 0)
(9.92602985262 -0.0468284279625 0)
(9.91487495809 -0.046226293046 0)
(9.90367984015 -0.0448093006364 0)
(9.85005350152 -0.0275697126471 0)
(9.71976837043 -0.0322036400712 0)
(9.57808901557 -0.0327279485331 0)
(9.43506783949 -0.0327072970564 0)
(9.29684106372 -0.0326155128884 0)
(9.16536403133 -0.0325099443248 0)
(9.04084142235 -0.0323726813231 0)
(8.92289565429 -0.0321817503464 0)
(8.81102153799 -0.0319287021137 0)
(8.70475327795 -0.0316178695671 0)
(8.60370721393 -0.0312602355104 0)
(8.50757595842 -0.0308687664146 0)
(8.41610722004 -0.0304558303343 0)
(8.32908600611 -0.0300302751498 0)
(8.24632856886 -0.0295943094187 0)
(8.16769106982 -0.0291340507719 0)
(8.09327882333 -0.0285838106854 0)
(8.02138733684 -0.0273508901366 0)
(0.0176498965422 -0.0724659351485 1.80694477217e-19)
(0.04372614917 -0.072502737586 0)
(-0.00311505883029 0.0474675952466 0)
(-0.0870553240135 0.102412874322 0)
(-0.185398893891 0.123070839264 0)
(-0.294053273564 0.133462650759 -3.86584975726e-20)
(-0.410569841366 0.139816665375 0)
(-0.532902804996 0.143873478451 0)
(-0.659647358785 0.146341357186 2.27336620931e-20)
(-0.789728041534 0.147618804292 0)
(-0.922253938372 0.147968852266 -1.8858905906e-20)
(-1.05648838151 0.147582372641 0)
(-1.19180488475 0.146607769692 -1.69312020281e-20)
(-1.32767995436 0.145164678168 -1.63821135524e-20)
(-1.46366919739 0.14335309342 0)
(-1.5994061919 0.141257242406 1.57985628245e-20)
(-1.73458682364 0.138949772904 1.5688783155e-20)
(-1.86896966574 0.136492920383 1.56659316911e-20)
(-2.00236379509 0.133941168075 0)
(-2.13462928302 0.13134133007 0)
(-2.26566831391 0.128734648607 0)
(-2.39542573338 0.126156629005 0)
(-2.52388118618 0.12363873517 0)
(-2.65104985192 0.121207783584 0)
(-2.77697647571 0.118887549196 -1.68449446771e-20)
(-2.90173597129 0.116697937385 -1.71163090759e-20)
(-3.02542819314 0.114656093272 0)
(-3.14817800465 0.112775338704 1.76963059186e-20)
(-3.2701293078 0.111066178271 1.80005034483e-20)
(-3.39144399556 0.109534754698 1.83117016956e-20)
(-3.51229577372 0.108183423582 0)
(-3.63286738391 0.107009161213 0)
(-3.75334184056 0.106004241083 -1.92734921866e-20)
(-3.8738974723 0.105154347955 0)
(-3.99469836519 0.104439387373 0)
(-4.11588735069 0.103832134569 -2.02522858817e-20)
(-4.23757412639 0.103299572984 0)
(-4.35982746959 0.102801790466 0)
(-4.4826635722 0.102294058289 0)
(-4.60603830207 0.101726461456 0)
(-4.72983743973 0.101046822381 0)
(-4.85387216071 0.100200450364 4.42875790847e-20)
(-4.97787350115 0.0991330233337 0)
(-5.10149060773 0.0977905628651 0)
(-5.22428854927 0.0961230213881 4.59857721954e-20)
(-5.34575257502 0.0940855952808 4.65035667374e-20)
(-5.46529719267 0.091643420486 0)
(-5.58228359588 0.088768787689 0)
(-5.69603420611 0.0854400615503 4.78567816933e-20)
(-5.80583754861 0.0816394130305 0)
(-5.91094870594 0.0773604223196 -4.85443763021e-20)
(-6.0106059527 0.0726093058864 0)
(-6.10405040598 0.0674048001219 4.90032188133e-20)
(-6.19056357012 0.0617734521435 0)
(-6.2694879411 0.055743433167 4.91763270112e-20)
(-6.34023270928 0.0493276764941 4.91380909811e-20)
(-6.40225558471 0.0425202488767 0)
(-6.4549800736 0.0353069117526 0)
(-6.49775193851 0.027674233834 0)
(-6.52982404087 0.0196277703365 4.79299151859e-20)
(-6.5503638846 0.0112036553304 0)
(-6.55850904521 0.00244475812487 0)
(-6.55367642721 -0.00663432898592 0)
(-6.53516022323 -0.0160221484763 0)
(-6.50218722311 -0.0257199683838 0)
(-6.45396256664 -0.0357203315591 0)
(-6.38971469361 -0.0459920563239 0)
(-6.30876402772 -0.0564699082989 -3.62822701147e-20)
(-6.21060127607 -0.0670487152518 0)
(-6.09496717031 -0.0775830884213 -3.06578602077e-20)
(-5.96191923628 -0.0878931855688 -2.73554618793e-20)
(-5.81187968978 -0.0977760867179 0)
(-5.64565291388 -0.107021395848 1.97443314075e-20)
(-5.46441745492 -0.115426601667 0)
(-5.26968706467 -0.122812670811 -1.07967701191e-20)
(-5.06325152989 -0.129037349224 0)
(-4.84709896467 -0.134005750681 5.39307562936e-22)
(-4.62334105671 -0.137668357164 5.07665039639e-21)
(-4.3941368497 -0.140023481017 0)
(-4.16160961863 -0.141113590843 0)
(-3.92779478558 -0.141021046406 0)
(-3.69458846412 -0.139840583138 0)
(-3.46370854385 -0.13770137508 3.84193384189e-20)
(-3.23662156724 -0.134768263264 -4.63293221241e-20)
(-3.01460430838 -0.131192153103 1.09529673274e-19)
(-2.79881784478 -0.127049485111 1.27595340807e-19)
(-2.59013864149 -0.122434481202 1.47034888352e-19)
(-2.38895349044 -0.117533595547 0)
(-2.1955209407 -0.112482463333 0)
(-2.01038580827 -0.10720909384 0)
(-1.8339584494 -0.101649207852 2.43959354305e-19)
(-1.66567510687 -0.0959631398472 0)
(-1.50460485101 -0.0903629320137 0)
(-1.35082388053 -0.0849223745321 3.4955234883e-19)
(-1.20471036303 -0.0797753985711 0)
(-1.06630553621 -0.0752381694536 -4.48575929991e-19)
(-0.934580839068 -0.0711516905106 0)
(-0.808413886115 -0.0674891284155 5.89729609668e-19)
(-0.686812853499 -0.0651473498934 0)
(-0.571474186171 -0.0640608015142 0)
(-0.463766322221 -0.0630487063982 0)
(-0.361232942646 -0.0626389646812 1.18908674952e-18)
(-0.262021149849 -0.0627971772857 0)
(-0.169182001273 -0.0624584819446 2.07880443245e-18)
(-0.0857617337778 -0.0601279326225 3.25787209792e-18)
(-0.00389250598584 -0.0519657363417 0)
(0.0581279746544 -0.0390323482669 0)
(0.122337765937 -0.0287127859573 0)
(0.189628980509 -0.0221826007794 2.01663735746e-18)
(0.250607878595 -0.0179668361964 0)
(0.303587452699 -0.0148794249376 0)
(0.349830789456 -0.0123786820676 1.3787926389e-18)
(0.390814574063 -0.0102470643977 1.2665931193e-18)
(0.427651107007 -0.00838963901599 0)
(0.461132046862 -0.00677076956255 -1.10600435352e-18)
(0.491826518863 -0.0053678237305 -1.04621724614e-18)
(0.520180625274 -0.00417086098824 9.9549843877e-19)
(0.546560258608 -0.00316533761111 0)
(0.571294794271 -0.0023414181027 0)
(0.594684881319 -0.00168314429119 0)
(0.617015859425 -0.00117773904842 -8.48103719069e-19)
(0.638547322598 -0.000808631288924 0)
(0.659516587041 -0.000563603143681 -7.93578467785e-19)
(0.680136355731 -0.000426721767941 0)
(0.700606229936 -0.000386727765456 0)
(0.721106409551 -0.000427460146914 0)
(0.741800221602 -0.000537768785395 7.03472372563e-19)
(0.762822356379 -0.000702798025614 6.83592400308e-19)
(0.7842850529 -0.000913129944578 0)
(0.806273340158 -0.00115601694723 0)
(0.828855226739 -0.00142369610287 0)
(0.852077585011 -0.00170520331912 0)
(0.875974895844 -0.00199412202404 0)
(0.90056356003 -0.00228112693176 0)
(0.925849775601 -0.00256104445443 1.12759806812e-18)
(0.951823434504 -0.00282616840398 0)
(0.978465994156 -0.00307249694814 0)
(1.00574419121 -0.00329401796209 0)
(1.03361881317 -0.00348779988319 -1.01659474781e-18)
(1.06204003011 -0.00364923147537 -9.91618035455e-19)
(1.09095448736 -0.00377571070241 9.67723575659e-19)
(1.12029898024 -0.00386416080756 9.4490067714e-19)
(1.15000314892 -0.00391279218976 0)
(1.17998805441 -0.00392008342108 0)
(1.21017116144 -0.00388540403163 0)
(1.24046686856 -0.00380777254558 8.63990826824e-19)
(1.27078714197 -0.00368789852667 0)
(1.30103778084 -0.00352486179179 0)
(1.33112307412 -0.00331559400093 -8.13770951962e-19)
(1.36094528584 -0.0030588889268 0)
(1.39040425818 -0.00275725464297 -7.84989184211e-19)
(1.4193960447 -0.00241405596363 0)
(1.44781752261 -0.00203304688092 -7.59763855159e-19)
(1.47556710273 -0.00161753190933 0)
(1.50254760051 -0.00117113815538 0)
(1.52866511908 -0.000697435210468 0)
(1.55383135553 -0.00020101732254 0)
(1.57796248982 0.000312934255344 0)
(1.60098034181 0.00083887769653 0)
(1.62281004861 0.00137173345044 0)
(1.64338116296 0.00190650522294 0)
(1.66262543169 0.00243895222742 -6.85266104357e-19)
(1.68047744502 0.00296520346672 0)
(1.69686859206 0.00348008468449 0)
(1.71172553386 0.00398047717874 -6.72795104569e-19)
(1.72497003773 0.0044648306025 0)
(1.73651770584 0.00492612374381 0)
(1.74627522955 0.00535174289829 -6.65938744563e-19)
(1.75415884048 0.00572203948312 0)
(1.76014899727 0.00600609565552 0)
(1.76430136736 0.006175113557 -6.64401128696e-19)
(1.76724965455 0.00626627206486 6.64487394016e-19)
(1.76846718467 0.00637935872381 -6.65216412784e-19)
(1.76729812306 0.00661067200267 0)
(1.76279675903 0.00709004681979 0)
(1.75358745334 0.00797412264901 -1.34801506401e-18)
(1.73769637044 0.00945159055236 0)
(1.71191940868 0.0118202368494 1.38272474643e-18)
(1.67739973194 0.0154951121483 1.41457185426e-18)
(1.53482886117 0.0210772397266 0)
(-0.0453911190598 0.0514962196883 -3.14157946442e-19)
(-0.139221847297 0.167622837319 0)
(-0.224516168909 0.23200394991 7.91163825008e-20)
(-0.321584991907 0.281647522047 -6.09751578791e-20)
(-0.424809171788 0.315662789183 -5.03460107595e-20)
(-0.535776310903 0.339704440775 2.13386943959e-20)
(-0.653480556864 0.35708194758 3.81512287816e-20)
(-0.776389430622 0.36956288284 0)
(-0.903254315423 0.378233141264 -1.56361816629e-20)
(-1.03302711797 0.38384189739 3.00573188739e-20)
(-1.16483168283 0.386944364212 4.27660309466e-20)
(-1.29793983054 0.387975773461 -2.78282408005e-20)
(-1.43173860993 0.387292322224 4.05439936768e-20)
(-1.56571761937 0.385193972842 1.31406950976e-20)
(-1.69944964995 0.381939021477 0)
(-1.83258457535 0.377752212041 -1.31142451467e-20)
(-1.96483655967 0.372831328695 -1.32077558087e-20)
(-2.09598065914 0.367350592275 -1.33545357178e-20)
(-2.22584333576 0.361464683913 2.76239082344e-20)
(-2.35430014073 0.35531031106 0)
(-2.48126860972 0.34900928213 2.85360216454e-20)
(-2.60670701128 0.342669487012 0)
(-2.7306087305 0.33638745683 -2.96396034722e-20)
(-2.85300121595 0.330248619191 0)
(-2.97394169419 0.324329389315 4.6112987813e-20)
(-3.09351699719 0.318696766668 -1.59491971473e-20)
(-3.21183972738 0.313409661 -3.21960482473e-20)
(-3.32904696295 0.308517683035 -4.91555103956e-20)
(-3.44529581342 0.304061600436 -1.66319403075e-20)
(-3.56076148514 0.300070988265 -1.69937698548e-20)
(-3.67563152616 0.296563794926 0)
(-3.79010121204 0.293543370611 -3.57204220219e-20)
(-3.90436543289 0.290997668721 1.80930222353e-20)
(-4.01861178819 0.288895852051 0)
(-4.13301021202 0.287187900024 0)
(-4.24770349655 0.285802231122 1.9193012719e-20)
(-4.36279534713 0.284646671715 0)
(-4.4783402534 0.28360741397 0)
(-4.59433146576 0.282552147062 0)
(-4.71069159437 0.281331463847 0)
(-4.82726420376 0.279784531969 0)
(-4.94381016115 0.277741627625 4.31270615777e-20)
(-5.06000474779 0.275030723008 8.70969695529e-20)
(-5.17543701735 0.271481437359 0)
(-5.28960978947 0.266933919412 4.51563931321e-20)
(-5.40194754268 0.261246285612 -4.51789407981e-20)
(-5.51181092947 0.254305014342 0)
(-5.61853170495 0.24602382313 0)
(-5.72142879982 0.236341456666 -1.41347167909e-19)
(-5.8198043043 0.225218368677 -9.55207793144e-20)
(-5.91294594482 0.212654852906 4.7829851989e-20)
(-6.00013464603 0.19869341484 9.73518673148e-20)
(-6.0806895108 0.183413065622 4.95087386738e-20)
(-6.15400212227 0.166919218276 0)
(-6.21956675154 0.14932016908 -1.48345711177e-19)
(-6.27697769623 0.130693598872 -4.92612781582e-20)
(-6.32593278204 0.11108919913 0)
(-6.36588947065 0.0905387381417 9.96615068577e-20)
(-6.39625641188 0.0690895198779 -9.93784954735e-20)
(-6.41625911051 0.0468169839221 -4.87961789333e-20)
(-6.42501030792 0.0237988948675 0)
(-6.42205020274 5.97258490308e-05 0)
(-6.40727046583 -0.0243858913083 0)
(-6.37979330032 -0.0496173382559 9.11998463448e-20)
(-6.33867247697 -0.0757145570016 0)
(-6.2828885637 -0.102711057643 -8.44069922687e-20)
(-6.21142566208 -0.130556229364 0)
(-6.12336172016 -0.159086160646 -3.84913567638e-20)
(-6.01797001723 -0.188008733463 0)
(-5.89481702371 -0.216904113439 -3.27242048274e-20)