/*--------------------------------*- C++ -*----------------------------------*\
| =========                 |                                                 |
| \\      /  F ield         | OpenFOAM: The Open Source CFD Toolbox           |
|  \\    /   O peration     | Version:  v1806                                 |
|   \\  /    A nd           | Web:      www.OpenFOAM.com                      |
|    \\/     M anipulation  |                                                 |
\*---------------------------------------------------------------------------*/
FoamFile
{
    version     2.0;
    format      ascii;
    class       volVectorField;
    location    "6";
    object      Ua;
}
// * * * * * * * * * * * * * * * * * * * * * * * * * * * * * * * * * * * * * //

dimensions      [0 1 -1 0 0 0 0];


internalField   nonuniform List<vector> 
12225
(
(-0.80593667067 36.6247693618 0)
(0.772688951113 7.21929384836 0)
(0.397981325202 6.28658172436 0)
(0.451357923787 5.94105844475 0)
(0.484004039904 5.76822351542 0)
(0.525264982779 5.79179291524 0)
(0.577494404814 5.97095557198 0)
(0.636916244159 6.3113426163 0)
(0.689087989871 6.78343734053 0)
(0.731098315408 7.33637587084 0)
(0.781143698844 7.91579070055 0)
(0.844231497843 8.44165950663 0)
(0.938794497951 8.81804132984 0)
(1.09775071945 9.0271964392 0)
(1.34409440735 8.88744893758 0)
(1.72893439225 8.071037199 0)
(2.29031793671 6.20049124604 0)
(2.62124173695 2.74882180599 0)
(2.53550447311 -33.7438452116 0)
(1.05816819512 -6.09738186057 0)
(0.924248252106 -5.16821583457 0)
(0.945111642151 -4.76454506188 0)
(0.905337824881 -4.47557870158 0)
(0.898207859584 -4.3132018022 0)
(0.885612135698 -4.273367195 0)
(0.88181385718 -4.34379047408 0)
(0.886298280874 -4.49597118289 0)
(0.91191387019 -4.67040388136 0)
(0.975472598442 -4.80414314438 0)
(1.07446521585 -4.85319606501 0)
(1.21081981423 -4.77726969625 0)
(1.39661588253 -4.56250645569 0)
(1.64128591187 -4.19766557379 0)
(1.94081730963 -3.65914464655 0)
(2.22978913276 -3.02377288349 0)
(2.16398646598 -2.51691798119 0)
(0.100054726257 18.3392824661 0)
(0.608095202861 3.94179817628 0)
(0.78547044837 3.65092115125 0)
(0.704153259589 3.15820387228 0)
(0.691117872063 2.77761837203 0)
(0.675488601344 2.40753358508 0)
(0.668691711298 2.078808256 0)
(0.672102445174 1.79323037466 0)
(0.68540181464 1.55205235432 0)
(0.715174966931 1.35428802313 0)
(0.768753393653 1.18128652578 0)
(0.847072664159 1.00599040598 0)
(0.953654171947 0.816236737903 0)
(1.09620500142 0.595931828472 0)
(1.28284569241 0.320972061909 0)
(1.50511976595 -0.0324826982141 0)
(1.69101301494 -0.519785204065 0)
(1.60839140478 -1.18337296672 0)
(0.991761100517 -5.26390396084 0)
(0.952628065648 -1.28028260122 0)
(0.871701184526 -1.43025880196 0)
(0.867448476049 -1.26070225119 0)
(0.843424361428 -1.16311907492 0)
(0.835930726414 -1.04386121282 0)
(0.829562826094 -0.926902571618 0)
(0.83113668213 -0.807924911079 0)
(0.838902348028 -0.688306853873 0)
(0.857975730694 -0.56855146177 0)
(0.892676452402 -0.454701988626 0)
(0.945661322918 -0.358358782319 0)
(1.02178314156 -0.285437525567 0)
(1.12639694606 -0.247999779802 0)
(1.26113594036 -0.267245045457 0)
(1.40758332173 -0.378402706169 0)
(1.49505050019 -0.632845024724 0)
(1.38472981002 -1.03115896343 0)
(0.898161598763 1.21373848053 0)
(0.92765446475 0.339322095037 0)
(0.910690311507 0.27933003963 0)
(0.900331473847 0.190573130176 0)
(0.884553767727 0.113589261437 0)
(0.880122831151 0.0444778018469 0)
(0.875783161642 -0.0205124018987 0)
(0.878590829582 -0.0778317868619 0)
(0.886780601169 -0.125838609585 0)
(0.904909194107 -0.162294309779 0)
(0.935938684074 -0.188173563514 0)
(0.982730130296 -0.208903095587 0)
(1.04858981869 -0.229042856068 0)
(1.13552874993 -0.261246715624 0)
(1.23941250643 -0.325388476268 0)
(1.33656630383 -0.450694709423 0)
(1.36887949918 -0.664701217989 0)
(1.26284436156 -0.934899082587 0)
(0.990295271409 0.123101838164 0)
(0.988100622224 0.0851437205061 0)
(0.960346373663 0.0317814088106 0)
(0.957539168746 0.00995062377753 0)
(0.941965333635 -0.0221374821028 0)
(0.938166156649 -0.0501164232342 0)
(0.932604650184 -0.0801940396159 0)
(0.933627715567 -0.109056699824 0)
(0.939179812927 -0.13552975042 0)
(0.953497091864 -0.158209697992 0)
(0.978708573276 -0.177850319933 0)
(1.01744663633 -0.198800178353 0)
(1.07129676844 -0.225407616598 0)
(1.13969206028 -0.267941369346 0)
(1.21513220059 -0.341435811244 0)
(1.2739547726 -0.4638036977 0)
(1.27451128098 -0.641478784235 0)
(1.18262035354 -0.832758966926 0)
(1.03898556189 0.255578159171 0)
(1.01879854776 0.0917021507931 0)
(0.997974768465 0.0467822486594 0)
(0.999509340022 0.0152109421089 0)
(0.986117705647 -0.0193638605377 0)
(0.984053848004 -0.0491634955169 0)
(0.978717390729 -0.0789642879902 0)
(0.979358080709 -0.106611600868 0)
(0.983562339352 -0.131712275867 0)
(0.995194783022 -0.153898956073 0)
(1.0156645758 -0.174654482669 0)
(1.04704248136 -0.198356787851 0)
(1.08942520081 -0.229569288528 0)
(1.14042030594 -0.276778859001 0)
(1.19113060976 -0.351035000724 0)
(1.2212944861 -0.461724404867 0)
(1.2042570148 -0.604198822406 0)
(1.1268652833 -0.742767909934 0)
(1.07495361733 0.246922475447 0)
(1.0415025033 0.0850655944225 0)
(1.02687940708 0.0446654831545 0)
(1.03216321753 0.0141818316057 0)
(1.02092781052 -0.0179732042061 0)
(1.02070738976 -0.0463067320869 0)
(1.01606394527 -0.0743479998933 0)
(1.01690325117 -0.100605577642 0)
(1.02041475133 -0.124967122509 0)
(1.03004599395 -0.147635621652 0)
(1.04647420419 -0.170288620652 0)
(1.07116193353 -0.196971063646 0)
(1.10299790588 -0.231771109469 0)
(1.1384931169 -0.281203343133 0)
(1.16895587116 -0.352435994367 0)
(1.1788242741 -0.448785444816 0)
(1.15272419883 -0.561450372564 0)
(1.0873324789 -0.664887515646 0)
(1.09802483381 0.232456626258 0)
(1.05665638854 0.0784806969893 0)
(1.04831604448 0.041527540421 0)
(1.05685908174 0.0129867270871 0)
(1.04773929526 -0.0167895807936 0)
(1.04937424427 -0.0435962194061 0)
(1.04567691954 -0.0701341835739 0)
(1.04701822529 -0.0954005024877 0)
(1.05017756855 -0.11950787189 0)
(1.0581730924 -0.143037112198 0)
(1.07107571865 -0.167646376956 0)
(1.08971989337 -0.196836759233 0)
(1.11218345645 -0.233925529631 0)
(1.13459908144 -0.283414422756 0)
(1.14941257906 -0.349268642345 0)
(1.14566230342 -0.43114835437 0)
(1.1153269279 -0.520063246397 0)
(1.05933406049 -0.599327365035 0)
(1.11144652916 0.225994020337 0)
(1.06713336479 0.075166765675 0)
(1.06369338281 0.039903597049 0)
(1.07542274853 0.0137943994162 0)
(1.06820136197 -0.0141808685406 0)
(1.07161786489 -0.0397539302838 0)
(1.06892992127 -0.0652889115733 0)
(1.07085380479 -0.0900869503576 0)
(1.07375023554 -0.114478853041 0)
(1.08024823084 -0.139142141855 0)
(1.08989595528 -0.165551067744 0)
(1.10306106628 -0.19652308727 0)
(1.11741433292 -0.234540108345 0)
(1.12921446378 -0.28241261197 0)
(1.13246646339 -0.341805120947 0)
(1.11999389532 -0.410540852154 0)
(1.08829540814 -0.481077929368 0)
(1.03946067814 -0.543057245856 0)
(1.11668837172 0.225638875338 0)
(1.07418073804 0.0819187044249 0)
(1.07237377851 0.0421093534887 0)
(1.08742160821 0.0195400543185 0)
(1.0818867912 -0.008184783971 0)
(1.0871290213 -0.033066494081 0)
(1.08549808883 -0.0584784249034 0)
(1.08801017863 -0.0837334093624 0)
(1.09065959791 -0.109310428841 0)
(1.09577747679 -0.135649343468 0)
(1.10253402596 -0.163926101768 0)
(1.11094306568 -0.196322649879 0)
(1.11852743486 -0.234530992593 0)
(1.12203747838 -0.28011573244 0)
(1.1171193774 -0.333092569775 0)
(1.09945252262 -0.39072871581 0)
(1.06791537263 -0.44724541741 0)
(1.0249317169 -0.496365613138 0)
(1.09948959119 0.201038511297 0)
(1.07860199363 0.0795315702084 0)
(1.06949361073 0.0390443640315 0)
(1.08921025658 0.0206144841216 0)
(1.08421548934 -0.00529325981241 0)
(1.09118375298 -0.0285357844931 0)
(1.09022589291 -0.0526921166517 0)
(1.09309755452 -0.0770997797132 0)
(1.09549231612 -0.102360363782 0)
(1.09955319383 -0.128981219857 0)
(1.10403347759 -0.157888076633 0)
(1.1087943964 -0.190526975987 0)
(1.11146672968 -0.228125915807 0)
(1.10947879978 -0.271103582096 0)
(1.09979595175 -0.318778357159 0)
(1.07981608818 -0.368323262994 0)
(1.04965879204 -0.415464599216 0)
(1.01133695595 -0.456137674391 0)
(1.07592303348 0.184868818706 0)
(1.07885214973 0.0730705379317 0)
(1.06211396654 0.0356987691995 0)
(1.08546045464 0.0188548603366 0)
(1.08055831163 -0.00551600566753 0)
(1.08880230644 -0.027705932918 0)
(1.08847806885 -0.0508567425262 0)
(1.09170341463 -0.0742591237456 0)
(1.0937713743 -0.0986372040193 0)
(1.09668989048 -0.124553043173 0)
(1.09915927533 -0.152726474917 0)
(1.10086792085 -0.184259558175 0)
(1.09970180198 -0.219775125567 0)
(1.09370534286 -0.259163944484 0)
(1.08088367582 -0.301437305555 0)
(1.05993919801 -0.344117638249 0)
(1.03151956016 -0.384026879077 0)
(0.997506937591 -0.418405591118 0)
(1.04936524765 0.1635213993 0)
(1.07705097935 0.0682659314482 0)
(1.05070359324 0.0310433696623 0)
(1.07810920473 0.0152175619808 0)
(1.0725954995 -0.00888887369793 0)
(1.081903045 -0.0308079232349 0)
(1.08180029243 -0.0538152186063 0)
(1.08507932163 -0.0771096691792 0)
(1.08661036174 -0.101206438395 0)
(1.08836283771 -0.126542541739 0)
(1.08870244908 -0.153659976837 0)
(1.08743675436 -0.183422580353 0)
(1.08284395895 -0.215857566905 0)
(1.07359094068 -0.250764504948 0)
(1.05860856577 -0.28688265792 0)
(1.03746324012 -0.322446125064 0)
(1.01127495729 -0.355181550268 0)
(0.981548148682 -0.383340394237 0)
(1.0174922595 0.136652314061 0)
(1.0754614637 0.0581804668869 0)
(1.03753531651 0.0242169711715 0)
(1.06968089244 0.00973198225764 0)
(1.06307080938 -0.012809081887 0)
(1.07344045579 -0.0335071566988 0)
(1.07345095666 -0.0554482534609 0)
(1.07674367046 -0.0777266156943 0)
(1.07767641692 -0.100834278345 0)
(1.07806142184 -0.124984516311 0)
(1.07627351376 -0.150600455079 0)
(1.07231958533 -0.177870034798 0)
(1.06482308957 -0.206814584001 0)
(1.0530959654 -0.236770865254 0)
(1.03676742951 -0.266861735919 0)
(1.0160030857 -0.295684090567 0)
(0.992098005084 -0.321881918743 0)
(0.966267930884 -0.3444786281 0)
(0.985626633509 0.114244346346 0)
(1.07226889476 0.0477856742195 0)
(1.02269284902 0.0191139558779 0)
(1.05932432024 0.00548512998295 0)
(1.05134160784 -0.0151117569446 0)
(1.06252811541 -0.0343666343857 0)
(1.06235365084 -0.0549883527852 0)
(1.06536098769 -0.0761149234121 0)
(1.06544289803 -0.0981650947104 0)
(1.06448918566 -0.121102577513 0)
(1.06090250663 -0.144988314372 0)
(1.05484668601 -0.169744374392 0)
(1.04543141028 -0.195094769165 0)
(1.03238627851 -0.220390152787 0)
(1.01575450945 -0.244950843091 0)
(0.996099516022 -0.267845760295 0)
(0.974642479011 -0.288323003742 0)
(0.95237182217 -0.305947127123 0)
(0.959440313729 0.105070047968 0)
(1.06729139917 0.0345570568425 0)
(1.0074608507 0.0113332345665 0)
(1.04752316117 -0.00131857035436 0)
(1.03779255266 -0.0193647364049 0)
(1.04933547199 -0.0366539143885 0)
(1.04847955795 -0.0551508630488 0)
(1.05076096496 -0.0742948802161 0)
(1.04969068047 -0.0942307198235 0)
(1.04734164609 -0.114914173648 0)
(1.04221549127 -0.136091474187 0)
(1.0347682062 -0.157578620086 0)
(1.02438661439 -0.178879745901 0)
(1.0110461022 -0.199596318595 0)
(0.995045089295 -0.219098855671 0)
(0.97704783047 -0.236905438873 0)
(0.958151295562 -0.252563028298 0)
(0.939099595111 -0.265982882221 0)
(0.932539686951 0.0957396969968 0)
(1.06114630985 0.0206663418829 0)
(0.992037337624 0.00302385771411 0)
(1.03474433689 -0.00903751918718 0)
(1.02318503438 -0.0244186727215 0)
(1.03465380232 -0.0395479541245 0)
(1.03283976413 -0.055624395756 0)
(1.0341297345 -0.0721850670262 0)
(1.03176008426 -0.089325324688 0)
(1.02807574633 -0.106858160313 0)
(1.02174682698 -0.124526990084 0)
(1.0134332171 -0.142021797899 0)
(1.00271020946 -0.159013869811 0)
(0.989700644755 -0.175134758496 0)
(0.974793634842 -0.190017055852 0)
(0.958649214603 -0.203355038008 0)
(0.942198188214 -0.214966850227 0)
(0.925990442073 -0.224867923385 0)
(0.916600191309 0.112871548044 0)
(1.05303273409 0.00215144793201 0)
(0.980665574215 -0.00532564640248 0)
(1.02346777908 -0.0175595254124 0)
(1.01031180509 -0.0291117357966 0)
(1.02095503484 -0.0415587543773 0)
(1.01792698036 -0.0543455894624 0)
(1.01807313438 -0.067589393079 0)
(1.01449576222 -0.0810783735714 0)
(1.00976757225 -0.0947231068528 0)
(1.00268149673 -0.108223033441 0)
(0.994027486006 -0.121393341888 0)
(0.983492860495 -0.133937884333 0)
(0.971256904503 -0.145672192544 0)
(0.957694547315 -0.156336103226 0)
(0.943402624977 -0.165814452795 0)
(0.929145007914 -0.174021065887 0)
(0.915360881017 -0.181033506866 0)
(0.944743548331 0.131060495025 0)
(1.04517457611 -0.010954765551 0)
(0.985050193367 -0.0110702131762 0)
(1.02149401902 -0.0227682162967 0)
(1.00846618863 -0.0310327686555 0)
(1.0170578477 -0.0408382457982 0)
(1.01277303247 -0.0507217411959 0)
(1.01150742555 -0.0608808163596 0)
(1.00674321067 -0.0712275439026 0)
(1.0009952694 -0.081494008384 0)
(0.993155761361 -0.0916061203193 0)
(0.984078874531 -0.101286702479 0)
(0.97349936593 -0.11047051634 0)
(0.961585827512 -0.118922681063 0)
(0.948696044131 -0.126596431273 0)
(0.935342074433 -0.133368987535 0)
(0.922247151251 -0.139277722595 0)
(0.909767054326 -0.144350800951 0)
(0.966750649692 0.132906969899 0)
(1.04150359131 -0.0149396670422 0)
(0.99208132131 -0.0138875194479 0)
(1.02383099003 -0.0241461141624 0)
(1.01106317357 -0.0304681541275 0)
(1.01801006386 -0.0382503827377 0)
(1.01283556238 -0.0459625213022 0)
(1.01062495515 -0.0539002938892 0)
(1.0051072313 -0.0619198343847 0)
(0.998807140338 -0.0697691076406 0)
(0.990612344648 -0.0774520758527 0)
(0.981412702044 -0.0847073169078 0)
(0.970933005159 -0.0915336667874 0)
(0.959348959527 -0.0977099197127 0)
(0.94694086457 -0.103305100261 0)
(0.934231074527 -0.108196453969 0)
(0.921852329623 -0.112500595915 0)
(0.910119871979 -0.116251190603 0)
(0.983723691605 0.139993783452 0)
(1.04029320291 -0.0198807056708 0)
(0.999412686663 -0.0164918008096 0)
(1.02741716139 -0.025183304183 0)
(1.0152187597 -0.0295493662268 0)
(1.02096313139 -0.0354689088158 0)
(1.01515400507 -0.0412862563407 0)
(1.01222742634 -0.04736391848 0)
(1.00626969309 -0.0534098861693 0)
(0.99961685287 -0.0594607898872 0)
(0.991244649885 -0.0652288817506 0)
(0.982056915052 -0.0707510085712 0)
(0.971794804439 -0.0757877227355 0)
(0.960534285313 -0.0804272757586 0)
(0.948558143362 -0.0844656489978 0)
(0.936347027785 -0.0880645950596 0)
(0.924463715438 -0.0911842838392 0)
(0.913240940804 -0.0939889350022 0)
(1.00807756481 0.133858756392 0)
(1.04043686511 -0.0223401718515 0)
(1.00883259041 -0.0147421228445 0)
(1.0330486824 -0.0223981135244 0)
(1.02133895396 -0.0245651779081 0)
(1.02587533578 -0.0288301262515 0)
(1.01950285029 -0.0329720329924 0)
(1.01609679353 -0.03750408244 0)
(1.00968875275 -0.0421952183133 0)
(1.00280887993 -0.0468622754002 0)
(0.994373871058 -0.0514099847944 0)
(0.985270101064 -0.0556496431074 0)
(0.975169506442 -0.0595552211559 0)
(0.964239016271 -0.0629794749484 0)
(0.952656596426 -0.0659461478153 0)
(0.940800319876 -0.0684651229742 0)
(0.929296192526 -0.0706259310752 0)
(0.918300748116 -0.0726097785396 0)
(1.03151701629 0.0703099494947 0)
(1.03967204055 -0.052147031095 0)
(1.01929583346 -0.0401899836475 0)
(1.0394869478 -0.04614524501 0)
(1.02872448923 -0.0454903662898 0)
(1.03209562309 -0.0480313565842 0)
(1.02528803788 -0.0504884466303 0)
(1.02121976057 -0.053526839573 0)
(1.0145131608 -0.0567727515781 0)
(1.00742787551 -0.0600998850297 0)
(0.998981802921 -0.0633015637832 0)
(0.990044434636 -0.0662044655102 0)
(0.980311564218 -0.0687221168625 0)
(0.969813993328 -0.0707715101436 0)
(0.958695835498 -0.0722738424895 0)
(0.947367176598 -0.0732008683015 0)
(0.936213432352 -0.0738344742171 0)
(0.925721826694 -0.0743738739461 0)
(1.06164236154 0.434008747846 0)
(1.04356625494 0.112009307842 0)
(1.02977764448 0.137114917892 0)
(1.04636811978 0.123813746879 0)
(1.03603245347 0.123195232042 0)
(1.0378498841 0.117687638911 0)
(1.03053204911 0.113088779079 0)
(1.02601410958 0.108075877993 0)
(1.01893582455 0.103084165233 0)
(1.01170058133 0.0980046496001 0)
(1.00323071937 0.0930010027119 0)
(0.994424201472 0.0879020000343 0)
(0.984920169725 0.0827507745858 0)
(0.974811218073 0.0779068552192 0)
(0.964227512774 0.0735132563806 0)
(0.953185441883 0.069459855112 0)
(0.942026077006 0.0655034300969 0)
(0.929905201551 0.0614596512457 0)
(1.0133588976 -1.80174595681 0)
(1.01441997914 -0.795955247356 0)
(1.04945359641 -0.783260792287 0)
(1.05595140847 -0.750960701469 0)
(1.04871716805 -0.72173893461 0)
(1.04938580753 -0.700705122559 0)
(1.04256350798 -0.680938238724 0)
(1.03813256176 -0.664277414765 0)
(1.03141241142 -0.649406896452 0)
(1.02456563958 -0.636007749509 0)
(1.01688636815 -0.623536282027 0)
(1.0088913754 -0.610808389398 0)
(1.00036802768 -0.597407662286 0)
(0.991594509354 -0.583100734729 0)
(0.982587616221 -0.567376260815 0)
(0.973407894391 -0.549709125555 0)
(0.964433107483 -0.530291792192 0)
(0.958403443237 -0.510932556022 0)
(1.35675352493 8.02423716671 0)
(1.12121294354 2.56305168162 0)
(1.04340248408 2.68380792644 0)
(1.06578402724 2.51887844574 0)
(1.0499418894 2.43338208527 0)
(1.04648522774 2.33197197206 0)
(1.03621963938 2.24244614909 0)
(1.02818547218 2.15877134484 0)
(1.01821609749 2.08176816462 0)
(1.00828756312 2.010118981 0)
(0.997086496933 1.94290737686 0)
(0.986353644448 1.87793614022 0)
(0.976000080468 1.81557369551 0)
(0.965737057272 1.75617802332 0)
(0.955453636303 1.69862802276 0)
(0.944739400325 1.6415647494 0)
(0.931924233209 1.58388040727 0)
(0.911972797254 1.52504579599 0)
(0.00269375824801 -23.3559888816 0)
(0.756052638246 -6.58698768195 0)
(1.1339148192 -6.30614368705 0)
(1.06171980738 -5.97804951835 0)
(1.0760649053 -5.72228724898 0)
(1.07343355926 -5.46929164751 0)
(1.0736402501 -5.23252513458 0)
(1.07528701151 -5.0099109281 0)
(1.07568381358 -4.79802198425 0)
(1.07614068524 -4.5955076121 0)
(1.07645049348 -4.39976797067 0)
(1.07584108371 -4.21099737686 0)
(1.07435479919 -4.03296849763 0)
(1.07201508132 -3.8646175811 0)
(1.06838892577 -3.70499338206 0)
(1.06299170599 -3.55512488199 0)
(1.05608808355 -3.41788480886 0)
(1.04377162371 -3.29730111138 0)
(3.53192511506 41.9424021069 0)
(1.19025075359 10.3652645494 0)
(1.15088332774 9.78579821984 0)
(1.156754737 9.31804231177 0)
(1.12167927379 8.90391646873 0)
(1.11302771042 8.49559341458 0)
(1.09312759124 8.11222713974 0)
(1.07639375462 7.74611464487 0)
(1.0591355704 7.39251642254 0)
(1.04359044557 7.04936721773 0)
(1.02928999065 6.71297224557 0)
(1.01517569975 6.38704824809 0)
(1.00112607269 6.07540347798 0)
(0.989519708406 5.77414550805 0)
(0.980198796741 5.48455247174 0)
(0.971200317583 5.21322718347 0)
(0.960038356047 4.97246620142 0)
(0.958319588034 4.77772717524 0)
(0.0903330135411 -45.6567173067 0)
(1.10836972222 -12.0454533313 0)
(0.958287048072 -11.4752936282 0)
(0.936450337116 -10.9088351912 0)
(0.954964485211 -10.4121276205 0)
(0.955388399727 -9.94810081592 0)
(0.961126076848 -9.49868661978 0)
(0.96439331683 -9.07075593597 0)
(0.962932315955 -8.65392627093 0)
(0.957175217598 -8.25286779238 0)
(0.945845207098 -7.86439023328 0)
(0.933193495529 -7.49102314812 0)
(0.918355814081 -7.13511143341 0)
(0.899740724686 -6.79477191442 0)
(0.879497164847 -6.46795243608 0)
(0.863540360742 -6.15136126125 0)
(0.858788130497 -5.83703010115 0)
(0.859389592103 -5.50589843799 0)
(0.10201913023 -0.0303520737639 -7.33988536645e-20)
(0.0847885873263 0.069390847594 0)
(0.149954615508 0.224970639188 0)
(0.085682865826 0.240759495342 0)
(0.0256720578832 0.222254011903 0)
(-0.0202207357096 0.193606440877 1.49647663838e-20)
(-0.0514125200051 0.163080893832 0)
(-0.0698345937116 0.133335336248 0)
(-0.078080660739 0.105092215384 -8.01909971697e-21)
(-0.0786226068858 0.0781374437833 0)
(-0.0734924661338 0.0520346107163 5.82124288601e-21)
(-0.0643044437305 0.0262096815141 0)
(-0.0523415105008 0.000250020823723 4.3691716352e-21)
(-0.0385409093056 -0.0262314013982 3.81555734822e-21)
(-0.0236414285175 -0.0534417315783 0)
(-0.0081454589385 -0.0815497402744 -2.95135127947e-21)
(0.00753776950162 -0.110584344548 -2.61380667129e-21)
(0.0231667105853 -0.140555122086 -2.32455214877e-21)
(0.0385456248533 -0.17137680907 0)
(0.0535856757915 -0.202954366384 0)
(0.0681872603877 -0.235114555736 0)
(0.0823527394892 -0.26769974635 0)
(0.0960578316645 -0.300515753575 0)
(0.109326092089 -0.333364359137 0)
(0.122172042036 -0.366050743245 1.24520358514e-21)
(0.134633163565 -0.398404411686 1.17710945267e-21)
(0.146716104286 -0.430282255615 0)
(0.15844382388 -0.461561806959 -1.07387911385e-21)
(0.169833103927 -0.492170392289 -1.03381314213e-21)
(0.180889196253 -0.522046233262 -9.98834510635e-22)
(0.191611973946 -0.551174033576 0)
(0.202002753194 -0.579547726606 0)
(0.212070803957 -0.607202399125 9.09799379563e-22)
(0.221803581579 -0.634161993211 0)
(0.231200476425 -0.660480036578 0)
(0.240262173166 -0.68621709432 8.2723345486e-22)
(0.248989050604 -0.711443162116 0)
(0.257381067935 -0.736214269602 0)
(0.265454704412 -0.760604374174 0)
(0.273217638516 -0.784678031597 0)
(0.280688450241 -0.808511100309 0)
(0.287876474344 -0.832170654784 -1.30890203499e-21)
(0.294802062259 -0.855732983208 0)
(0.301474627896 -0.879265181892 0)
(0.307914301552 -0.902838033259 -1.1280022792e-21)
(0.314133025893 -0.92651347942 -1.06771650329e-21)
(0.320151005976 -0.950352789541 0)
(0.325984208425 -0.974410796836 0)
(0.331653765585 -0.998736307805 -8.90527713451e-22)
(0.33718710688 -1.02338289767 0)
(0.342631404787 -1.04842377062 7.75899717257e-22)
(0.348033597157 -1.07398262711 0)
(0.353427067105 -1.1002136454 -6.61726843723e-22)
(0.358816108374 -1.12725954752 0)
(0.364209359476 -1.15523220565 -5.42663679352e-22)
(0.369612108309 -1.18419878315 -4.80634419239e-22)
(0.375031972997 -1.21417881175 0)
(0.380465763409 -1.24513441189 0)
(0.385907776244 -1.27697114667 0)
(0.391229768294 -1.30954814176 -2.26003884071e-22)
(0.396294761713 -1.34222190011 0)
(0.401263377254 -1.37185819593 0)
(0.406344567688 -1.39815007781 0)
(0.411618644638 -1.42172026525 0)
(0.417115000926 -1.44304776028 0)
(0.422830929445 -1.46250751752 0)
(0.428752059685 -1.48035165739 0)
(0.434854974917 -1.49677634517 -1.89876643984e-22)
(0.441121087396 -1.51190187745 0)
(0.447538820674 -1.52584285922 -3.25843409866e-22)
(0.454103557369 -1.53867525361 -4.08075235229e-22)
(0.460809004598 -1.55049817764 0)
(0.467668010805 -1.56138810018 6.10040321003e-22)
(0.474680596304 -1.57146148361 0)
(0.48183788978 -1.58078840426 -8.72562174307e-22)
(0.489128391861 -1.58948777117 0)
(0.496534559476 -1.59761737502 1.20930726901e-21)
(0.504029990241 -1.60526075145 -1.41053158494e-21)
(0.511596242759 -1.61243516513 0)
(0.519177093935 -1.61919954071 0)
(0.526695490267 -1.62549547848 0)
(0.534084678022 -1.631322026 0)
(0.541274036023 -1.63653955052 -2.8254904636e-21)
(0.548139544906 -1.64106819245 3.20607608405e-21)
(0.554545082041 -1.64470169412 -7.24091304219e-21)
(0.560373106775 -1.64737224487 -8.14478056404e-21)
(0.565563937391 -1.64887657492 -9.124373329e-21)
(0.570034511735 -1.64908015522 0)
(0.573500101456 -1.64822941612 0)
(0.576818857327 -1.6466742615 0)
(0.580564962746 -1.64484149725 -1.39732088468e-20)
(0.584166374716 -1.64186826618 0)
(0.587209916685 -1.63838995559 0)
(0.590662366622 -1.63616474782 -1.94163431387e-20)
(0.595073752749 -1.63437059357 0)
(0.597505958864 -1.63529865319 2.41762085182e-20)
(0.597952218791 -1.6481445862 0)
(0.608046732036 -1.67633479408 -2.96589113199e-20)
(0.638083291417 -1.7218039689 0)
(0.68391592085 -1.79904197516 0)
(0.715204412848 -1.96401464912 0)
(0.707540158839 -2.05327965283 -4.86180963364e-20)
(0.716773954858 -1.80206319888 0)
(0.831385599474 -1.25792976834 -8.06176868171e-20)
(1.04825383394 -0.472905702009 -1.28689221297e-19)
(1.44022677557 0.207445267381 0)
(1.09501716707 0.0134831457327 0)
(0.953548885844 -0.00970266124248 0)
(0.905222683158 0.116794109802 -8.69198051897e-20)
(0.828446775346 0.203756467923 0)
(0.770099357219 0.26103942459 0)
(0.724294344874 0.304412107127 -6.63484566091e-20)
(0.687578746204 0.341720566306 -6.22864268253e-20)
(0.657990280946 0.376278612625 0)
(0.633808986952 0.409540872699 5.60423460735e-20)
(0.613749214842 0.442171906673 5.35414695425e-20)
(0.596902595171 0.4745587951 -5.1319991317e-20)
(0.582647413915 0.506980030835 0)
(0.570488881546 0.539638979653 0)
(0.559988182691 0.572709840055 0)
(0.550746197466 0.606307609068 4.41137974994e-20)
(0.54248011981 0.640633595275 0)
(0.535032774065 0.675836737057 4.11324185047e-20)
(0.528264977493 0.712017834263 0)
(0.522075451467 0.74920185226 0)
(0.516361828927 0.787372532014 0)
(0.511021641335 0.826514572748 -3.57470891695e-20)
(0.505959097328 0.866625108862 -3.44841329386e-20)
(0.501087459197 0.907706089581 0)
(0.496332440774 0.949758751625 0)
(0.491626364886 0.992763236676 0)
(0.486914742658 1.03668769731 0)
(0.482151266934 1.08146594693 0)
(0.477308547237 1.12702090516 0)
(0.472365250591 1.173231827 -5.33685900209e-20)
(0.46730756449 1.21996422961 0)
(0.462130088203 1.26705540386 0)
(0.456841110751 1.31434678637 0)
(0.451442457864 1.36165136943 4.61378991472e-20)
(0.445932084953 1.40882632652 4.44935581215e-20)
(0.440278896075 1.45568033807 -4.29152817765e-20)
(0.434495427188 1.50211157186 -4.13915956181e-20)
(0.428541873675 1.54782006834 0)
(0.422336627777 1.59252872539 0)
(0.415747774088 1.63573990202 0)
(0.408611944614 1.67694845321 -3.581748108e-20)
(0.400742190763 1.7154225612 0)
(0.391942714452 1.75039390772 0)
(0.382011997697 1.78082675885 3.22083662267e-20)
(0.370761819527 1.80560424255 0)
(0.358023060685 1.82329106514 3.00971526818e-20)
(0.343666980886 1.83235197583 0)
(0.327629049739 1.83098634218 2.82415023297e-20)
(0.309924985605 1.81736209017 0)
(0.290651146354 1.7894614258 0)
(0.269999911198 1.74539965483 0)
(0.248250249068 1.6833590364 0)
(0.225764311376 1.60195515239 0)
(0.202976125323 1.50025548102 0)
(0.180352289264 1.37820532683 0)
(0.158408047648 1.23662301918 0)
(0.137699856455 1.07744717969 2.42459708634e-20)
(0.118754489327 0.903847134468 0)
(0.101996954703 0.720415373605 0)
(0.0877517731168 0.532999627131 2.50555169783e-20)
(0.0761870767936 0.348547368804 0)
(0.0673721131952 0.17442310171 0)
(0.0616244201423 0.0178922236736 2.64884432949e-20)
(0.0590261619173 -0.113461817996 0)
(0.0591259215106 -0.213269392109 0)
(0.0613523458541 -0.278085204687 2.74533056589e-20)
(0.0652897669057 -0.307755059662 -2.75306114654e-20)
(0.0701209247349 -0.30571650086 2.75986882997e-20)
(0.0749466027901 -0.279405869816 0)
(0.0800077395129 -0.234723341988 0)
(0.0808542263259 -0.169399702253 5.99466350758e-20)
(0.0741659855276 -0.0848821113591 0)
(0.0590217804905 0.0251074206806 -7.09871048093e-20)
(0.0342402463252 0.183358052292 -7.81557898198e-20)
(-0.00295353026528 0.439686221549 0)
(0.188179908075 0.0441263742395 1.34117198971e-19)
(0.260926924578 0.249197295084 0)
(0.190561017658 0.310846993817 -2.98119513482e-20)
(0.0984320450133 0.29708614864 2.2778445618e-20)
(0.0290996509357 0.25139589962 1.88368339672e-20)
(-0.0122056035898 0.199045471942 -8.25989260273e-21)
(-0.0305942060861 0.151448970581 -1.36770834134e-20)
(-0.0329576095139 0.11255325595 0)
(-0.0250144385598 0.0830570373241 5.51555868256e-21)
(-0.0108764624352 0.0622343310167 -8.71639145645e-21)
(0.00670588729806 0.0490137163415 -1.18444425111e-20)
(0.0259954891017 0.0421970490343 6.46561521238e-21)
(0.0458920852998 0.0407485104295 -8.98683764568e-21)
(0.065730929416 0.0437162096581 -3.0605854023e-21)
(0.0850836690565 0.0503426219965 0)
(0.103711606513 0.0599541078728 2.44988271583e-21)
(0.121451227054 0.0720242624557 2.20046450214e-21)
(0.138237711305 0.0860865031618 1.98157629046e-21)
(0.154018007309 0.101769528152 -1.96477788856e-21)
(0.168808191877 0.11874289341 0)
(0.182619440617 0.136731983858 -1.25515750086e-21)
(0.195497877487 0.155496018831 0)
(0.207487036571 0.174821380669 7.11662996656e-22)
(0.218672723786 0.194527752285 0)
(0.229120140862 0.21444101336 -1.42609889806e-21)
(0.23891381839 0.234424498045 -9.39141858567e-22)
(0.248142580503 0.25434015136 -1.51775771359e-23)
(0.256894527458 0.274092667772 8.41640835816e-22)
(0.265244716249 0.293578193462 9.55213781212e-22)
(0.273259494557 0.312734546023 9.2694495081e-22)
(0.281003890331 0.331491959812 0)
(0.288525447312 0.349821370094 -5.684928939e-22)
(0.295862593951 0.367681395319 -8.54076532417e-22)
(0.303043987303 0.385065898609 0)
(0.310092671253 0.401959397224 0)
(0.317015487601 0.418377111947 -7.83965474839e-22)
(0.323820812382 0.434321952133 0)
(0.330508317981 0.449825541672 0)
(0.337079471012 0.464905241073 0)
(0.343530704276 0.479603284216 0)
(0.349862675855 0.493948067904 0)
(0.356066864637 0.507989595342 4.20640628694e-21)
(0.362139127927 0.521765351487 3.13405483573e-21)
(0.368067846209 0.53532932559 0)
(0.373844622426 0.548724998629 4.60736081783e-21)
(0.379457505521 0.562006150363 1.03730248756e-21)
(0.384896150361 0.575216957721 0)
(0.390149906403 0.588405989435 0)
(0.395207150234 0.601611549005 -3.42051720566e-21)
(0.400044227137 0.61486821159 -4.49030449608e-21)
(0.404621691309 0.628190643512 -7.64479643886e-22)
(0.40892074612 0.641597635926 4.88627488901e-21)
(0.412967607522 0.655114504215 5.74036118128e-21)
(0.416782311191 0.668796773612 0)
(0.420369770733 0.682729457176 -4.94514433589e-21)
(0.423707579364 0.697002338649 4.81839276395e-22)
(0.426767534668 0.711707388831 0)
(0.429504547399 0.726918916424 6.1406023479e-21)
(0.431845315342 0.742763158996 -6.3800504059e-21)
(0.43373893238 0.759488788855 2.30088581856e-22)
(0.435082147982 0.776204515259 0)
(0.435581100925 0.788452697202 0)
(0.435196924425 0.796496347957 0)
(0.434199737724 0.801344190758 7.70575856307e-21)
(0.432840078216 0.803703601776 0)
(0.431331085968 0.803992508489 -8.3195405588e-21)
(0.429845554345 0.802477289296 0)
(0.428516973968 0.799287429187 -8.81523130805e-21)
(0.427444966339 0.794540510641 0)
(0.426695773501 0.78832273219 -9.46108912382e-21)
(0.42631690529 0.78079320635 -9.81274175543e-21)
(0.426335016358 0.772123482453 0)
(0.426757856773 0.762587707582 -6.16690254671e-22)
(0.427587038006 0.752459833012 0)
(0.428812499218 0.742107375603 8.81291125245e-22)
(0.430399997571 0.731860014977 0)