/*--------------------------------*- C++ -*----------------------------------*\
| =========                 |                                                 |
| \\      /  F ield         | OpenFOAM: The Open Source CFD Toolbox           |
|  \\    /   O peration     | Version:  v1806                                 |
|   \\  /    A nd           | Web:      www.OpenFOAM.com                      |
|    \\/     M anipulation  |                                                 |
\*---------------------------------------------------------------------------*/
FoamFile
{
    version     2.0;
    format      ascii;
    class       volScalarField;
    location    "9";
    object      pa;
}
// * * * * * * * * * * * * * * * * * * * * * * * * * * * * * * * * * * * * * //

dimensions      [0 2 -2 0 0 0 0];


internalField   nonuniform List<scalar> 
12225
(
10.1826480418
5.90851856399
5.15869709306
4.98441510115
5.21338019824
5.51015982824
5.88811459854
6.21206201225
6.35967743041
6.23571906731
5.90750200532
5.63869762733
5.83162709358
7.35276452129
11.6044271586
20.0225364209
31.1396305995
32.539182483
23.8407197987
14.4247011066
13.1865215641
13.0538704418
13.2418485708
13.6577394995
14.2058116007
14.7973094531
15.3383511051
15.8162293616
16.3687932871
17.2453017593
18.8234231725
21.8202320849
27.1589105577
35.1237341539
42.424936586
37.4280866798
-1.58383922648
8.64886224244
9.19351472277
8.64195777407
8.56371505796
8.55777758595
8.5928283758
8.5747767044
8.44282592924
8.23005035857
8.12143520948
8.42741085374
9.60863399123
12.3403514161
17.3660768626
24.5046112112
30.3665895636
27.2345779569
20.0423124305
12.9951312789
12.79916955
12.5371460492
12.5286082515
12.5671869995
12.6110050352
12.5605503301
12.3608848133
12.0387699881
11.7385782094
11.7188122434
12.387186338
14.2651377774
17.7667736347
22.3226630103
25.0913953538
21.9975871357
10.3850222384
11.7701710547
11.5839744437
11.477895121
11.4927034987
11.5785088106
11.6824822321
11.7396536003
11.7199752506
11.6605418417
11.6815933457
11.9890927
12.8940841283
14.7284832561
17.5707592246
20.6117498775
21.7325629364
19.0965527466
13.412562122
12.7200478912
12.5884206372
12.399762365
12.3200840098
12.2795038478
12.2556782946
12.2007373599
12.1101037558
12.0319510446
12.0788912368
12.4247749851
13.2989653584
14.8781734909
17.0283590328
18.9361892153
19.2001824729
17.1282821164
13.0605499628
12.9640583961
12.8624080441
12.7415982376
12.6736899502
12.6253907577
12.5833196109
12.5155995924
12.4324182524
12.3840007854
12.4703501202
12.8307069958
13.6173631
14.8855130612
16.3989567127
17.4814002781
17.3019591384
15.6779507446
13.1989883395
13.1871785382
13.11908474
13.0290282798
12.963443353
12.9030603071
12.8468896182
12.7748685158
12.7058212264
12.6864964968
12.7997801885
13.1475339702
13.8135752182
14.7694764746
15.7564338426
16.2758733221
15.8786574547
14.5762348947
13.269789352
13.3508133825
13.3080880912
13.2455206983
13.1862182768
13.1205622608
13.0585908088
12.9885331235
12.9341266733
12.9355173596
13.0575227014
13.366366302
13.8927952478
14.5621728761
15.1415666659
15.2940116804
14.7985830211
13.7218411972
13.3132060403
13.4629642716
13.4448678375
13.4018678722
13.3510003689
13.284642227
13.2222720505
13.1570177375
13.1143182076
13.1261929394
13.239152172
13.4894834959
13.8719486829
14.2954695736
14.5741088406
14.4953554457
13.9629448596
13.0504368445
13.3578287508
13.5270946062
13.5164037867
13.4860994959
13.4439174528
13.3799581776
13.3198667663
13.2597511533
13.2240484472
13.2363368207
13.3261545803
13.507301979
13.7537450719
13.9780181857
14.0433670197
13.8240266458
13.2878594031
12.5000146232
13.37907413
13.5186169286
13.4950812249
13.4696258109
13.4349646306
13.3746333112
13.3180157138
13.2615667023
13.2278574437
13.2325640894
13.2927140575
13.4077099406
13.5451809917
13.6280550856
13.5609827834
13.2678349054
12.7463538789
12.0511857855
13.3608100719
13.4477383654
13.411453669
13.3833090218
13.3552318804
13.2984761796
13.2461494003
13.1925324257
13.1580171937
13.1508568441
13.1785660359
13.233011192
13.2772255301
13.2537694142
13.0934707474
12.7586138481
12.2583366769
11.6427671022
13.3145094924
13.3171991254
13.2776435268
13.2384853955
13.2131756577
13.1574839169
13.1072033299
13.0544798513
13.0147890171
12.9903359705
12.9817045865
12.9742061168
12.9363195943
12.8233854547
12.5953129163
12.233801732
11.762811398
11.2179746307
13.2291301246
13.1457572064
13.1122524126
13.0563059698
13.0309992306
12.9697247539
12.9180059403
12.8593068775
12.8094352107
12.760969767
12.7141728404
12.6483604013
12.5425007309
12.3616963439
12.0884832794
11.716466303
11.2759077218
10.7964924855
13.0944763532
12.937401786
12.9185358333
12.8471657248
12.8174123987
12.7490397742
12.6880500744
12.6188701858
12.5490378887
12.4748506685
12.3860429233
12.2736904193
12.1120410072
11.8899342517
11.5895800042
11.2255043416
10.8150780078
10.3950522545
12.9175567143
12.6842368869
12.6810343915
12.5932815711
12.5585894868
12.4783952645
12.404969701
12.3167331173
12.2233532054
12.1162798979
11.99123288
11.8360596342
11.6393628057
11.3894931403
11.0852836784
10.7344509464
10.3628159446
9.98898711608
12.6905771048
12.3821103143
12.3918539309
12.2891934217
12.2481591964
12.1549510034
12.0665455503
11.9571432058
11.8385599114
11.7010641961
11.5445382009
11.3586338272
11.1394024489
10.8781953646
10.5797870018
10.2500935221
9.91431422074
9.58375764657
12.4083148158
12.0573132312
12.0766720257
11.9614389759
11.9102461328
11.8024546014
11.6973078573
11.5672409957
11.4255834196
11.2634591097
11.0835737316
10.8782085567
10.6475972922
10.385168591
10.0979602836
9.79024237331
9.48508045094
9.18987364242
12.1842403095
11.8765567254
11.8700835042
11.7490836517
11.6822140323
11.5575845494
11.4365393139
11.2858500213
11.1287953276
10.9473107961
10.75579333
10.5387480505
10.3064916759
10.0447764674
9.7691339672
9.47481096168
9.19099822642
8.91644604692
12.0419113968
11.7903006138
11.7721872104
11.6488742939
11.5658406866
11.4319135642
11.2939042299
11.1352950523
10.9611780641
10.7747285208
10.570696324
10.3543655504
10.1166583404
9.86407300144
9.59042387659
9.31252453863
9.03520942076
8.78016493077
11.9260724364
11.742974476
11.7043795989
11.5914141409
11.4991469449
11.3572452921
11.2077392213
11.0364063186
10.8550846229
10.6583861306
10.4499605179
10.2289371834
9.9928087359
9.74142576833
9.47540205867
9.2032723211
8.93652741373
8.68623909248
12.0043856798
11.8305973706
11.7864796071
11.6772552339
11.5807351071
11.4326141383
11.2783034038
11.1011289917
10.9128826504
10.7109739769
10.4992317355
10.2750073589
10.0402187158
9.79017054338
9.5321587864
9.26458024536
9.00774996402
8.76565607531
11.1084638194
11.4407591726
11.3764107628
11.2870396746
11.1712682488
11.0106366371
10.8352991008
10.6405791682
10.4361995204
10.2183629936
9.99275006678
9.7579000858
9.51446075666
9.26206694362
9.00195147396
8.7399586301
8.48402569771
8.23152672947
14.3721622458
12.9764935162
12.9196610138
12.8508879141
12.7559077909
12.615399876
12.4655935826
12.2965141414
12.1159152392
11.9218374152
11.7152128019
11.4968778043
11.2657553656
11.0269063977
10.780939339
10.5311680793
10.2868904272
10.1019093262
3.29211567587
9.10327726477
9.12348486986
9.10781621787
8.9435582783
8.76360309718
8.56519212713
8.34941114885
8.11910485194
7.87096045408
7.61102954203
7.3436473064
7.07217957345
6.80109444367
6.53765670723
6.28632598056
6.04788850719
5.71874165356
30.1960436074
16.7543946537
16.0656820055
16.0101673345
15.8314716629
15.6252691757
15.4142101946
15.1855474339
14.9450419699
14.6909360562
14.429315551
14.1750389048
13.9335982749
13.7129478584
13.5196786533
13.347287119
13.1780136684
13.1649501321
-17.073088232
5.99223414082
8.12542754052
7.94166745416
7.79720985795
7.68428757971
7.57969232185
7.47601070327
7.36826588778
7.24891196462
7.11964449484
6.98033858352
6.82356196965
6.64590135511
6.44225252127
6.19755728214
5.89889224652
5.37977368434
31.5806355005
18.7181873988
17.3473414926
17.2118232407
16.9366328704
16.7035625493
16.4666973946
16.228487381
15.9844939713
15.7309566383
15.4698473503
15.1981928025
14.9039399623
14.5812196722
14.2320593614
13.8555214474
13.4202368465
13.1172355864
5.44817441955
4.59198186039
3.39980037154
3.33106240123
3.26393589337
3.19002139477
3.13027188827
3.06673957991
3.00776788387
2.94368045986
2.87199345979
2.78241506166
2.66458152851
2.51458647648
2.34726461067
2.21924314332
2.24515637587
2.37382883088
1.11272002069
1.11752064271
1.13361175398
1.16330046763
1.19957906736
1.23659292985
1.26792208809
1.29492127744
1.31990378976
1.34815074908
1.38155266008
1.42336725393
1.47276090262
1.53083630017
1.59517100519
1.66588120001
1.74016839076
1.81792231977
1.89657498634
1.9760521998
2.05429143729
2.13134773468
2.2057184642
2.27763685296
2.34617755222
2.41183071907
2.47428078187
2.53432032447
2.59201816442
2.64831705512
2.70351884118
2.75860584156
2.8138201529
2.87000691532
2.92730668332
2.98628697718
3.04693884164
3.10953995299
3.17382698478
3.23983137203
3.30724592635
3.37592199301
3.44554962797
3.51579421653
3.58635942159
3.65668509939
3.72649313922
3.79501987025
3.86203823286
3.92661257649
3.98849543807
4.04671876699
4.10118819662
4.15137371193
4.19734947166
4.23863267913
4.27505822906
4.30631189588
4.33221595642
4.3528935297
4.3688333051
4.38148121467
4.39241164945
4.40428989303
4.41851545667
4.43378260705
4.44811692729
4.45995663616
4.46782687824
4.47059971249
4.46735898487
4.45730154965
4.43977013705
4.4142378162
4.38010007245
4.33680389518
4.28384411135
4.22060475861
4.14653129643
4.0611979483
3.96436139734
3.85572743763
3.73527432166
3.60311364232
3.45977677735
3.30581151828
3.14231326466
2.97044389321
2.79233018309
2.60975158029
2.42810950942
2.2520383786
2.08562589082
1.93062116842
1.78976042696
1.66530057325
1.55454975938
1.44934109662
1.3483739102
1.25448480685
1.16708702953
1.0790596024
0.965897590736
0.833733318395
0.701882900965
0.600661017067
0.535428249981
0.490704667208
0.463145234342
0.449876890599
0.447021632182
0.450941178565
0.45858825239
0.468420165155
0.479382267572
0.490926172936
0.502774449614
0.514856424529
0.527128924032
0.539516272498
0.551841659191
0.563919463408
0.575636068391
0.586912075939
0.597778092658
0.608167671033
0.618242062046
0.62811852685
0.63801605296
0.647990893982
0.657950129713
0.667685430588
0.677116854785
0.686028049842
0.694337716645
0.701843508063
0.708483452307
0.714084468983
0.718521035087
0.721511269857
0.72283857081
0.722402587079
0.720269754303
0.716536183131
0.711275711642
0.704398888242
0.695828447062
0.685475699561
0.673402598473
0.659668570974
0.644418401478
0.627739377568
0.609784740918
0.590516228727
0.569989715814
0.548135688971
0.525021823398
0.500547729488
0.474770148568
0.447537960099
0.418914759188
0.388773742022
0.357246743846
0.324319037619
0.290319703029
0.255507725547
0.220561186211
0.186186228944
0.154045122076
0.126354681028
0.106141658196
0.0964821673623
0.0999296803982
0.116221778397
0.13911932356
0.158782681724
0.159906920519
0.124226035138
0.0395203494014
-0.0909245018773
1.03896165512
1.07497858737
1.14420222209
1.22073638892
1.27728199083
1.31027775686
1.32690084603
1.3366672642
1.34537258347
1.35771368146
1.37441970384
1.39667218766
1.42294138142
1.45321220678
1.48540426629
1.51924822261
1.55272891577
1.58558593554
1.61607722539
1.64399570288
1.66794164603
1.6878205729
1.7026184282
1.71235773291
1.71642416693
1.71506782786
1.70810422879
1.69603830738
1.67899617321
1.6576747506
1.6323871033
1.60390346879
1.57257628779
1.53906701637
1.50365254569
1.46687776753
1.42885799614
1.38989384665
1.34997176937
1.30919391123
1.26747412571
1.22481065472
1.18112300615
1.13631019247
1.09030932945
1.04290958492
0.994072053059
0.94350820215
0.891223335685
0.836961231445
0.780832181077
0.722608734461
0.662152496335
0.599154441525
0.533708472565
0.465930190588
0.396182364156
0.325071417062
0.253515304499
0.182365729247
0.112004029303
0.0427923686218
-0.025520462924
-0.0955526491529
-0.166103658133
-0.234263079115
-0.298238600003
-0.356840783324
-0.409307475109
-0.45518333443
-0.494207029991
-0.526232156736
-0.55121014413
-0.569208338098
-0.580245947126
-0.584447266155
-0.582084459298
-0.573511335624
-0.559216256143
-0.539718140329
-0.515585427213
-0.487563953235
-0.456466397432
-0.423056662758
-0.387889752012
-0.351729005162
-0.315260449242
-0.278608066269
-0.241807396845
-0.204176594303
-0.165614596343
-0.121953297237
-0.0693568881983
-0.00796248709891
0.0603350154566
0.13842787946
0.226453090492
0.314559748881
0.391928738177
0.461030369916
0.512379898085
0.528083571954
0.526135535517
0.530394392225
0.559521232776
0.645148655908
0.749624677297
0.830020814915
0.896502081427
0.952988272748
1.00214655711
1.04426633659
1.08033649279
1.1111706046
1.13732384837
1.15931506032
1.17767064277
1.1929310999
1.20556684046
1.21590072896
1.22412162044
1.2304217207
1.2350320755
1.23826776741
1.24045873246
1.24202322259
1.24346698237
1.24520662645
1.24732624385
1.24976710022
1.252365149
1.25510821785
1.25799928113
1.26097736776
1.26397917652
1.26691591435
1.26975629152
1.27245524818
1.27495828128
1.27717001618
1.27893316741
1.28024636229
1.28130093837
1.28230290367
1.28339110014
1.28447217367
1.28539325323
1.28593598734
1.28573375906
1.28431369281
1.28129708193
1.27628687967
1.26900014881
1.25907837551
1.24616834291
1.22986425277
1.20990831529
1.1860408833
1.15823436828
1.12652345168
1.09116531659
1.05245611704
1.01099526772
0.96740143335
0.922578200282
0.877410998577
0.833049031583
0.790795844735
0.752452123424
0.719716783885
0.694300884898
0.676975873436
0.666748211085
0.658141035061
0.644129019493
0.615236833984
0.559451124938
0.469651470169
0.360276109984
0.304721269574
0.935983004404
1.06690440789
1.22141227563
1.3376201553
1.38787266853
1.38701898096
1.36137225729
1.33162276291
1.30711686489
1.29214213442
1.28619979845
1.28923770198
1.29932661063
1.31629148014
1.33847652608
1.36590607641
1.39715292644
1.43220772451
1.46974743846
1.50963281373
1.5506449505
1.59254056387
1.63428665296
1.67563767352
1.71580701325
1.75468363443
1.79181207679
1.82729660254
1.86097678446
1.89315344668
1.92389268292
1.95360603344
1.98241758332
2.01077099812
2.03878289868
2.06677184907
2.09480038398
2.12306249925
2.15150131846
2.18019229027
2.20906770082
2.23812340104
2.26731228042
2.29656028709
2.3258368869
2.35498544778
2.38397445562
2.41258059093
2.44079407239
2.46835139127
2.49526757797
2.52141776989
2.54686004925
2.57132340283
2.59467541216
2.61679109819
2.63764091529
2.65710635328
2.6748417509
2.69060190132
2.70364497683
2.71261593218
2.71599722697
2.71437019163
2.70349589139
2.68269390484
2.65321187368
2.61667185994
2.57453559053
2.52803552948
2.4781825573
2.42567837851
2.37102952585
2.31454682709
2.25625705962
2.19604561142
2.13366106905
2.06867030943
2.00062477119
1.92913546358
1.85389559426
1.77472772806
1.69161095463
1.60472983585
1.51451954615
1.42157666518
1.32658801332
1.23024951716
1.13426204114
1.03909710774
0.946512472442
0.860100676149
0.784669211246
0.722946959596
0.673219244623
0.635109205837
0.612844778689
0.589889400071
0.563157711487
0.543931749144
0.517620469218
0.472172000896
0.460212140379
0.506381878314
0.582516272308
0.684663636474
0.809944902056
0.921303532336
1.00074498483
1.0553629167
1.093770729
1.12152500857
1.14204793189
1.15725989523
1.16823113451
1.17564528295
1.18003572408
1.18186689907
1.18155050985
1.17936427731
1.17549861293
1.17013645568
1.16350865916
1.15591916866
1.14768215825
1.13912071074
1.13018781079
1.12078531957
1.11076318962
1.10007749247
1.08902743391
1.07779673631
1.0664493996
1.05502087738
1.04348823794
1.03193630807
1.02045029382
1.00916998247
0.998069939743
0.986875517498
0.975376578406
0.963541854497
0.951618825653
0.939918213068
0.928764370906
0.918639007244
0.909945159379
0.902871880496
0.89735738436
0.893241111171
0.890498227088
0.889123673031
0.889079675745
0.890335129003
0.892866389681
0.89660215966
0.90144293997
0.907220689897
0.913734175958
0.920680989704
0.927688924374
0.934253056931
0.939823637564
0.943720300097
0.945319500019
0.944000871926
0.939398418962
0.931674431733
0.921523407364
0.910062715293
0.898834041554
0.8887482393
0.878500520589
0.862497716027
0.834511965462
0.783208654943
0.694079715143
0.557163330082
0.389126143941
0.262184235652
0.892684202783
1.10844884409
1.29182927069
1.41551330271
1.45155781273
1.42786275172
1.38162801152
1.33617618971
1.29954300925
1.2740112666
1.2577603497
1.24998503652
1.24853059198
1.25303191403
1.26190128707
1.27507515279
1.29123837282
1.31031795827
1.33111015702
1.35341900683
1.37614254695
1.39900223958
1.42103864078
1.4419759434
1.46108088881
1.47818675277
1.49284749477
1.50509395839
1.51476246453
1.5220873067
1.52710351667
1.53018364153
1.53149203966
1.53140592874
1.53008924151
1.52790078891
1.52491858229
1.52137727774
1.51730980729
1.51284077197
1.50795906949
1.50270971127
1.4970767878
1.49102326728
1.48452661095
1.47745994606
1.46979077356
1.46131606287
1.45197312474
1.44153564094
1.42991140721
1.41680792943
1.40224966456
1.38610494751
1.36830754745
1.34877968465
1.32756559808
1.30472957638
1.2802884962
1.25450595784
1.2282306212
1.2032025258
1.1814970404
1.16571947693
1.15964331501
1.16332227845
1.17560252397
1.19532149219
1.2215437069
1.25359118096
1.29099684312
1.3334683314
1.38073293637
1.43238655557
1.48793231226
1.54651823486
1.60686772488
1.66730203748
1.7257255445
1.77973242081
1.82675136505
1.86425069271
1.88995591348
1.9020191226
1.8992223222
1.88105501337
1.84749978536
1.79899275444
1.73629496037
1.66210562247
1.57862508545
1.4911572378
1.40525308898
1.32766291242
1.25848405047
1.19275265806
1.13836495729
1.09004454886
1.06520428509
1.07283170017
1.08272391605
1.08781418442
1.1068182998
1.1349629973
1.16412016271
1.19925132831
1.25375752447
1.31396430975
1.36574977139
1.40465831731
1.4335800066
1.45615963999
1.47471279607
1.49044174855
1.50386653163
1.51525956619
1.52481314255
1.53273071394
1.53920428628
1.54436299227
1.54827263937
1.55099315857
1.5526385053
1.55336817065
1.55338192395
1.55284891684
1.55174259834
1.54997883471
1.54762837948
1.54489741331
1.54216639674
1.53941198118
1.53630521249
1.53274741698
1.5286678439
1.52414827845
1.51931805724
1.51432735784
1.50912886755
1.50344076343
1.49695177133
1.48950792269
1.4809201289
1.47106795697
1.4599757108
1.44791102946
1.43507970653
1.42152920385
1.4073256121
1.39254717385
1.37720122454
1.36130649724
1.34487564085
1.32793923016
1.31056058633
1.29279717611
1.27472240489
1.25638535403
1.23784272365
1.21910120788
1.20021226114
1.1811803855
1.16203012967
1.14275042907
1.12344394205
1.10431878527
1.08592050644
1.0692762853
1.05596742661
1.04802871668
1.04766375949
1.0561422543
1.07221016009
1.09114366732
1.10583797967
1.10535177195
1.07707977462
1.01452665584
0.935411541696
0.894486862464
0.949532194929
1.12466761202
1.27294105092
1.41145903196
1.45780720083
1.44066985333
1.4015554854
1.36189579146
1.32760858109
1.30048076453
1.27949298567
1.26463735887
1.25468570583
1.24974495545
1.24878222517
1.25194413782
1.25830654241
1.26792551136
1.27992805114
1.29424303286
1.31003333092
1.32711372155
1.34473265031
1.36264591132
1.38023079491
1.39729558636
1.41340482738
1.42848803318
1.44232042556
1.45497257619
1.46640311438
1.47678759948
1.48616354082
1.49477574769
1.50268316462
1.51008372619
1.51702233537
1.52365012529
1.52995045208
1.53601110285
1.54180049966
1.54733969781
1.55258390747
1.55747605426
1.56194321927
1.5658321583
1.56901530872
1.57124420314
1.57235477339
1.57200917086
1.57001521178
1.56609479502
1.56007680759
1.55170855009
1.54082953002
1.5272329565
1.51089781703
1.49195384751
1.47082319125
1.44819462338
1.4247475776
1.40081039003
1.37609295204
1.34985153923
1.32225655421
1.29448765963
1.26761040767
1.24256081315
1.22009991907
1.20094057792
1.18580974854
1.17545994222
1.17077799036
1.17277226638
1.18242332285
1.20064500664
1.2281133574
1.26499579349
1.31083630456
1.36438959047
1.42357724741
1.48563267595
1.54728215344
1.60496926836
1.65533226566
1.69559443053
1.7233663756
1.73667335307
1.73556412846
1.72088971271
1.69816201674
1.67470757801
1.6544795938
1.63336862535
1.61553388761
1.61193149142
1.63597948816
1.6763341674
1.70861876515
1.71014741292
1.68116947151
1.63600884541
1.59080592725
1.5438409604
1.49363540546
1.44340147635
1.40250777135
1.37134495969
1.34751882883
1.32656575259
1.30699702463
1.28878620895
1.27208486264
1.25687157199
1.24293832647
1.23006120249
1.21805786214
1.20683313849
1.19632128428
1.18643789422
1.17707833404
1.16814301661
1.15963141718
1.15158451673
1.14411234839
1.13725426973
1.13103276016
1.12538375931
1.1203709728
1.11588820292
1.11165859568
1.10731754564
1.10261475069
1.09732081185
1.09147827514
1.08518016633
1.07865988128
1.07205755281
1.06542064843
1.05867507177
1.05171778383
1.04448667867
1.0370445898
1.02955996312
1.0222584028
1.01521568511
1.00855715172
1.00238060836
0.996835537646
0.991997541785
0.987934528581
0.984618443024
0.982045666469
0.980119945799
0.978792999042
0.977912653723
0.977377443718
0.97696657042
0.97650457293
0.97568538487
0.974293913582
0.972008508718
0.968585748266
0.963680510397
0.957082349706
0.948635840332
0.938565068943
0.927462706897
0.916437611998
0.906974988895
0.90067009347
0.89827889693
0.89888500079
0.899478649594
0.895405266664
0.879413826621
0.845121281624
0.793211337856
0.742586560215
0.72951322192
1.06640520018
1.04467301163
1.16885174237
1.37654696572
1.45837754968
1.46119537242
1.43707205187
1.40717159862
1.3775015497
1.35073421891
1.32705665575
1.3072458779
1.29079556153
1.27809718001
1.26854042154
1.2623770314
1.25901352821
1.25859171379
1.26053347605
1.2648483341
1.27098863037
1.2788417985
1.28786664558
1.29788450195
1.30841878451
1.31927978775
1.33011680082
1.34081100819
1.35115696587
1.36113901841
1.37067353793
1.37983559292
1.38863525297
1.39717935993
1.40550547604
1.41374736238
1.42191971353
1.43012954125
1.43838872487
1.44677570635
1.45529232712
1.46398614979
1.47285469313
1.48189469214
1.49107807201
1.50032316666
1.50955338535
1.51859297085
1.52728397203
1.53539114815
1.54271091171
1.54893591209
1.55387689639
1.55725061649
1.5588141218
1.55834369867
1.55579829431
1.55116096307
1.5444760765
1.53577479437
1.52503103032
1.51210441413
1.49705791524
1.47937637784
1.45877006558
1.43557872418
1.41028914763
1.38342565048
1.3554752209
1.32692404545
1.29823970699
1.26997843791
1.2427852215
1.21746693369
1.19516173399
1.1772717407
1.16541486177
1.16131159712
1.16653653457
1.18221396214
1.20868554947
1.24532585837
1.29048122608
1.3415805363
1.3953994668
1.44868071523
1.49859633337
1.54359333257
1.58472904619
1.62472290899
1.65879724012
1.6916584221
1.72733855279
1.76543522777
1.8119972256
1.86847733606
1.92129268721
1.95450278594
1.95266215891
1.90951125629
1.84029109672
1.76451983307
1.69284301355
1.62208445861
1.55058853641
1.48020134759
1.41630893641
1.36252773599
1.32096419498
1.2902021432
1.26809570423
1.25271053357
1.24249198435
1.23616671305
1.23266704354
1.23112519943
1.23089048781
1.23149976525
1.23263136978
1.23402179706
1.23545275587
1.2367647149
1.23787706724
1.23878148707
1.23950881622
1.24007649121
1.24048924941
1.24072215029
1.24075755859
1.24048143891
1.23969493097
1.23825467801
1.2361383152
1.23324792454
1.22961975592
1.2253701008
1.2207126929
1.21578575164
1.21061033924
1.20498201979
1.19867789988
1.19157431303
1.18383466398
1.17570026813
1.16735757918
1.15888325565
1.15035565126
1.14182890962
1.13337425119
1.12502306584
1.11679313353
1.10866298788
1.10062088355
1.0926407974
1.08472228721
1.0768542649
1.06904659303
1.06128119735
1.05353845566
1.04575079186
1.03785541571
1.02973845678
1.02128096444
1.01230733264
1.00268095661
0.992331748565
0.981436535613
0.970443559674
0.960146193065
0.951530975883
0.945456431714
0.941956513409
0.939740264573
0.935821451188
0.925501938218
0.903029243752
0.864174342997
0.811623863715
0.761517896202
0.737118012178
1.17301531876
0.848203524907
1.03386620284
1.35947484046
1.46932962776
1.48445122408
1.47082182604
1.44892356301
1.42488729205
1.40142627929
1.37905732017
1.35860312089
1.3399237493
1.32348844048
1.30904788105
1.29693244954
1.28688067918
1.27909273082
1.27329179316
1.26956298793
1.26758895827
1.26732100967
1.26841169559
1.2706960775
1.27383772643
1.27765234809
1.28185432529
1.28628620256
1.29075819535
1.29517490163
1.29944923893
1.30355356162
1.3074701629
1.31124108514
1.31488983106
1.31848187143
1.32206387925
1.32571856209
1.32948749716
1.33345469915
1.33766425285
1.34218566007
1.3470535695
1.3522996843
1.35792431269
1.36388904408
1.37011948613
1.37648031122
1.38282055923
1.38889123895
1.39446382409
1.39926926088
1.40306204897
1.40559865936
1.40663126693
1.40595882213
1.40357869193
1.39936777052
1.39334603409
1.38574860636
1.37697126979
1.36735789993
1.35738321944
1.34781415964
1.33870560975
1.32977672493
1.32064248856
1.31096767434
1.30041638641
1.28873998781
1.27571664206
1.26117927635
1.24502375745
1.22729918251
1.20823411858
1.18847219723
1.16912859654
1.151777599
1.13844219607
1.13137101827
1.13255751191
1.14341307712
1.16438953718
1.19504488525
1.2343349808
1.28116664475
1.33440510125
1.39160134177
1.45115296921
1.51092807061
1.5647008128
1.61269385494
1.65501425397
1.70009716141
1.75310631567
1.80742714524
1.84893316654
1.86681081995
1.85173010385
1.81030847946
1.75936783693
1.71001715669
1.66272056209
1.61235454866
1.55781574734
1.50119949674
1.44662232962
1.39802080914
1.35842749694
1.32836694167
1.30673416754
1.29185262892
1.28202566648
1.27582198542
1.27205553376
1.26981467253
1.26844254843
1.26751806135
1.26679050494
1.26611284431
1.26537086112
1.2645185767
1.26351426643
1.262406777
1.26121998407
1.26003361548
1.25884842372
1.25770854837
1.25654853914
1.25530657113
1.25376171159
1.25178079527
1.24918310857
1.24589936643
1.24187142848
1.23726844735
1.23227351503
1.2270826718
1.22166973126
1.21584609966
1.20938891541
1.20223374392
1.19447242695
1.1863102211
1.17788869538
1.16932814018
1.16069661039
1.15208547736
1.14355042597
1.13515786061
1.12692155394
1.11886014866
1.11095440625
1.10320536189
1.09558712315
1.08809604652
1.08069712562
1.07336442312
1.06602580119
1.05860749653
1.05099286294
1.0430617408
1.03465931052
1.02563986668
1.0158847993
1.00540221966
0.994402575262
0.983361665937
0.973016644358
0.964232831725
0.957640820127
0.953154727505
0.949578225079
0.944297849971
0.933210017972
0.911850091388
0.877662311021
0.834216303177
0.794351378167
0.773325528509
1.21775809687
0.566314293318
0.914764692433
1.35559095063
1.45918755716
1.47904089115
1.47450698224
1.46199238229
1.44707358657
1.43115006156
1.41442097873
1.39763061202
1.38095302074
1.3649750665
1.34981112568
1.33589076414
1.32325906088
1.31218553544
1.30264218484
1.29477251656
1.28848587935
1.28374381304
1.28035685274
1.27820586356
1.27707337796
1.27677418668
1.27710923904
1.27789009084
1.27896343879
1.28018209901
1.2814619598
1.28272447919
1.28396005217
1.28515141529
1.28634441783
1.28757847239
1.2889229057
1.29044792322
1.29223321742
1.29435964625
1.29690134521
1.29993188915
1.30350736358
1.3076703417
1.31243017443
1.31775546772
1.32356813245
1.329729026
1.33604022812
1.34226580496
1.34812353701
1.35330286846
1.35752141783
1.36071139829
1.36279843669
1.36389062866
1.36402371902
1.36258407808
1.35943499868
1.3550039728
1.34971206071
1.34372688746
1.33709074296
1.32981398575
1.32194740537
1.31349724066
1.3044785818
1.29493665745
1.28493368433
1.27451370511
1.26362687345
1.25217234322
1.2399197876
1.22653199128
1.2116701502
1.19516241787
1.17714076759
1.15822653321
1.1396350564
1.12323926783
1.11125656055
1.10597874467
1.10941697364
1.12297958405
1.14746050209
1.18180987231
1.22516859666
1.27355655872
1.31902701314
1.35590464284
1.38091596794
1.40186928381
1.42420939899
1.46246886216
1.52174165999
1.5880935939
1.63972518384
1.66992154304
1.67840204262
1.67390200838
1.66517333477
1.65378011922
1.63585682422
1.60794797538
1.57076631271
1.52740175515
1.48208020092
1.43882796156
1.40088817702
1.3697492557
1.345451392
1.32716847171
1.31372790451
1.30396199684
1.29681050491
1.29141253774
1.2871192116
1.28352431853
1.28039482565
1.27761406423
1.27510314282
1.27280133771
1.27066065444
1.26867253736
1.2668441729
1.26520183489
1.26374979431
1.26248384013
1.26133746738
1.26019799493
1.25885812109
1.25711490758
1.25475422059
1.25166203322
1.24781128519
1.24335815464
1.23848356651
1.23335272478
1.22792285884
1.22206050989
1.2155875614
1.20848168293
1.2008102491
1.19274835838
1.1844146179
1.17593757975
1.16738494313
1.15885544164
1.15039903683
1.14208499881
1.13392518507
1.12594217767
1.11811524566
1.11044201011
1.10289130353
1.09544993746
1.08807755992
1.08073986851
1.0733675821
1.06588800449
1.05819242005
1.05016528179
1.04166245799
1.03255342652
1.02273954156
1.01224815844
1.00127765246
0.990255724246
0.979807388999
0.970631862905
0.963166687386
0.957241324956
0.951767311942
0.944479640757
0.932026636434
0.91109901299
0.880414232892
0.843825578954
0.811489629241
0.794141152858
1.1818529793
0.254785937375
0.819120410644
1.32178403053
1.39186402034
1.42295383014
1.42994006831
1.4296829401
1.42705569334
1.42130392495
1.41277007381
1.40236926006
1.3906736931
1.3783799578
1.3659168997
1.35376669495
1.34220581293
1.33150741561
1.32185271652
1.31338600184
1.30611808808
1.30002022536
1.2950455886
1.29107947463
1.28802180885
1.28569524237
1.28396298669
1.28262882434
1.28158659607
1.28067403697
1.2798485462
1.27900957784
1.27818461176
1.277343963
1.2765660612
1.27587675534
1.2753823886
1.27513580135
1.27524424117
1.27576740451
1.27679544932
1.27837866247
1.2805768947
1.28340656317
1.28686398678
1.2908830556
1.29535516523
1.30011515283
1.30493116252
1.30948855522
1.31341053236
1.31632838247
1.31789325661
1.31855904683
1.31907640804
1.32020609206
1.3213791382
1.32030067367
1.31681618567
1.31221291309
1.30735613632
1.30294761372
1.2994300061
1.29649647104
1.29355984126
1.29000472457
1.28546113918
1.27972118792
1.27288687244
1.26505300209
1.25643369945
1.24701379967
1.23682380404
1.22561633297
1.21309427402
1.198850241
1.18265568007
1.1643798265
1.14462283898
1.12453729989
1.10603395539
1.09153071705
1.08305912123
1.08232080575
1.0900944644
1.10365725865
1.12070967249
1.1351429454
1.14072354055
1.13624716614
1.13018614587
1.13823476736