/*--------------------------------*- C++ -*----------------------------------*\
| =========                 |                                                 |
| \\      /  F ield         | OpenFOAM: The Open Source CFD Toolbox           |
|  \\    /   O peration     | Version:  v1806                                 |
|   \\  /    A nd           | Web:      www.OpenFOAM.com                      |
|    \\/     M anipulation  |                                                 |
\*---------------------------------------------------------------------------*/
FoamFile
{
    version     2.0;
    format      ascii;
    class       surfaceScalarField;
    location    "9";
    object      phi;
}
// * * * * * * * * * * * * * * * * * * * * * * * * * * * * * * * * * * * * * //

dimensions      [0 3 -1 0 0 0 0];
oriented        oriented;


internalField   nonuniform List<scalar> 
24170
(
3.07352975909e-06
1.14877454094e-07
2.98682956902e-06
8.67014031839e-08
2.90697229909e-06
7.98591574367e-08
2.83035029549e-06
7.66241099701e-08
2.75703200597e-06
7.33202801764e-08
2.68708517325e-06
6.9948766682e-08
2.62039845695e-06
6.66886596965e-08
2.55679034435e-06
6.36099319597e-08
2.49605675344e-06
6.07354422964e-08
2.43798184147e-06
5.80766093319e-08
2.38233786756e-06
5.56457078733e-08
2.32887981534e-06
5.34596225259e-08
2.27733747122e-06
5.15439103827e-08
2.2273980332e-06
4.99408671651e-08
2.17866776906e-06
4.87315852218e-08
2.13056113727e-06
4.81076305451e-08
2.08179237553e-06
4.87694263566e-08
5.20146949504e-08
2.02977853529e-06
3.43168505758e-06
1.00442192276e-07
3.42685293189e-06
9.15344914078e-08
3.42016956043e-06
8.65440983019e-08
3.41069790944e-06
8.60975362698e-08
3.39883184277e-06
8.51880407757e-08
3.38517665621e-06
8.36055911662e-08
3.37012997974e-06
8.17369597509e-08
3.35394919916e-06
7.97922272698e-08
3.33681302622e-06
7.78731098117e-08
3.31884507071e-06
7.6045932328e-08
3.30012076501e-06
7.43713458337e-08
3.28066597302e-06
7.29156149691e-08
3.26045064036e-06
7.17603697334e-08
3.23937262774e-06
7.10198868592e-08
3.21722255182e-06
7.0882517392e-08
3.19362092303e-06
7.17098655137e-08
3.16809914273e-06
7.42914899742e-08
7.90804730765e-08
3.14103412481e-06
3.68014082113e-06
8.28193420684e-08
3.68474176464e-06
8.69348169514e-08
3.68769269405e-06
8.35949033537e-08
3.68965396745e-06
8.41381129161e-08
3.69042129549e-06
8.44224459166e-08
3.69016667283e-06
8.38618755731e-08
3.68903014361e-06
8.28751116759e-08
3.68707855816e-06
8.17453391299e-08
3.68434028031e-06
8.06128874557e-08
3.68082214371e-06
7.95654676151e-08
3.6765131125e-06
7.86817519705e-08
3.67138133952e-06
7.80486675486e-08
3.66536820613e-06
7.77747416768e-08
3.65837909081e-06
7.80101657589e-08
3.65027553138e-06
7.89871558553e-08
3.64089892312e-06
8.10873997098e-08
3.6302408446e-06
8.49504155002e-08
9.05793113228e-08
3.61874332787e-06
3.93982697734e-06
6.83814068543e-08
3.94609258038e-06
8.06702078674e-08
3.94993024519e-06
7.97586867754e-08
3.95312772394e-06
8.09422420415e-08
3.95555646063e-06
8.19952662991e-08
3.95728815699e-06
8.21316935608e-08
3.9584348275e-06
8.17299223619e-08
3.95905084579e-06
8.11307286125e-08
3.95914792852e-06
8.05171653576e-08
3.95871380343e-06
8.00008709507e-08
3.95772026293e-06
7.96765119511e-08
3.95612472014e-06
7.96453429232e-08
3.95386963619e-06
8.00308897272e-08
3.95088286649e-06
8.09979277708e-08
3.94708814451e-06
8.27827832866e-08
3.94244862575e-06
8.57277216517e-08
3.93709369314e-06
9.03060621359e-08
9.65572420532e-08
3.93111673143e-06
4.21865973856e-06
5.68499095784e-08
4.22541064662e-06
7.39206535523e-08
4.22940484253e-06
7.57661702375e-08
4.23269887214e-06
7.76499566402e-08
4.23535425843e-06
7.93415329462e-08
4.23738170374e-06
8.01058341751e-08
4.23886774486e-06
8.02454178923e-08
4.23986879151e-06
8.01311466002e-08
4.2404024589e-06
7.99849203671e-08
4.24046207365e-06
7.99426111529e-08
4.24002620584e-06
8.01136928692e-08
4.23906285195e-06
8.06099511447e-08
4.23753252698e-06
8.15624258896e-08
4.23539450974e-06
8.3137114436e-08
4.23262472375e-06
8.55536892002e-08
4.22925702605e-06
8.9096452839e-08
4.22546175241e-06
9.41023974666e-08
1.00671909619e-07
4.22134846514e-06
4.51826968596e-06
4.76681066874e-08
4.52504493835e-06
6.71464695215e-08
4.52920740995e-06
7.1605091555e-08
4.53255408614e-06
7.43047797956e-08
4.5353209976e-06
7.65760879787e-08
4.53749011567e-06
7.79381513323e-08
4.53911377904e-06
7.86231476615e-08
4.54024263426e-06
7.90036383959e-08
4.54089857602e-06
7.93302721491e-08
4.54108163105e-06
7.97607996522e-08
4.54077906207e-06
8.04174465061e-08
4.53997131102e-06
8.14188316693e-08
4.5386377802e-06
8.28970384621e-08
4.53676661551e-06
8.50093298765e-08
4.5343747187e-06
8.79466017258e-08
4.53154294974e-06
9.19292320552e-08
4.52846767175e-06
9.71786549027e-08
1.03756266324e-07
4.52538433593e-06
4.84003399965e-06
4.03552655714e-08
4.84654285431e-06
6.06390563019e-08
4.85084913015e-06
6.73004493582e-08
4.85425648069e-06
7.08990867826e-08
4.85710934246e-06
7.37248067139e-08
4.8593953666e-06
7.56536489572e-08
4.86113843021e-06
7.68815459673e-08
4.86237985962e-06
7.77636210699e-08
4.86314411075e-06
7.85673803947e-08
4.86343766847e-06
7.9468559191e-08
4.86325668089e-06
8.05996997057e-08
4.86259418004e-06
8.20825622204e-08
4.861447891e-06
8.40445207121e-08
4.85983182349e-06
8.66265728629e-08
4.85779535953e-06
8.99842209984e-08
4.85545037048e-06
9.42753151894e-08
4.85300071948e-06
9.96293867527e-08
1.06049043749e-07
4.85070955417e-06
5.18542759639e-06
3.45095269324e-08
5.19149404989e-06
5.45737887901e-08
5.19588082244e-06
6.29150489783e-08
5.19935832018e-06
6.7423012232e-08
5.20229546093e-06
7.07890627824e-08
5.20470194103e-06
7.32485292606e-08
5.20658172003e-06
7.50030948417e-08
5.2079640581e-06
7.63825674056e-08
5.20887321135e-06
7.7659480626e-08
5.20932121767e-06
7.90217562863e-08
5.20931328908e-06
8.06088035225e-08
5.20885546325e-06
8.2541513592e-08
5.20796347333e-06
8.49376232312e-08
5.20667448297e-06
8.79166532429e-08
5.20506335264e-06
9.15964436799e-08
5.20326169631e-06
9.60780442964e-08
5.20147387926e-06
1.01418448478e-07
1.07561992505e-07
5.19996212935e-06
5.55604253139e-06
2.98057489798e-08
5.56158103449e-06
4.90367687933e-08
5.56597247887e-06
5.85251865628e-08
5.56952102398e-06
6.38760344062e-08
5.57254684795e-06
6.77647396641e-08
5.57508024016e-06
7.07165777319e-08
5.57711370447e-06
7.29710174102e-08
5.57866428982e-06
7.48333227496e-08
5.57975431532e-06
7.65707511708e-08
5.58040098865e-06
7.83763436062e-08
5.58061910753e-06
8.0391892886e-08
5.58042818423e-06
8.27336258025e-08
5.57986118357e-06
8.55057810867e-08
5.57897511002e-06
8.88038826507e-08
5.57786327538e-06
9.27094125697e-08
5.57666663743e-06
9.72757820103e-08
5.57557820193e-06
1.02508025723e-07
1.08317400139e-07
5.57482439978e-06
5.95360063835e-06
2.59822264697e-08
5.95859261406e-06
4.40460245105e-08
5.96291890178e-06
5.42002148855e-08
5.96653064982e-06
6.0265614981e-08
5.96965279072e-06
6.464389505e-08
5.97232410326e-06
6.8046534014e-08
5.97453195472e-06
7.07643961893e-08
5.97628314487e-06
7.30833416746e-08
5.97759724057e-06
7.52578285594e-08
5.9784959732e-06
7.74787354984e-08
5.97900347129e-06
7.98855187574e-08
5.979151969e-06
8.25862360533e-08
5.97898950532e-06
8.56693392207e-08
5.97858839194e-06
8.92060910517e-08
5.97805328554e-06
9.32455769815e-08
5.9775263118e-06
9.7803809008e-08
5.97718502475e-06
1.02850576115e-07
1.08278698142e-07
5.97722493777e-06
6.37996140249e-06
2.28344331519e-08
6.38443383696e-06
3.95751729816e-08
6.38864352918e-06
4.99921301706e-08
6.39230731045e-06
5.6603397534e-08
6.39553666444e-06
6.14160408165e-08
6.3983630389e-06
6.52215933464e-08
6.40077133813e-06
6.83574842094e-08
6.40276068556e-06
7.109532822e-08
6.40434762114e-06
7.36721733862e-08
6.40555740112e-06
7.62702099767e-08
6.40642234996e-06
7.9021793884e-08
6.4069857236e-06
8.20240593692e-08
6.40730754334e-06
8.53487186916e-08
6.40747049825e-06
8.9044297146e-08
6.40758417881e-06
9.313304385e-08
6.40778542595e-06
9.7603664391e-08
6.40823201773e-06
1.02405105184e-07
1.07428397972e-07
6.4090838297e-06
5.74310006681e-06
2.05700229901e-08
5.74651867176e-06
3.61580338166e-08
5.74996291837e-06
4.65493725618e-08
5.75309179629e-06
5.34759849658e-08
5.75591440556e-06
5.8594853487e-08
5.75844080341e-06
6.26965686194e-08
5.7606558891e-06
6.61437316256e-08
5.76255460184e-06
6.91979028998e-08
5.76414849293e-06
7.20795465921e-08
5.76546056566e-06
7.49593475611e-08
5.76652305078e-06
7.79604997318e-08
5.76737902019e-06
8.11694008123e-08
5.76808550881e-06
8.46434183592e-08
5.76871664557e-06
8.8414457327e-08
5.76936456267e-06
9.24862398622e-08
5.77013779658e-06
9.68316148552e-08
5.77115528078e-06
1.01388944136e-07
1.06049689651e-07
5.77253530786e-06
7.00039658374e-06
1.83303129994e-08
7.00394966239e-06
3.26063960652e-08
7.00775459699e-06
4.27458625809e-08
7.01136709626e-06
4.98648729543e-08
7.01471503103e-06
5.52482540456e-08
7.01778359507e-06
5.96292977885e-08
7.02055046911e-06
6.33781013433e-08
7.02300605982e-06
6.67435315635e-08
7.02516130499e-06
6.99254609537e-08
7.02704376886e-06
7.30780152482e-08
7.02869453281e-06
7.63110573097e-08
7.03016808316e-06
7.96970307309e-08
7.03153439935e-06
8.32784872709e-08
7.03287961641e-06
8.70703929053e-08
7.03430576013e-06
9.10614556808e-08
7.03592619626e-06
9.52123059462e-08
7.03785905986e-06
9.9457573029e-08
1.03696285017e-07
7.04021360269e-06
8.53305312691e-06
1.61255043218e-08
8.53671463258e-06
2.89462815965e-08
8.54087990046e-06
3.85819951008e-08
8.54503400542e-06
4.57121323619e-08
8.5490160054e-06
5.12675830788e-08
8.55277210565e-06
5.58744780071e-08
8.55626700434e-06
5.98844613308e-08
8.55948475405e-06
6.35269793319e-08
8.56243439718e-06
6.6977001844e-08
8.56514695116e-06
7.03667537232e-08
8.56767113633e-06
7.37881204422e-08
8.57007185737e-06
7.72976953642e-08
8.5724293265e-06
8.09222848491e-08
8.57483846278e-06
8.46626397386e-08
8.57740532035e-06
8.84957647905e-08
8.58024251458e-06
9.23765530802e-08
8.58346027657e-06
9.62409092465e-08
1.00001199985e-07
8.58715702523e-06
1.04014107194e-05
1.39351280091e-08
1.0405197381e-05
2.51610444294e-08
1.04097545943e-05
3.4026167489e-08
1.04145373504e-05
4.09307558699e-08
1.04193032867e-05
4.65029853819e-08
1.04239489161e-05
5.12301818195e-08
1.0428418134e-05
5.54165153814e-08
1.04326853674e-05
5.92610482171e-08
1.04367553193e-05
6.29083235702e-08
1.04406595358e-05
6.64639013598e-08
1.04444511468e-05
6.99978373877e-08
1.04482010617e-05
7.35492261597e-08
1.04519945547e-05
7.71300086551e-08
1.04559284178e-05
8.07301656962e-08
1.04601054835e-05
8.43198251999e-08
1.04646293268e-05
8.78540391792e-08
1.04695961426e-05
9.12752576509e-08
9.45121153e-08
1.04750861681e-05
1.26790348709e-05
1.16915920826e-08
1.26830400522e-05
2.11572815792e-08
1.26881015888e-05
2.89660647069e-08
1.26936768716e-05
3.53568578529e-08
1.26994597214e-05
4.0721518946e-08
1.27052926278e-05
4.5398606413e-08
1.27110904937e-05
4.96200262173e-08
1.2716812362e-05
5.35404701776e-08
1.27224541001e-05
5.72680071503e-08
1.27280421663e-05
6.08771287939e-08
1.27336276934e-05
6.44138371427e-08
1.27392792901e-05
6.78987474103e-08
1.27450791775e-05
7.13316390403e-08
1.27511156111e-05
7.46946580585e-08
1.27574798649e-05
7.79571002441e-08
1.27642566229e-05
8.10779564189e-08
1.2771522232e-05
8.40112370751e-08
8.67024261172e-08
1.27793322056e-05
1.54556150058e-05
9.25801678581e-09
1.54600558654e-05
1.67179195655e-08
1.54658826295e-05
2.3140729094e-08
1.54725632738e-05
2.86776127081e-08
1.54797434701e-05
3.35426880297e-08
1.54872129516e-05
3.7930490038e-08
1.54948504773e-05
4.19838339301e-08
1.55025922315e-05
4.58000855246e-08
1.55104172415e-05
4.94443292309e-08
1.55183385756e-05
5.29572093645e-08
1.55263944551e-05
5.63592268328e-08
1.55346409902e-05
5.9653607149e-08
1.55431440223e-05
6.2829761852e-08
1.55519737345e-05
6.58663253183e-08
1.55611970954e-05
6.87347425339e-08
1.55708742785e-05
7.14021062533e-08
1.55810516867e-05
7.38345799489e-08
7.59953813192e-08
1.55917599928e-05
1.88405060566e-05
6.39085387934e-09
1.88457984974e-05
1.14269497213e-08
1.88529009391e-05
1.60396939711e-08
1.88612581214e-05
2.03218304034e-08
1.88704640644e-05
2.43380856511e-08
1.88802549159e-05
2.81410155884e-08
1.88904671118e-05
3.17729462643e-08
1.89010047812e-05
3.52637990465e-08
1.89118200868e-05
3.86303091688e-08
1.8922901593e-05
4.1877115542e-08
1.89342631252e-05
4.49989472369e-08
1.8945935598e-05
4.79825731644e-08
1.89579575882e-05
5.0808968041e-08
1.89703702113e-05
5.34551805825e-08
1.8983209619e-05
5.58964642091e-08
1.89965051897e-05
5.81080674428e-08
1.9010273553e-05
6.00671935519e-08
6.17512627596e-08
1.90245192721e-05
2.2967114667e-05
2.6149772529e-09
2.29740542191e-05
4.48892159426e-09
2.29833929257e-05
6.70257214812e-09
2.29944482321e-05
9.26800180103e-09
2.30067251421e-05
1.20626891946e-08
2.3019897317e-05
1.49703081443e-08
2.30337524519e-05
1.79192924003e-08
2.30481524826e-05
2.08652493054e-08
2.30630120119e-05
2.37722354925e-08
2.30782838982e-05
2.66067233398e-08
2.3093947239e-05
2.93370322649e-08
2.3109997021e-05
3.19342975139e-08
2.31264354639e-05
3.43719124897e-08
2.31432659794e-05
3.66261933819e-08
2.31604878407e-05
3.86759113005e-08
2.31780939419e-05
4.05035209948e-08
2.31960673473e-05
4.2094954076e-08
4.34388971838e-08
2.32143811728e-05
1.68140192619e-05
-6.98140439073e-10
1.68199702868e-05
-1.46076441134e-09
1.68277966426e-05
-1.1226212514e-09
1.68368870268e-05
1.78882511426e-10
1.68468630093e-05
2.08792063078e-09
1.68574980476e-05
4.33648178328e-09
1.68686417243e-05
6.77688522881e-09
1.68801888015e-05
9.31930289407e-09
1.68920687474e-05
1.18936107641e-08
1.69042361995e-05
1.4440339056e-08
1.691666302e-05
1.69115938159e-08
1.69293292097e-05
1.92691438163e-08
1.69422198963e-05
2.14826870535e-08
1.69553193926e-05
2.35277674549e-08
1.69686117664e-05
2.53850938965e-08
1.69820764923e-05
2.70400196365e-08
1.6995690361e-05
2.84826896005e-08
2.97063468661e-08
1.70094244249e-05
1.46381087876e-05
-4.23700872494e-09
1.46443120376e-05
-7.66289187754e-09
1.46521668328e-05
-8.97611587649e-09
1.4661006951e-05
-8.66010866978e-09
1.46705202776e-05
-7.42426429573e-09
1.46805440936e-05
-5.68627707055e-09
1.46909620372e-05
-3.6400447585e-09
1.47016884252e-05
-1.40593402474e-09
1.47126657187e-05
9.17226430698e-10
1.47238570948e-05
3.25017219377e-09
1.4735236203e-05
5.53337289005e-09
1.47467829852e-05
7.72364472159e-09
1.47584777659e-05
9.78881414677e-09
1.47703022824e-05
1.17046390885e-08
1.47822362631e-05
1.34521562748e-08
1.4794260044e-05
1.50177357646e-08
1.48063520148e-05
1.63919933957e-08
1.75687979869e-08
1.48184911156e-05
1.27441039265e-05
-8.20782180299e-09
1.27507629972e-05
-1.43206943877e-08
1.27587056693e-05
-1.69177408268e-08
1.27672667344e-05
-1.72199852796e-08
1.27762668668e-05
-1.64233669558e-08
1.27856212837e-05
-1.50395501536e-08
1.27952462574e-05
-1.32640119282e-08
1.28050773953e-05
-1.12361796239e-08
1.28150746338e-05
-9.07902768924e-09
1.28252123387e-05
-6.88670972034e-09
1.28354712694e-05
-4.72460114775e-09
1.28458333404e-05
-2.63750220997e-09
1.2856280319e-05
-6.57177472253e-10
1.28667932494e-05
1.19278062779e-09
1.28773516379e-05
2.89485305239e-09
1.28879339955e-05
4.43659532078e-09
1.28985169664e-05
5.81023593411e-09
7.01245003577e-09
1.29090745648e-05
1.10956046864e-05
-1.28821585267e-08
1.11028914515e-05
-2.16062797495e-08
1.11108839969e-05
-2.49089662874e-08
1.11190836766e-05
-2.54184857892e-08
1.11275146561e-05
-2.48531391342e-08
1.11361592317e-05
-2.36831930378e-08
1.11449594299e-05
-2.20631400585e-08
1.11538765752e-05
-2.01523158478e-08
1.11628934592e-05
-1.80950390792e-08
1.1172000143e-05
-1.59924586604e-08
1.11811855045e-05
-1.39090391064e-08
1.11904351401e-05
-1.18863459239e-08
1.11997322573e-05
-9.95331978843e-09
1.12090574153e-05
-8.13160706759e-09
1.12183917453e-05
-6.43829117577e-09
1.12277177081e-05
-4.88846089465e-09
1.12370248083e-05
-3.49561279791e-09
-2.27287040252e-09
1.12463111499e-05
9.66097498741e-06
-1.86414263422e-08
9.66899427126e-06
-2.96243227584e-08
9.67690035189e-06
-3.28139161197e-08
9.68464098038e-06
-3.3157850269e-08
9.69246112572e-06
-3.26721537091e-08
9.70036973484e-06
-3.15905081608e-08
9.70832625909e-06
-3.00185539873e-08
9.71632016121e-06
-2.81451993e-08
9.72435631066e-06
-2.61301670396e-08
9.73243789067e-06
-2.40731709718e-08
9.74056191671e-06
-2.2032139297e-08
9.74871939888e-06
-2.00429678539e-08
9.75689682722e-06
-1.81298680363e-08
9.76507688489e-06
-1.63107119537e-08
9.77323926836e-06
-1.45997882082e-08
9.78136168876e-06
-1.30098668277e-08
9.78942054764e-06
-1.1553470358e-08
-1.02432359274e-08
9.79739191818e-06
8.41272013203e-06
-2.60077752769e-08
8.42142696451e-06
-3.83298403737e-08
8.42903116286e-06
-4.04167493675e-08
8.43624385927e-06
-4.03692904523e-08
8.44345116062e-06
-3.98781808936e-08
8.45064815714e-06
-3.87864857797e-08
8.45781902669e-06
-3.71881796359e-08
8.46498109432e-06
-3.53061124387e-08
8.47215290079e-06
-3.33009490413e-08
8.47934263751e-06
-3.12618342742e-08
8.48654940783e-06
-2.92379539349e-08
8.49376632746e-06
-2.72589085795e-08
8.50098183272e-06
-2.53445678954e-08
8.50818049487e-06
-2.35084305143e-08
8.51534298739e-06
-2.17613369139e-08
8.52244879142e-06
-2.01147054263e-08
8.52948372738e-06
-1.85875490758e-08
-1.72152652304e-08
8.53645670436e-06
7.32692768431e-06
-3.56498954842e-08
7.33603020712e-06
-4.74310751845e-08
7.34309878624e-06
-4.74841619241e-08
7.34972797605e-06
-4.69970903373e-08
7.35626127643e-06
-4.64102492614e-08
7.36268133758e-06
-4.52052583496e-08
7.36902327836e-06
-4.35289107158e-08
7.37533706251e-06
-4.16187496186e-08
7.38165257805e-06
-3.96153854129e-08
7.38798075268e-06
-3.75890876513e-08
7.39432149644e-06
-3.55776356414e-08
7.40066815674e-06
-3.36046590522e-08
7.40700966297e-06
-3.16850643114e-08
7.41333019517e-06
-2.98280071609e-08
7.41960731472e-06
-2.80375112777e-08
7.42580926324e-06
-2.63157508187e-08
7.43189489872e-06
-2.46724001693e-08
-2.31459603535e-08
7.4378263738e-06
6.38281800217e-06
-4.84006983984e-08
6.39172243007e-06
-5.63342746154e-08
6.39821973334e-06
-5.39802310227e-08
6.40439860757e-06
-5.31748427048e-08
6.41035003088e-06
-5.23603698892e-08
6.41607731329e-06
-5.09315381139e-08
6.42167182736e-06
-4.91222385408e-08
6.42720600682e-06
-4.7151821317e-08
6.43271766058e-06
-4.51260584171e-08
6.43822281669e-06
-4.30932363724e-08
6.44372589113e-06
-4.10798848727e-08
6.44922479042e-06
-3.9102529575e-08
6.45471244309e-06
-3.71718739503e-08
6.46017735083e-06
-3.52919817428e-08
6.46559976482e-06
-3.34590320943e-08
6.47094455944e-06
-3.16597527433e-08
6.4761530551e-06
-2.98801136808e-08
-2.81372620871e-08
6.48114490709e-06
5.56200443484e-06
-6.49393077291e-08
5.56942154557e-06
-6.37500710743e-08
5.57506595406e-06
-5.96235123953e-08
5.58045769588e-06
-5.85651020631e-08
5.58542768252e-06
-5.7328830869e-08
5.59005926838e-06
-5.5561915479e-08
5.59447589879e-06
-5.35376280298e-08
5.59874998705e-06
-5.14247514481e-08
5.60291932947e-06
-4.92943372432e-08
5.60700519947e-06
-4.71782962848e-08
5.61102100411e-06
-4.5094609497e-08
5.61497486709e-06
-4.30553032933e-08
5.61887144196e-06
-4.10674418909e-08
5.6227122288e-06
-3.91318130633e-08
5.62649211639e-06
-3.72380148231e-08
5.63018530566e-06
-3.53521052411e-08
5.63370139115e-06
-3.33956475553e-08
-3.11528249234e-08
5.6367177537e-06
4.84600499021e-06
-8.33355796941e-08
4.84756749987e-06
-6.5311143405e-08
4.84809754431e-06
-6.01521730464e-08
4.84733374969e-06
-5.77995766558e-08
4.84535521929e-06
-5.53485494e-08
4.84254071881e-06
-5.27459941054e-08
4.83915574832e-06
-5.01512362352e-08
4.83536776853e-06
-4.76354314585e-08
4.83129517562e-06
-4.52205811132e-08
4.82703009571e-06
-4.29121308414e-08
4.82264725159e-06
-4.07104723958e-08
4.81820745509e-06
-3.86141891914e-08
4.81376093739e-06
-3.66197342523e-08
4.80935093847e-06
-3.47206882149e-08
4.80501846137e-06
-3.29044765334e-08
4.80080475898e-06
-3.11375280113e-08
4.79674187072e-06
-2.9331889378e-08
-2.66894000992e-08
4.79227922969e-06
4.11934076203e-06
4.05402972841e-06
3.99387770691e-06
3.93607830212e-06
3.88072989948e-06
3.82798406543e-06
3.7778329931e-06
3.73019771832e-06
3.68497728575e-06
3.64206534918e-06
3.60135509629e-06
3.56274111849e-06
3.52612159855e-06
3.49140112851e-06
3.4584968537e-06
3.42735952093e-06
3.39802783401e-06
3.37133868558e-06
5.09557675477e-08
-5.09359402229e-08
6.91563187068e-08
-1.81819407877e-08
5.2491118392e-08
1.6685392309e-08
-1.93385956955e-09
5.44426597308e-08
-9.59128628918e-08
9.39919758962e-08
-2.06554759571e-07
1.10650205018e-07
-3.28535294763e-07
1.21987599768e-07
-4.59456069265e-07
1.30926538496e-07
-5.97603659163e-07
1.38152944221e-07
-7.41608474611e-07
1.44009839819e-07
-8.90344940081e-07
1.48741118024e-07
-1.04287718696e-06
1.52536958048e-07
-1.19842414024e-06
1.55551118575e-07
-1.35633055388e-06
1.57910935907e-07
-1.51604983626e-06
1.59723018583e-07
-1.67712286621e-06
1.61077384243e-07
-1.83916932608e-06
1.62049711472e-07
-2.00186880932e-06
1.62703663483e-07
-2.16495779273e-06
1.63091954975e-07
-2.32821218038e-06
1.63258324657e-07
-2.49144790188e-06
1.63238376907e-07
-2.6545056795e-06
1.63061560846e-07
-2.81725520576e-06
1.62752049747e-07
-2.97958242497e-06
1.62330912296e-07
-3.14139658413e-06
1.61816787387e-07
-3.30262089024e-06
1.61227925447e-07
-3.46320082582e-06
1.6058257802e-07
-3.62309766667e-06
1.5990044815e-07
-3.7822971795e-06
1.59202325607e-07
-3.94080421597e-06
1.58510671198e-07
-4.09864965199e-06
1.57848310802e-07
-4.25588398661e-06
1.57238018044e-07
-4.41258112791e-06
1.56700182797e-07
-4.56882895675e-06
1.56251586756e-07
-4.72472835248e-06
1.55902520341e-07
-4.88037974498e-06
1.55655287314e-07
-5.03587777046e-06
1.55501340944e-07
-5.19129399252e-06
1.55420331359e-07
-5.3466685211e-06
1.55378050858e-07
-5.5019909932e-06
1.55326775241e-07
-5.65719205316e-06
1.55204704785e-07
-5.81212568856e-06
1.54938055537e-07
-5.96656421557e-06
1.54442190313e-07
-6.12018502817e-06
1.5362529321e-07
-6.27257221954e-06
1.52390767985e-07
-6.42321012157e-06
1.50642463547e-07
-6.57149450343e-06
1.48288045858e-07
-6.71673418461e-06
1.45244520752e-07
-6.85817094456e-06
1.41440642942e-07
-6.99498780232e-06
1.36822307033e-07
-7.1263375064e-06
1.31354287091e-07
-7.25135475476e-06
1.25023693836e-07
-7.36918922661e-06
1.17839999019e-07
-7.47901846517e-06
1.09836667097e-07
-7.58008018698e-06
1.01067899044e-07
-7.67167918066e-06
9.16073764305e-08
-7.75321551202e-06
8.15433772401e-08
-7.82418363097e-06
7.09773552483e-08
-7.88419188699e-06
6.00155982229e-08
-7.93294767663e-06
4.87657806054e-08
-7.97026382403e-06
3.73240822922e-08
-7.99602013414e-06
2.57667481075e-08
-8.01014806857e-06
1.41355965753e-08
-8.01256224281e-06
2.42490759028e-09
-8.00322808406e-06
-9.32651190684e-09
-7.98223451701e-06
-2.09824217002e-08
-7.94976017923e-06
-3.24668054925e-08
-7.90595517319e-06
-4.37939429717e-08
-7.85091743343e-06
-5.50311825372e-08
-7.78462620288e-06
-6.62810968196e-08
-7.70694169573e-06
-7.76793041074e-08
-7.61755206733e-06
-8.93801383969e-08
-7.51599477603e-06
-1.0155318666e-07
-7.40162401269e-06
-1.14360627917e-07
-7.27367331609e-06
-1.27945532388e-07
-7.13126233827e-06
-1.42398268845e-07
-6.97351449071e-06
-1.57740245099e-07
-6.79961205028e-06
-1.73888148637e-07
-6.60895654699e-06
-1.90648950639e-07
-6.40123277904e-06
-2.07708852906e-07
-6.17656561582e-06
-2.24660062757e-07
-5.93553816879e-06
-2.41012395046e-07
-5.67928329718e-06
-2.56250010451e-07
-5.40940295872e-06
-2.69864402892e-07
-5.12798157548e-06
-2.81415310942e-07
-4.83742149528e-06
-2.90546039189e-07
-4.54038850272e-06
-2.97034626334e-07
-4.23961347177e-06
-3.00782522559e-07
-3.93780970076e-06
-3.01831584847e-07
-3.63751051814e-06
-3.00355565502e-07
-3.34095109912e-06
-2.96615762881e-07
-3.05007635959e-06
-2.909320881e-07
-2.76647476319e-06
-2.83654174832e-07
-2.49135677931e-06
-2.75174573419e-07
-2.22556185852e-06
-2.65846430896e-07
-1.96962259811e-06
-2.55992067632e-07
-1.72408457845e-06
-2.45579498891e-07
-1.48918881528e-06
-2.34930595495e-07
-1.26539455946e-06
-2.23809709568e-07
-1.05247035337e-06
-2.12918501751e-07
-8.52871766732e-07
-1.99561658926e-07
-6.65975769211e-07
-1.8680467245e-07
-4.93167584618e-07
-1.72653888818e-07
-3.38963678068e-07
-1.53949141016e-07
-1.80633378657e-07
-1.57970115567e-07
-6.51404151324e-09
-1.73664126284e-07
1.70449438419e-07
-1.76594740687e-07
3.27927707292e-07
-1.57208913873e-07
4.62514316438e-07
-1.34400020884e-07
5.79331916021e-07
-1.16649616892e-07
6.81827068686e-07
-1.02385048478e-07
7.72238367537e-07
-9.030493019e-08
8.52053521267e-07
-7.97571292833e-08
9.22440616177e-07
-7.03259027739e-08
9.84257360051e-07
-6.1796108721e-08
1.03827174995e-06
-5.39849417916e-08
1.08507504353e-06
-4.68075442822e-08
1.1252380287e-06
-4.01634111526e-08
1.15922308054e-06
-3.40125572454e-08
1.18750652306e-06
-2.82876807549e-08
1.21047867087e-06
-2.29624283924e-08
1.22852757027e-06
-1.79898179786e-08
1.24195809474e-06
-1.33679517349e-08
1.25112258141e-06
-9.08366723138e-09
1.25638004636e-06
-5.20939728243e-09
1.25833244643e-06
-1.90338907196e-09
1.25750845941e-06
8.37524635534e-10
1.25418700827e-06
3.33920372869e-09
1.24845732122e-06
5.71793917659e-09
1.24047183228e-06
7.98155836305e-09
1.23033516482e-06
1.01076011725e-08
1.21820245695e-06
1.21128414711e-08
1.20417731201e-06
1.39824452532e-08
1.18840690041e-06
1.57357165676e-08
1.17098844653e-06
1.73611321083e-08
1.15205956512e-06
1.88759436081e-08
1.13171410878e-06
2.02682978178e-08
1.11008067835e-06
2.15506209162e-08
1.08725947346e-06
2.27100154291e-08
1.06338995831e-06
2.37529225809e-08
1.03860023102e-06
2.46704476593e-08
1.01303524716e-06
2.54629453522e-08
9.86829866219e-07
2.61196075454e-08
9.60131954165e-07
2.66305265589e-08
9.3309350627e-07
2.69811170406e-08
9.05892379201e-07
2.71557967279e-08
8.78723534533e-07
2.71287225071e-08
8.51815483359e-07
2.68762735782e-08
8.25446209762e-07
2.63393103967e-08
7.99916665618e-07
2.55052312336e-08
7.75604621365e-07
2.42869396304e-08
7.52953884511e-07
2.26297625904e-08
7.32477598527e-07
2.04532266549e-08
7.14965623486e-07
1.74929023307e-08
7.01354806298e-07
1.35895356937e-08
6.92642774272e-07
8.69539699292e-09
6.88991305463e-07
3.63296780045e-09
6.89624457401e-07
-6.46415434367e-10
6.93730883403e-07
-4.12142943337e-09
7.00615130259e-07
-6.89381639075e-09
7.09678588928e-07
-9.07487821724e-09
7.2042695099e-07
-1.07544019885e-08
7.32423522777e-07
-1.20046563559e-08
7.45294478317e-07
-1.2873774843e-08
7.58685476199e-07
-1.33960030671e-08
7.72271658569e-07
-1.35860289317e-08
7.85718481517e-07
-1.34489771151e-08
7.98696662745e-07
-1.29753826345e-08
8.10847710318e-07
-1.21507962557e-08
8.21806291211e-07
-1.0953786384e-08
8.31181712738e-07
-9.37361710185e-09
8.38608529758e-07
-7.42116008103e-09
8.43776027387e-07
-5.16540247476e-09
8.46574919768e-07
-2.79350713278e-09
8.47372845339e-07
-7.96500353243e-10
8.46463266004e-07
9.13826859753e-10
8.43409588725e-07
3.05387567394e-09
8.37077714631e-07
6.33679308161e-09
8.24506705741e-07
1.25772450521e-08
5.47032756361e-09
8.19051757794e-07
-3.93376554724e-08
-1.15800587949e-08
-1.22917550099e-07
6.54097847099e-08
-2.27328679744e-07
1.21103982879e-07
-3.34620767399e-07
1.61739976874e-07
-4.38972157053e-07
1.98348021109e-07
-5.54413781022e-07
2.26095815437e-07
-6.79684285394e-07
2.47261955893e-07
-8.1267854598e-07
2.63924423223e-07
-9.51738795082e-07
2.77216806346e-07
-1.09557256411e-06
2.8784713234e-07
-1.24314084875e-06
2.96312855013e-07
-1.39359189385e-06
3.02991553725e-07
-1.54622227348e-06
3.08184834232e-07
-1.70044923616e-06
3.12141459445e-07
-1.85579315505e-06
3.15070115126e-07
-2.01185930374e-06
3.17147045111e-07
-2.16832738579e-06
3.18520760707e-07
-2.32493595355e-06
3.19315594845e-07
-2.4814756862e-06
3.19634435366e-07
-2.63777556474e-06
3.19561493041e-07
-2.79369953989e-06
3.1916491021e-07
-2.94913476729e-06
3.18499876866e-07
-3.10399161084e-06
3.17611435493e-07
-3.25819536576e-06
3.16537763784e-07
-3.41168906209e-06
3.15313053517e-07
-3.56442843274e-06
3.1397039448e-07
-3.71638697008e-06
3.12543826233e-07
-3.86755341967e-06
3.11070117783e-07
-4.01793745225e-06
3.09589248031e-07
-4.16756776298e-06
3.08144284661e-07
-4.31649617917e-06
3.06779770317e-07
-4.46479421832e-06
3.05539485857e-07
-4.61255367628e-06
3.0446283101e-07
-4.75987944812e-06
3.0358090334e-07
-4.90688533492e-06
3.02911734557e-07
-5.05368232539e-06
3.02455986869e-07
-5.20036990262e-06
3.02192456103e-07
-5.34702057827e-06
3.02074924539e-07
-5.49366837077e-06
3.0202958187e-07
-5.64029206473e-06
3.01954568448e-07
-5.78680409759e-06
3.01720605005e-07
-5.93303590473e-06
3.01174058928e-07
-6.07873081702e-06
3.00141007793e-07
-6.22353461555e-06
2.9843331969e-07
-6.36699527159e-06
2.95855299338e-07
-6.50856110227e-06
2.92212533263e-07
-6.64758963433e-06
2.87320517988e-07
-6.78335423293e-06
2.81013590426e-07
-6.91506091457e-06
2.73151533253e-07
-7.04186136083e-06
2.63627640576e-07
-7.16287687812e-06
2.52374673094e-07
-7.27721690506e-06
2.39369553316e-07
-7.38400757512e-06
2.24636399759e-07
-7.48241208607e-06
2.08247759378e-07
-7.57165840213e-06
1.90320807144e-07
-7.65105530744e-06
1.71011935293e-07
-7.72001466365e-06
1.50510197774e-07
-7.77805740972e-06
1.29028483428e-07
-7.82482207592e-06
1.06788496432e-07
-7.86005563402e-06
8.40086223022e-08
-7.88361151267e-06
6.08888767677e-08
-7.89543050596e-06
3.75955201916e-08
-7.89554342384e-06
1.42577124327e-08
-7.88411058731e-06
-8.99776685675e-09
-7.86147837228e-06
-3.19492083892e-08
-7.82801530691e-06
-5.44350804756e-08
-7.7839523314e-06
-7.65202898665e-08
-7.72942297878e-06
-9.83132584577e-08
-7.66445771036e-06
-1.19987887156e-07
-7.58895186734e-06
-1.41778124173e-07
-7.50265391698e-06
-1.6397014153e-07
-7.40513980749e-06
-1.8688646581e-07
-7.29581824164e-06
-2.10868267006e-07
-7.17392772863e-06
-2.36243502415e-07
-7.03857860169e-06
-2.63287243997e-07
-6.88879684694e-06
-2.92169984073e-07
-6.72362031632e-06
-3.22907718267e-07
-6.54219176016e-06
-3.55306296438e-07
-6.34390050751e-06
-3.88930979269e-07
-6.12849010205e-06
-4.23108020939e-07
-5.89617203347e-06
-4.5696883488e-07
-5.64766825748e-06
-4.89505435274e-07
-5.38424408333e-06
-5.19665034555e-07
-5.10764885978e-06
-5.46447607981e-07
-4.8200516474e-06
-5.69002035276e-07
-4.5238964253e-06
-5.86690920349e-07
-4.22178545563e-06
-5.99142173619e-07
-3.91633494233e-06
-6.06237650147e-07
-3.61008934182e-06
-6.08110488167e-07