/*--------------------------------*- C++ -*----------------------------------*\
| =========                 |                                                 |
| \\      /  F ield         | OpenFOAM: The Open Source CFD Toolbox           |
|  \\    /   O peration     | Version:  v1806                                 |
|   \\  /    A nd           | Web:      www.OpenFOAM.com                      |
|    \\/     M anipulation  |                                                 |
\*---------------------------------------------------------------------------*/
FoamFile
{
    version     2.0;
    format      ascii;
    class       surfaceScalarField;
    location    "9";
    object      phia;
}
// * * * * * * * * * * * * * * * * * * * * * * * * * * * * * * * * * * * * * //

dimensions      [0 3 -1 0 0 0 0];
oriented        oriented;


internalField   nonuniform List<scalar> 
24170
(
1.83401714507e-07
1.35476921264e-07
2.29334265857e-07
-4.52766739587e-08
1.68387975555e-07
5.96984875733e-08
1.94004005026e-07
-2.65964051317e-08
1.94247676672e-07
-1.74803911522e-09
2.02854646193e-07
-8.95648519676e-09
2.1165594322e-07
-9.89202455598e-09
2.24331014555e-07
-1.24868036513e-08
2.401283249e-07
-1.61122976046e-08
2.59905657588e-07
-1.90201474116e-08
2.82249879085e-07
-2.2011742425e-08
3.10022858888e-07
-2.68308721031e-08
3.42450331736e-07
-3.17551275254e-08
3.80739375722e-07
-3.74645754814e-08
4.21639436636e-07
-4.02655527091e-08
4.57293257315e-07
-3.50727559762e-08
5.14747212932e-07
-5.69720601318e-08
-4.79013330042e-07
9.93995674404e-07
5.6605899184e-07
-8.13124317788e-08
1.8885975137e-07
3.37087632596e-07
2.54811152613e-07
-4.13477244212e-09
2.52419564757e-07
-2.26957963043e-08
2.66572413551e-07
-1.51726681072e-08
2.84166402105e-07
-2.52423959595e-08
3.0461779264e-07
-2.9554804601e-08
3.28223029448e-07
-3.45608614037e-08
3.53923577717e-07
-4.04386562662e-08
3.83214533156e-07
-4.62194626413e-08
4.15711545275e-07
-5.24406181084e-08
4.51760958975e-07
-6.0372604654e-08
4.91302338457e-07
-6.88826483174e-08
5.33364984335e-07
-7.7174879778e-08
5.74956731457e-07
-7.98571511241e-08
6.17856397436e-07
-7.6352489706e-08
7.09459554492e-07
-1.47343249573e-07
-5.8535343386e-07
8.16733162594e-07
-1.93201636895e-07
4.76204011578e-07
3.1731497228e-07
-1.75302259276e-07
2.73352599233e-07
3.74367584484e-08
2.56379278416e-07
-7.46946334163e-09
2.60058576411e-07
-2.0686412493e-08
2.61768206601e-07
-2.79059771301e-08
2.65893966165e-07
-3.49608573971e-08
2.72430427934e-07
-4.15577905396e-08
2.81490086302e-07
-5.01308401523e-08
2.93976472103e-07
-5.87642465715e-08
3.10123144348e-07
-6.88117006235e-08
3.31027523688e-07
-8.12330655843e-08
3.56834892273e-07
-9.47285537507e-08
3.86825066669e-07
-1.07115202976e-07
4.21756051516e-07
-1.14765270835e-07
4.76333696178e-07
-1.30868862058e-07
5.8028054756e-07
-2.5119967837e-07
-6.08785935147e-07
6.03691202912e-07
6.39965702814e-07
2.3372944572e-07
3.1616214046e-07
1.51397068794e-07
3.18745791615e-07
3.61340956922e-08
3.21045120694e-07
-8.83015807042e-09
3.22395778121e-07
-2.15959109455e-08
3.28387223549e-07
-3.31907359222e-08
3.36439843976e-07
-4.25600508474e-08
3.46836135965e-07
-5.10998530153e-08
3.58359937367e-07
-6.07648846148e-08
3.71266343577e-07
-7.041683114e-08
3.85363047514e-07
-8.15914364956e-08
4.00815568342e-07
-9.51929699905e-08
4.17398805334e-07
-1.09871081121e-07
4.35089340413e-07
-1.23452778806e-07
4.58339693569e-07
-1.3685937213e-07
5.03060190327e-07
-1.74640242019e-07
5.6630772941e-07
-3.13679394735e-07
-5.74097364027e-07
5.32337198311e-07
2.33734364901e-07
4.1758495735e-07
3.60388302771e-07
2.1925476512e-08
3.44569013488e-07
4.90533436012e-08
3.42445281916e-07
-8.78388059482e-09
3.43829417919e-07
-2.49556895918e-08
3.48379572189e-07
-3.89869958142e-08
3.55152527981e-07
-5.06579652317e-08
3.64452109515e-07
-6.11466058903e-08
3.75568371742e-07
-7.26146304521e-08
3.88907825344e-07
-8.41478348839e-08
4.042590584e-07
-9.73530177398e-08
4.21297681862e-07
-1.12498582433e-07
4.39537393087e-07
-1.28370115546e-07
4.59656447169e-07
-1.43755715511e-07
4.86830374726e-07
-1.64179733969e-07
5.28969150644e-07
-2.16838344993e-07
5.62799937505e-07
-3.47485664588e-07
-5.26725401504e-07
5.1531399213e-07
4.27271757026e-07
4.43022569987e-07
3.9924114562e-07
5.05554940412e-08
3.9957795424e-07
4.87880387713e-08
3.95450951992e-07
-4.6206092738e-09
3.94944418263e-07
-2.44695513656e-08
3.96943837752e-07
-4.09393037218e-08
4.01198231156e-07
-5.48216441937e-08
4.0782259771e-07
-6.75330747747e-08
4.16373129423e-07
-8.07644915727e-08
4.27091221108e-07
-9.43575127665e-08
4.39762946642e-07
-1.0941750606e-07
4.53967727461e-07
-1.26079590235e-07
4.69548619667e-07
-1.43341331394e-07
4.88124793028e-07
-1.61798920965e-07
5.1410602692e-07
-1.89691084407e-07
5.47161517895e-07
-2.49503186043e-07
5.60131878221e-07
-3.60098982606e-07
-4.82150037782e-07
5.1612089853e-07
4.4403601808e-07
4.78846740404e-07
4.4418667704e-07
4.69756453596e-08
4.44766569759e-07
4.51712530244e-08
4.41403262609e-07
-3.65059790712e-09
4.4058297083e-07
-2.55924000293e-08
4.41993198753e-07
-4.38667246586e-08
4.45452681247e-07
-5.95367453002e-08
4.51032319521e-07
-7.40839995425e-08
4.58380424217e-07
-8.88752421253e-08
4.6756757723e-07
-1.04172225549e-07
4.7831610291e-07
-1.20682435616e-07
4.90292119255e-07
-1.38492439717e-07
5.0371930295e-07
-1.57139097011e-07
5.20395879417e-07
-1.78782909795e-07
5.42474927992e-07
-2.12004115413e-07
5.64336934988e-07
-2.71483621145e-07
5.63970025459e-07
-3.59633894188e-07
-4.44485096984e-07
5.25820367163e-07
4.96306782202e-07
4.99806978756e-07
4.91004935204e-07
5.10358259105e-08
4.93670534404e-07
4.13544619995e-08
4.90497019691e-07
-1.26305351973e-09
4.89391573804e-07
-2.51466931408e-08
4.90089981624e-07
-4.49713835045e-08
4.926490396e-07
-6.245918949e-08
4.97109864447e-07
-7.8687964825e-08
5.03164902024e-07
-9.50462904713e-08
5.10784243181e-07
-1.11762541932e-07
5.19638446166e-07
-1.29506266006e-07
5.29536835112e-07
-1.48317387576e-07
5.40906437504e-07
-1.68466682517e-07
5.55024563883e-07
-1.92859627804e-07
5.71637889767e-07
-2.28595000908e-07
5.83295441753e-07
-2.83054826858e-07
5.75002904996e-07
-3.5148049715e-07
-4.11265554555e-07
5.42009657414e-07
5.47244261139e-07
5.03757367368e-07
5.41160726775e-07
5.35719564782e-08
5.4438738469e-07
3.50083779103e-08
5.41691711563e-07
-1.03775518077e-09
5.40562707779e-07
-2.60044576268e-08
5.40774635711e-07
-4.67540104977e-08
5.42603857989e-07
-6.55640831568e-08
5.46014668123e-07
-8.31283607914e-08
5.50796326459e-07
-1.00668862198e-07
5.56803218557e-07
-1.18486705086e-07
5.63762577954e-07
-1.37028549521e-07
5.71567956879e-07
-1.56605239285e-07
5.80660527079e-07
-1.77960807185e-07
5.91430815748e-07
-2.03972531488e-07
6.02001495549e-07
-2.39425567625e-07
6.05383636141e-07
-2.86618019641e-07
5.92775528073e-07
-3.38812861469e-07
-3.82334701335e-07
5.63184434547e-07
5.99808671482e-07
4.97193713054e-07
5.93711373829e-07
5.7695298575e-08
5.97440925058e-07
2.97449897187e-08
5.95061785206e-07
1.60920988436e-10
5.94054039599e-07
-2.57709615329e-08
5.93909258497e-07
-4.72205900803e-08
5.95104635471e-07
-6.71265407218e-08
5.9753265424e-07
-8.58631522335e-08
6.01048921516e-07
-1.04347209086e-07
6.05473600496e-07
-1.22962604812e-07
6.105399278e-07
-1.4212237331e-07
6.16183869272e-07
-1.62351499188e-07
6.22684220914e-07
-1.84474370134e-07
6.2956743022e-07
-2.10940124511e-07
6.34297220553e-07
-2.44157309001e-07
6.31443482395e-07
-2.83731260137e-07
6.16061766788e-07
-3.23714666522e-07
-3.55245107925e-07
5.89086832757e-07
6.54935559687e-07
4.75910595428e-07
6.48264986324e-07
6.08044999945e-08
6.52268123575e-07
2.27220051819e-08
6.50199776367e-07
-9.27903173265e-11
6.49320217982e-07
-2.67547258622e-08
6.48937254025e-07
-4.81981572409e-08
6.49535654034e-07
-6.88467276381e-08
6.51057095747e-07
-8.81854367356e-08
6.53324487206e-07
-1.07234559846e-07
6.56193739061e-07
-1.26239515919e-07
6.59361487416e-07
-1.45653772876e-07
6.62801520238e-07
-1.65907310256e-07
6.664537004e-07
-1.88331880944e-07
6.69357583666e-07
-2.1387148382e-07
6.68940576343e-07
-2.43815269343e-07
6.61462005277e-07
-2.76231847056e-07
6.44637284232e-07
-3.06701449942e-07
-3.30311418521e-07
6.19226152248e-07
5.94480112684e-07
4.53165173576e-07
5.90148584436e-07
6.24916625518e-08
5.92301875902e-07
1.82057685917e-08
5.91139430637e-07
-7.31705520573e-10
5.9048719511e-07
-2.76234161449e-08
5.9010009758e-07
-4.89135476596e-08
5.90231009982e-07
-6.99576699477e-08
5.90889459717e-07
-8.95609415185e-08
5.91927371345e-07
-1.08896401154e-07
5.93239993013e-07
-1.2796505105e-07
5.9457871597e-07
-1.47164984492e-07
5.9566137625e-07
-1.67847554646e-07
5.96613515063e-07
-1.8946719837e-07
5.96113635616e-07
-2.13996381207e-07
5.9261557338e-07
-2.40453287829e-07
5.83837642235e-07
-2.67789310416e-07
5.68802812498e-07
-2.92157666065e-07
-3.10383724875e-07
5.48590318291e-07
7.25986484669e-07
4.23656167507e-07
7.23468546925e-07
6.22233993547e-08
7.24140490454e-07
1.53802905684e-08
7.23424788992e-07
-1.91749223556e-09
7.2280936542e-07
-2.83030220778e-08
7.22340115961e-07
-4.96234782226e-08
7.22234114246e-07
-7.05936147012e-08
7.22410046382e-07
-9.04278133486e-08
7.22799390344e-07
-1.09629032922e-07
7.23256568995e-07
-1.28515834626e-07
7.2307201167e-07
-1.48065287783e-07
7.22718411398e-07
-1.67827049661e-07
7.21197629733e-07
-1.88989073607e-07
7.17975524179e-07
-2.11092474444e-07
7.10902301569e-07
-2.3421089504e-07
6.98953213733e-07
-2.56245940818e-07
6.81355750837e-07
-2.75241601102e-07
-2.88857931182e-07
6.59406440502e-07
8.84336903037e-07
3.90258988986e-07
8.83204708171e-07
6.11942847815e-08
8.82562678112e-07
1.33120072698e-08
8.82242710671e-07
-3.20195545335e-09
8.81523816277e-07
-2.95749779111e-08
8.81024930325e-07
-5.01246448726e-08
8.80381268097e-07
-7.12996995413e-08
8.79916244933e-07
-9.05291950033e-08
8.79296084645e-07
-1.09670574688e-07
8.78081770842e-07
-1.28274647321e-07
8.76227078268e-07
-1.47083591576e-07
8.73247745622e-07
-1.66013602033e-07
8.68907427747e-07
-1.85482298467e-07
8.61919286994e-07
-2.04912362118e-07
8.51241936463e-07
-2.24112259008e-07
8.35769762791e-07
-2.41467362092e-07
8.15791619015e-07
-2.5578752368e-07
-2.65770501219e-07
7.91887823102e-07
1.07579126554e-06
3.5220367545e-07
1.0762600423e-06
5.76361496388e-08
1.07511476213e-06
1.25594138833e-08
1.0746546377e-06
-5.54025957431e-09
1.07400152777e-06
-3.02779839209e-08
1.07269388807e-06
-5.10627046513e-08
1.07155655697e-06
-7.10315236056e-08
1.06959000985e-06
-9.02242667959e-08
1.0674147122e-06
-1.08269015858e-07
1.0638088728e-06
-1.26328735907e-07
1.05934511903e-06
-1.43600037035e-07
1.05287158273e-06
-1.6123374027e-07
1.04501933617e-06
-1.77893832605e-07
1.0336393017e-06
-1.94581661798e-07
1.01908847454e-06
-2.0960409726e-07
9.99961608707e-07
-2.23084663028e-07
9.77390142794e-07
-2.33326386259e-07
-2.40488112925e-07
9.51837124472e-07
1.30406251281e-06
3.12714940994e-07
1.30814431524e-06
5.11470496431e-08
1.30670529067e-06
1.07520125398e-08
1.30688670882e-06
-7.80469547303e-09
1.30538123388e-06
-3.13772935522e-08
1.30382672116e-06
-5.09168814901e-08
1.30086082118e-06
-7.0188142267e-08
1.29759341751e-06
-8.78725736512e-08
1.29243229931e-06
-1.05031183846e-07
1.28642926418e-06
-1.21175263215e-07
1.2777557269e-06
-1.36970395209e-07
1.26825473591e-06
-1.51755810644e-07
1.25519031784e-06
-1.66132150309e-07
1.24021447598e-06
-1.79134021908e-07
1.22072364981e-06
-1.91004908745e-07
1.19892949286e-06
-2.00639140472e-07
1.17299544899e-06
-2.08186465776e-07
-2.12842062014e-07
1.14610393495e-06
1.57901535941e-06
2.76262313478e-07
1.58487418325e-06
4.18241673129e-08
1.58485294009e-06
7.88166240615e-09
1.58498306911e-06
-1.04093986346e-08
1.58306029475e-06
-3.15425280515e-08
1.5800041811e-06
-4.96259655488e-08
1.57535465346e-06
-6.70133682143e-08
1.56917027818e-06
-8.30052847621e-08
1.56114088082e-06
-9.81546792794e-08
1.5509875023e-06
-1.12257673078e-07
1.53884056085e-06
-1.25533016264e-07
1.52419462079e-06
-1.37866017134e-07
1.50713742744e-06
-1.49246362967e-07
1.48692921192e-06
-1.5934277421e-07
1.46408443418e-06
-1.68029785526e-07
1.43816346304e-06
-1.74987051864e-07
1.41046978688e-06
-1.80136838384e-07
-1.83336980782e-07
1.38055948581e-06
1.90774644778e-06
2.48285546838e-07
1.91658176207e-06
2.97066473979e-08
1.91661499278e-06
5.01908488001e-09
1.91670186275e-06
-1.28175359737e-08
1.91370986526e-06
-3.02914650491e-08
1.90861190955e-06
-4.61802779785e-08
1.90149279478e-06
-6.09377627489e-08
1.89176866452e-06
-7.45646029626e-08
1.8801835869e-06
-8.71706587875e-08
1.86556941457e-06
-9.87779346582e-08
1.84917163712e-06
-1.09411633588e-07
1.82949506386e-06
-1.19105622407e-07
1.80800825643e-06
-1.27745554629e-07
1.78311009844e-06
-1.35195992906e-07
1.7566823531e-06
-1.41381230871e-07
1.72720991898e-06
-1.46220825482e-07
1.69726923813e-06
-1.49707057265e-07
-1.51833323307e-07
1.66489788105e-06
2.30644601362e-06
2.34441333682e-07
2.31998296916e-06
1.24508841947e-08
2.31963122813e-06
2.38284777869e-09
2.31909713697e-06
-1.49039049774e-08
2.31422708781e-06
-2.75772855431e-08
2.30639529461e-06
-4.01472053827e-08
2.29585015795e-06
-5.17635277114e-08
2.28191758213e-06
-6.20490150732e-08
2.2658448573e-06
-7.19108223245e-08
2.24624226102e-06
-8.04109322539e-08
2.22489477263e-06
-8.8446414078e-08
2.19995072673e-06
-9.53002346059e-08
2.17368497337e-06
-1.01548594414e-07
2.14402876501e-06
-1.06547501589e-07
2.11367971111e-06
-1.10813740974e-07
2.08036177406e-06
-1.13895299118e-07
2.04749957013e-06
-1.16215584809e-07
-1.1747329127e-07
2.01200759788e-06
1.68988682675e-06
2.21490919956e-07
1.69472700368e-06
3.08028433337e-09
1.69489442522e-06
-1.023622352e-09
1.69197516381e-06
-1.62261105327e-08
1.68822687226e-06
-2.47138103173e-08
1.67980976426e-06
-3.54591464461e-08
1.67188122702e-06
-4.36803067241e-08
1.65916177063e-06
-5.26289509915e-08
1.64752037636e-06
-5.95315823073e-08
1.63122802082e-06
-6.68464139139e-08
1.61610493712e-06
-7.24522723661e-08
1.59671633591e-06
-7.82649676847e-08
1.57867262655e-06
-8.25257149068e-08
1.55677826684e-06
-8.6770768903e-08
1.5365205949e-06
-8.95746731065e-08
1.51293766372e-06
-9.22552390794e-08
1.49145889581e-06
-9.36446805013e-08
-9.49155005102e-08
1.46718700128e-06
1.47655358682e-06
2.05859579081e-07
1.47950331326e-06
-3.68773785673e-09
1.47908896611e-06
-3.11425971286e-09
1.47613990209e-06
-1.64853125204e-08
1.47067933932e-06
-2.28682858056e-08
1.46406924595e-06
-3.05295540303e-08
1.4545047927e-06
-3.72658856076e-08
1.44475119021e-06
-4.31995567398e-08
1.43204661551e-06
-4.91734394216e-08
1.41938817972e-06
-5.41446651921e-08
1.40407372112e-06
-5.89549816404e-08
1.38903834008e-06
-6.29426428801e-08
1.37159508977e-06
-6.66514970105e-08
1.35478983296e-06
-6.95535002486e-08
1.33587863884e-06
-7.20751203388e-08
1.31801792463e-06
-7.37907689085e-08
1.29826095238e-06
-7.51545902497e-08
-7.56764651068e-08
1.27994780684e-06
1.28899787653e-06
1.8530566528e-07
1.29449389959e-06
-1.27203484668e-08
1.29206437839e-06
-6.58804217304e-09
1.28988199175e-06
-1.69381684147e-08
1.28486340041e-06
-2.03252622996e-08
1.2781127936e-06
-2.61244613419e-08
1.26987805311e-06
-3.07839820491e-08
1.26022382799e-06
-3.54672701143e-08
1.24952001921e-06
-3.9651619067e-08
1.23776455274e-06
-4.34299936276e-08
1.22487731813e-06
-4.70498426725e-08
1.21135488127e-06
-5.00368279221e-08
1.19674341072e-06
-5.30325586073e-08
1.18194809655e-06
-5.51760799515e-08
1.16643899184e-06
-5.72906020249e-08
1.15089245348e-06
-5.85322377138e-08
1.13514888829e-06
-5.96484760105e-08
-6.05443354567e-08
1.1195424009e-06
1.14060203085e-06
1.53849410378e-07
1.13145893379e-06
-5.8608708905e-09
1.13092517174e-06
-5.86330652675e-09
1.12812959619e-06
-1.72763855887e-08
1.12348413201e-06
-1.78987705937e-08
1.11725576211e-06
-2.23610168052e-08
1.10978307423e-06
-2.50554106584e-08
1.10110686918e-06
-2.83201083364e-08
1.09167905519e-06
-3.12456990586e-08
1.08100046995e-06
-3.41799305713e-08
1.07002586464e-06
-3.66314839189e-08
1.05767581877e-06
-3.92141481782e-08
1.04560698977e-06
-4.1110099768e-08
1.03215113943e-06
-4.32368763414e-08
1.01952096757e-06
-4.44967571605e-08
1.00568447283e-06
-4.57250456142e-08
9.92418166457e-07
-4.61042092775e-08
-4.43602448696e-08
9.75352011296e-07
9.31640710336e-07
1.82851013386e-07
9.95967461298e-07
-7.30973253794e-08
9.93470049961e-07
-8.45265066803e-09
9.92151081548e-07
-1.68914254023e-08
9.87578854247e-07
-1.46387960259e-08
9.82095587453e-07
-1.79654410601e-08
9.75162695794e-07
-1.97141232112e-08
9.67509231796e-07
-2.20167219481e-08
9.59100549981e-07
-2.41020512007e-08
9.50114286678e-07
-2.61085855439e-08
9.40396144975e-07
-2.80387239988e-08
9.30255170918e-07
-2.98037009348e-08
9.19419482001e-07
-3.16427843655e-08
9.08719852478e-07
-3.30472089039e-08
8.9784745375e-07
-3.43401236446e-08
8.86999460188e-07
-3.52563341668e-08
8.76616369276e-07
-3.5961654329e-08
-4.33732570071e-08
8.75215342753e-07
1.06143340052e-06
-3.6124715471e-08
8.57693020266e-07
1.30758136908e-07
8.61231719429e-07
-1.07639982015e-08
8.59750676086e-07
-1.6635562705e-08
8.55275645845e-07
-1.16245766937e-08
8.50022266974e-07
-1.42636207612e-08
8.43773928748e-07
-1.47589412261e-08
8.36889422047e-07
-1.63922736486e-08
8.29405981375e-07
-1.76823628069e-08
8.21141391277e-07
-1.89380671782e-08
8.12243004585e-07
-2.01838565117e-08
8.02818086168e-07
-2.15558618981e-08
7.92986240592e-07
-2.26103354771e-08
7.82730735891e-07
-2.36574645428e-08
7.72268484789e-07
-2.4573950047e-08
7.621252479e-07
-2.54094577481e-08
7.51380408576e-07
-2.61833851969e-08
-1.03330462921e-08
7.18114287223e-07
1.67776553166e-07
5.27546337947e-07
8.02865303784e-07
-5.04565461884e-07
7.80764698063e-07
9.89607144312e-09
7.77514920598e-07
-1.37555155215e-08
7.74070758122e-07
-8.1621582342e-09
7.70432681791e-07
-1.13945084315e-08
7.65883729038e-07
-1.14622996884e-08
7.60892697914e-07
-1.25882094829e-08
7.5544242842e-07
-1.33075663708e-08
7.49598968144e-07
-1.4109479925e-08
7.43136205897e-07
-1.47843565341e-08
7.36260734012e-07
-1.56670986167e-08
7.28818755512e-07
-1.62549168303e-08
7.21235488022e-07
-1.69239952241e-08
7.13655373527e-07
-1.7688486182e-08
7.05202839683e-07
-1.76917469787e-08
6.9378041768e-07
-1.53245469016e-08
-3.45160741928e-08
7.17048510899e-07
1.82909826741e-06
-6.62131622276e-07
6.26632258431e-07
6.99414759065e-07
6.34166563819e-07
3.21912074936e-09
6.52930278426e-07
-2.9468974847e-08
6.44331008987e-07
-2.26273529769e-09
6.39108041938e-07
-6.80668907999e-09
6.32604371843e-07
-5.91695170519e-09
6.25499593059e-07
-6.49950922374e-09
6.17812840856e-07
-6.56139024352e-09
6.09556290575e-07
-6.73274632011e-09
6.00510153905e-07
-7.16192407199e-09
5.91884097062e-07
-7.74526369866e-09
5.83463310468e-07
-8.6128071857e-09
5.75358998844e-07
-9.66728730826e-09
5.68320612613e-07
-1.13658281072e-08
5.64891679594e-07
-1.48619538944e-08
5.72855854751e-07
-2.40562982029e-08
-1.67927847265e-08
5.54047409387e-07
-8.42901997607e-07
7.38330034932e-07
7.05826996615e-07
-8.47481376577e-07
6.31753801261e-07
7.95442339547e-08
6.0048660871e-07
4.3305921749e-09
6.0129946422e-07
-4.13566157493e-09
5.9763584037e-07
-3.90304905813e-09
5.95857899999e-07
-4.93488416368e-09
5.93423550161e-07
-4.99086633256e-09
5.90917672767e-07
-4.8845662665e-09
5.87621520958e-07
-4.56368793929e-09
5.83400580831e-07
-4.16180574065e-09
5.78790928002e-07
-4.08500801923e-09
5.73435851915e-07
-4.03388057988e-09
5.66529725729e-07
-3.59233424097e-09
5.57796425048e-07
-3.34384594167e-09
5.45083672035e-07
-2.75178867622e-09
5.16465375855e-07
3.61215489762e-09
-7.6862434435e-09
5.0648610257e-07
1.28255351087e-06
-5.81949815776e-08
3.73008388444e-07
6.43349957919e-08
5.507395186e-07
-9.55232346806e-08
5.33516749838e-07
2.45606274713e-08
5.37275763047e-07
-8.77856827367e-09
5.35025210401e-07
-2.47441934174e-09
5.32890569136e-07
-3.68501920254e-09
5.30298873545e-07
-3.40016177218e-09
5.27314126618e-07
-2.89807060042e-09
5.24107069382e-07
-2.65620586688e-09
5.2057160995e-07
-2.14303379402e-09
5.16823042663e-07
-1.43412119663e-09
5.12852362088e-07
-9.87464625805e-10
5.08880405129e-07
-5.47209410214e-10
5.04681007542e-07
7.1672994834e-11
5.0175266581e-07
-6.11087213205e-10
5.10852554951e-07
-6.47138712928e-09
1.38039568902e-08
4.88197598733e-07
3.62244042842e-07
4.26784418093e-07
3.31570439838e-07
3.56045963517e-07
3.47182783112e-07
3.44612067579e-07
3.40805068733e-07
3.372780736e-07
3.34205454983e-07
3.31308989229e-07
3.28978244166e-07
3.2738447264e-07
3.26219091432e-07
3.25506629034e-07
3.25419278516e-07
3.24585093876e-07
3.17816364183e-07
3.31477723597e-07
-1.74479209925e-07
1.90855796677e-07
-2.53891591756e-07
9.75480921995e-08
-2.68327462168e-07
2.92855717198e-08
-2.4490878501e-07
-9.18058941369e-09
-2.07913250242e-07
-3.06058341917e-08
-1.67080878132e-07
-3.36326465093e-08
-1.37804872793e-07
-2.71220996889e-08
-1.14067245896e-07
-1.91047379652e-08
-1.01091500373e-07
-1.21410528574e-08
-9.12711976804e-08
-6.59213560445e-09
-8.8497646955e-08
-2.57963332534e-09
-8.65430691023e-08
2.6400705107e-10
-8.86623851087e-08
1.97426412871e-09
-9.01332675916e-08
2.90004696483e-09
-9.35296338318e-08
3.06523144967e-09
-9.54631606155e-08
2.75852541335e-09
-9.78809131445e-08
2.00003411985e-09
-9.85175826014e-08
1.0172593637e-09
-9.87719007214e-08
-1.79174020837e-10
-9.73049192541e-08
-1.42954258205e-09
-9.49951766807e-08
-2.72540578395e-09
-9.12146717815e-08
-3.97630933851e-09
-8.6444609946e-08
-5.1793322888e-09
-8.05102741273e-08
-6.28863171603e-09
-7.35671355148e-08
-7.3067126969e-09
-6.57747550142e-08
-8.2283949913e-09
-5.70568250437e-08
-9.04237320556e-09
-4.77391797764e-08
-9.7674440709e-09
-3.76273237373e-08
-1.03886462621e-08
-2.71145488004e-08
-1.09348462903e-08
-1.59506173339e-08
-1.13815342145e-08
-4.54685792221e-09
-1.1765349615e-08
7.33924013263e-09
-1.2064221651e-08
1.93273502121e-08
-1.23069270312e-08
3.16854348923e-08
-1.24673822913e-08
4.40003345068e-08
-1.25895675348e-08
5.65468373347e-08
-1.26381404352e-08
6.89603594794e-08
-1.26518415548e-08
8.15074293832e-08
-1.26048442911e-08
9.38377125574e-08
-1.25379854678e-08
1.06233887888e-07
-1.24215031997e-08
1.18360021283e-07
-1.22992826282e-08
1.30511101694e-07
-1.21400145694e-08
1.42360045054e-07
-1.19885056086e-08
1.54219507329e-07
-1.1810494534e-08
1.6575876421e-07
-1.16517371571e-08
1.77306884884e-07
-1.14735306591e-08
1.88527444204e-07
-1.13227045753e-08
1.99764829045e-07
-1.11545087033e-08
2.10690286377e-07
-1.10201392654e-08
2.21628500077e-07
-1.08731768081e-08
2.3229855413e-07
-1.07568939837e-08
2.42976996906e-07
-1.06285280121e-08
2.53450950825e-07
-1.05280477464e-08
2.63924368559e-07
-1.04181718057e-08
2.74257244068e-07
-1.0334025133e-08
2.84558054531e-07
-1.02518583883e-08
2.94788120407e-07
-1.01933190262e-08
3.04962871871e-07
-1.01486112598e-08
3.15117692607e-07
-1.00977595542e-08
3.25071410776e-07
-9.96303278146e-09
3.34628542754e-07
-9.53111927643e-09
3.43046998913e-07
-8.47075015564e-09
3.50324956252e-07
-7.30111404744e-09
3.57222355232e-07
-7.02176121357e-09
3.64196215448e-07
-7.03910787142e-09
3.71344705349e-07
-7.30826973392e-09
3.78972328558e-07
-7.74670027731e-09
3.87100161646e-07
-8.34469503625e-09
3.95941808672e-07
-9.04338692459e-09
4.05482505167e-07
-9.8431875681e-09
4.15921238857e-07
-1.07104342581e-08
4.27146200999e-07
-1.16735128643e-08
4.39446635784e-07
-1.26648094177e-08
4.5267131469e-07
-1.37629809909e-08
4.67116340009e-07
-1.4912262485e-08
4.82588522689e-07
-1.6163357846e-08
4.99424036277e-07
-1.74512547176e-08
5.17329017886e-07
-1.88579228989e-08
5.36753505249e-07
-2.02581046685e-08
5.57309402013e-07
-2.17565178978e-08
5.79429834074e-07
-2.32143363286e-08
6.0261145412e-07
-2.47532746261e-08
6.27395123398e-07
-2.61951285993e-08
6.53157509946e-07
-2.7723836846e-08
6.80296375276e-07
-2.91288535107e-08
7.08243801112e-07
-3.05698396931e-08
7.36714928866e-07
-3.19611199977e-08
7.6547958745e-07
-3.26124620368e-08
7.9141416587e-07
-3.39229363498e-08
8.16370754881e-07
-3.39568074089e-08
8.39303998281e-07
-3.43196782587e-08
8.61505163312e-07
-3.39229971216e-08
8.81529972373e-07
-3.32438874677e-08
9.0006876336e-07
-3.14761999128e-08
9.15226782638e-07
-2.91299007757e-08
9.26005417524e-07
-2.40678789865e-08
9.2075117954e-07
-8.82227206408e-09
9.04777929826e-07
2.63626915401e-09
9.04869095425e-07
-1.42719199961e-08
9.3541170095e-07
-4.41405126912e-08
9.6381155355e-07
-4.32454756512e-08
9.63406806735e-07
-1.58320416295e-08
9.29871301271e-07
1.63069668791e-08
8.56675523391e-07
5.51963877009e-08
8.00936858881e-07
3.68812147602e-08
6.66068218535e-07
1.20998871692e-07
5.52093566038e-07
1.0498834437e-07
4.85201771698e-07
6.03798937782e-08
4.48516365779e-07
3.1417234046e-08
4.29278343957e-07
1.50405811161e-08
4.18383517126e-07
7.19550200836e-09
4.11720469543e-07
3.54759645155e-09
4.06913785278e-07
1.87149886358e-09
4.03091647181e-07
1.22761681932e-09
3.99597811893e-07
9.13022194032e-10
3.96373260861e-07
8.49993704455e-10
3.93124226957e-07
7.45087112966e-10
3.90016739308e-07
7.08212273387e-10
3.86830906851e-07
5.66571659129e-10
3.83762323531e-07
4.83818777416e-10
3.80594491582e-07
3.26179336654e-10
3.77517455465e-07
2.786770477e-10
3.74396428255e-07
1.90803752143e-10
3.71433287773e-07
2.10166142525e-10
3.68278111624e-07
3.56674050957e-10
3.6497220797e-07
7.29697711754e-10
3.61201788987e-07
1.12204179312e-09
3.57173658198e-07
1.57503603487e-09
3.53129455391e-07
1.47460847572e-09
3.49177749841e-07
1.55319264856e-09
3.45003916321e-07
1.62821515659e-09
3.40798807128e-07
1.81683311438e-09
3.36296543461e-07
1.95308108838e-09
3.31697995923e-07
2.20249580736e-09
3.26741637842e-07
2.39687166301e-09
3.2162859619e-07
2.71534453713e-09
3.16110129474e-07
2.97642244374e-09
3.10390259192e-07
3.38890541003e-09
3.0410019509e-07
3.71012439957e-09
2.97347043976e-07
4.19381304967e-09
2.8959507421e-07
4.54407467605e-09
2.81116268211e-07
5.02778728587e-09
2.71685484545e-07
5.26776400322e-09
2.61984441733e-07
5.40817706922e-09
2.51785210277e-07
5.29794189741e-09
2.41520042726e-07
5.36906815217e-09
2.30727758043e-07
5.35149955213e-09
2.20035418333e-07
5.35849742242e-09
2.09432920415e-07
4.77063999611e-09
1.99806559187e-07
3.99988034527e-09
1.90885784084e-07
2.85477430911e-09
1.83123042797e-07
2.00517985755e-09
1.75825600403e-07
1.15122353395e-09
1.69500705341e-07
5.55011501053e-10
1.63546501215e-07
-1.59874992426e-10
1.58442575265e-07
-5.78731366107e-10
1.53544347391e-07
-1.07618568645e-09
1.49321371244e-07
-1.27575647154e-09
1.45182780457e-07
-1.58694581414e-09
1.41672453369e-07
-1.70682197643e-09
1.38380996361e-07
-2.07569676772e-09
1.35965825092e-07
-2.42883092073e-09
1.34172716163e-07
-3.12004846956e-09
1.33635457784e-07
-3.86862510345e-09
1.34198853063e-07
-4.96941314643e-09
1.365437488e-07
-6.3066087205e-09
1.40571142776e-07
-7.95371080067e-09
1.46663447833e-07
-9.69424508449e-09
1.5463592259e-07
-1.15551450087e-08
1.64465856489e-07
-1.32526419175e-08
1.75835883103e-07
-1.48503828634e-08
1.88037953406e-07
-1.5696288761e-08
2.00780697452e-07
-1.64244635562e-08
2.11427429775e-07
-1.44809807812e-08
2.18128890756e-07
-1.08723103793e-08
2.17826784249e-07
-4.07211290565e-09
2.05775309319e-07
7.34076894758e-09
1.76924712842e-07
2.41134593316e-08
3.28941669863e-08
1.39489431556e-07
-1.02457208804e-07
3.05756248147e-07
-6.27462941951e-08
6.60117319568e-08
3.96060940661e-09
-3.26374212266e-08
5.38539294418e-08
-5.48006204568e-08
7.62162891564e-08
-5.03395039114e-08
8.33222652427e-08
-3.75524379807e-08
8.23441056599e-08
-2.44713649903e-08
7.9937889444e-08
-1.41870811764e-08
7.60077634566e-08
-7.18632591361e-09
7.4326954304e-08
-2.97939769861e-09
7.32663318626e-08
-9.19692156683e-10
7.52861821036e-08
-3.79655676795e-10
7.84452032562e-08
-9.13529224758e-10
8.43668504455e-08
-2.13666678253e-09
9.12708159183e-08
-3.80846401873e-09
1.00218370206e-07
-5.70555757695e-09
1.09800356071e-07
-7.70571710582e-09
1.20678305567e-07
-9.685310311e-09
1.31868010911e-07
-1.15860399224e-08
1.43750932469e-07
-1.33456163239e-08
1.55710197113e-07
-1.49491406258e-08
1.6791223777e-07
-1.63682479944e-08
1.80058907363e-07
-1.76046680586e-08
1.92140205216e-07
-1.86595577102e-08
2.04086907837e-07
-1.9539208269e-08
2.15795327648e-07
-2.02562382488e-08
2.27312422755e-07
-2.0824462565e-08
2.3847978998e-07
-2.12611285206e-08
2.49429481483e-07
-2.15759608574e-08
2.59994655972e-07
-2.1788622742e-08
2.70322501427e-07
-2.1910897923e-08
2.80248064651e-07
-2.19603450738e-08
2.89955198344e-07
-2.19375991913e-08
2.99294518633e-07
-2.18661843495e-08
3.08431928844e-07
-2.17481219147e-08
3.17247413554e-07
-2.15954501125e-08
3.25910245908e-07
-2.14117182137e-08
3.34300703958e-07
-2.1211882591e-08
3.42595109611e-07
-2.09905770802e-08
3.50680797212e-07
-2.07633883679e-08
3.58722211655e-07
-2.05262568402e-08
3.66607245463e-07
-2.02922194367e-08
3.74491512329e-07
-2.00552765363e-08
3.82254584251e-07
-1.98272230474e-08
3.9004629289e-07
-1.95995235117e-08
3.97731145058e-07
-1.93834734407e-08
4.05451317395e-07
-1.91670877959e-08
4.13062089064e-07
-1.89606814126e-08
4.20691890582e-07
-1.87517575723e-08
4.28196187326e-07
-1.85465805518e-08
4.3568633111e-07
-1.83311795083e-08
4.43031389236e-07
-1.81194646072e-08
4.50321458443e-07
-1.78953138747e-08
4.57469350651e-07
-1.76663050048e-08
4.64511266299e-07
-1.74230306624e-08
4.71382583507e-07
-1.71683304799e-08
4.78065358474e-07
-1.68910387782e-08
4.84508412096e-07
-1.65827279849e-08
4.90623751462e-07
-1.62261104322e-08
4.96365415656e-07
-1.57954318169e-08
5.01680741475e-07
-1.52569302339e-08
5.06784065455e-07
-1.46129170723e-08
5.12336281181e-07
-1.4057609157e-08
5.17509586107e-07
-1.25021963741e-08
5.21300297347e-07
-1.08818924186e-08
5.23712719384e-07
-9.53466203184e-09
5.24727035104e-07
-8.43802055131e-09
5.24457101956e-07
-7.60742657109e-09
5.23002765391e-07
-7.06379885918e-09
5.20570874374e-07
-6.80493504673e-09
5.17300622687e-07
-6.84020141031e-09
5.13440241954e-07
-7.13831319466e-09
5.09135878379e-07
-7.70115911162e-09
5.04606027883e-07
-8.52233048932e-09
4.99969564776e-07
-9.58861938717e-09
4.95477473543e-07
-1.08754722722e-08
4.91150528134e-07
-1.24232498605e-08
4.87231615894e-07
-1.41849342842e-08
4.8375430006e-07
-1.61794277571e-08
4.80990652963e-07
-1.83540686143e-08
4.7892676148e-07
-2.07308287919e-08
4.77818952877e-07
-2.32346731561e-08
4.77611306727e-07
-2.58840934155e-08
4.78561761242e-07