/*--------------------------------*- C++ -*----------------------------------*\
| =========                 |                                                 |
| \\      /  F ield         | OpenFOAM: The Open Source CFD Toolbox           |
|  \\    /   O peration     | Version:  v1806                                 |
|   \\  /    A nd           | Web:      www.OpenFOAM.com                      |
|    \\/     M anipulation  |                                                 |
\*---------------------------------------------------------------------------*/
FoamFile
{
    version     2.0;
    format      ascii;
    class       volScalarField;
    location    "9";
    object      sensitivity;
}
// * * * * * * * * * * * * * * * * * * * * * * * * * * * * * * * * * * * * * //

dimensions      [0 2 -3 0 0 0 0];


internalField   nonuniform List<scalar> 
12225
(
2.55411447073
-9.97617058414
-3.89316140433
-5.56770663131
-5.13816024632
-5.38489810313
-5.51840760694
-5.69953056126
-5.84264085007
-5.90243540662
-5.89902692513
-5.91201884545
-6.08636918139
-6.65249528857
-8.05101126235
-10.9349905965
-15.340956045
-17.2240132642
-22.0821462445
-4.63223402843
-7.26467217307
-6.50034153125
-6.952871492
-7.38267085268
-7.8885566144
-8.41207585049
-8.87282035808
-9.29974261231
-9.7702494346
-10.3651030953
-11.2032383341
-12.4993333642
-14.6065581435
-17.8403784308
-21.4506383361
-21.1833847949
11.4819562059
-7.90256203046
-6.90908379259
-6.94932065398
-7.03005824947
-7.07267905232
-7.14621076577
-7.17428742942
-7.1708691697
-7.16718371204
-7.23557582152
-7.472578252
-8.01963203404
-9.09829711037
-11.006959153
-13.8742650249
-16.7711566289
-16.6778057066
-11.2514350592
-9.49376320739
-7.56592611785
-7.97280224591
-7.88428570485
-8.0283881576
-8.15708498423
-8.29394280779
-8.39414776194
-8.46989735608
-8.55701794861
-8.7318100453
-9.11836716493
-9.90076501354
-11.2789008003
-13.2101112852
-14.796982334
-14.227405686
-5.07607284708
-7.91192455489
-7.90224627679
-7.8271695047
-7.89232875846
-7.98174712724
-8.10012316908
-8.21895332493
-8.32369423924
-8.43014443697
-8.57228676911
-8.81623412777
-9.26144973501
-10.0358848809
-11.2192840968
-12.6205128137
-13.4739242129
-12.7980334034
-7.91138756284
-8.65378534096
-8.43373461171
-8.40932834258
-8.41434625275
-8.45386525528
-8.50578388509
-8.56425826772
-8.61909790942
-8.69126446187
-8.8124699882
-9.04033022802
-9.45119914346
-10.1245784848
-11.058253974
-12.010275407
-12.4159240448
-11.7952804671
-8.54941236937
-8.70216144376
-8.84153878045
-8.7426275012
-8.76411173928
-8.78058306536
-8.80922075328
-8.84492327092
-8.88267128575
-8.94403770282
-9.05649343421
-9.26760581238
-9.63103762039
-10.1841423085
-10.8741905132
-11.4717876836
-11.6056542889
-11.0675895048
-9.24911937376
-8.87438002491
-9.17409780361
-9.04252629835
-9.0685354346
-9.06858350424
-9.07928259842
-9.09905259371
-9.12541817078
-9.17923122987
-9.28254959446
-9.47163500158
-9.77870427933
-10.2085071034
-10.6852952644
-11.0225781011
-10.9967528902
-10.5332409461
-9.75243841968
-9.03558977896
-9.44917646861
-9.29621166348
-9.32838915206
-9.31867638525
-9.31806841635
-9.32752803093
-9.34580243399
-9.39222778696
-9.48300849961
-9.64348160723
-9.8879905673
-10.2002979199
-10.5021887953
-10.6570896557
-10.540735739
-10.1368057812
-10.1313614312
-9.18502360786
-9.67495039019
-9.51118273034
-9.54771252862
-9.53317395966
-9.52541515169
-9.5281715517
-9.53994355118
-9.57804923654
-9.65279441412
-9.77984313397
-9.96037587546
-10.1676751687
-10.3329751597
-10.3640977579
-10.1968634678
-9.83951047304
-10.4476689248
-9.32102450346
-9.85071553271
-9.68472786753
-9.72333088746
-9.70770864941
-9.69576468798
-9.69395112768
-9.69962338749
-9.72802503672
-9.7840663835
-9.87567160911
-9.99554521016
-10.1143137881
-10.1775095832
-10.1269877664
-9.93385072254
-9.61404430182
-10.5469366276
-9.439150961
-9.9258345172
-9.77845662892
-9.81352843982
-9.80230375027
-9.78852159308
-9.78447959153
-9.78524402839
-9.8046476031
-9.84299181906
-9.90250747453
-9.97255160207
-10.0261739446
-10.0225266874
-9.92563398647
-9.72333727311
-9.43378558327
-10.528322692
-9.52505377163
-9.94067293002
-9.81832822743
-9.84647968383
-9.84071692971
-9.82692271388
-9.82306134547
-9.82058264696
-9.83202010637
-9.85359545054
-9.88517748716
-9.91428374839
-9.91840802369
-9.86808280393
-9.74241654127
-9.54005010609
-9.27865454331
-10.4635969434
-9.58939295083
-9.92103378378
-9.82769320162
-9.84484059438
-9.84486518147
-9.82967663301
-9.82509101769
-9.81827888089
-9.81988309781
-9.82397837735
-9.82795018965
-9.81992473214
-9.78264409603
-9.69689404115
-9.55280083884
-9.35565033783
-9.1216954713
-10.3723731315
-9.65527138694
-9.89213547984
-9.83313568826
-9.8338875341
-9.83736393253
-9.81786056138
-9.81034657266
-9.7961364182
-9.78562349552
-9.7707950968
-9.74816239708
-9.70841750409
-9.63902903808
-9.5284782973
-9.37458428479
-9.18570752582
-8.97764280809
-10.2373189961
-9.70080241625
-9.84674426394
-9.82306969168
-9.80727600413
-9.8137439272
-9.78850255485
-9.77601441444
-9.75239321177
-9.72882975623
-9.6955294737
-9.65084565363
-9.58678529661
-9.49576667277
-9.37161029299
-9.21649198846
-9.03961645827
-8.85517537331
-10.1037814745
-9.71689151892
-9.78670648695
-9.79299790656
-9.76321293206
-9.77074791883
-9.73874641422
-9.71924975159
-9.68476476897
-9.64736310569
-9.59794599106
-9.53529345393
-9.45458869896
-9.35121679762
-9.22276498434
-9.07291675293
-8.91091957127
-8.74818266274
-9.91716163106
-9.71833688761
-9.70177657335
-9.73816155449
-9.6942925882
-9.70170853119
-9.66259374319
-9.63567768627
-9.59086696577
-9.5417465831
-9.47976882864
-9.40510900324
-9.31516879757
-9.20748647662
-9.0814997894
-8.94134092908
-8.79537199245
-8.65312405484
-9.73153454801
-9.71062949105
-9.63145715813
-9.68635423868
-9.63405463206
-9.63823512248
-9.59271799816
-9.55837855933
-9.50453449961
-9.4459868478
-9.37496153973
-9.29287756324
-9.19869564435
-9.09111342176
-8.97038349221
-8.84035418485
-8.70830220113
-8.58242804886
-9.80709018295
-9.66243068346
-9.64271892914
-9.66043282434
-9.61699804158
-9.60794772039
-9.55771565393
-9.51533894597
-9.4552286784
-9.39062518068
-9.31494162105
-9.23007816182
-9.13553148345
-9.03043259734
-8.91511508411
-8.79306541754
-8.67086456783
-8.55637006862
-9.89172305026
-9.65695097493
-9.68991637209
-9.6806513433
-9.64313221413
-9.62471968211
-9.57068789154
-9.52337749467
-9.45883158115
-9.39070962049
-9.31240976158
-9.22633298108
-9.13199319883
-9.02909886887
-8.91726207734
-8.80044308415
-8.68384661149
-8.57577287683
-9.97324509478
-9.67128406662
-9.74600404643
-9.71721921507
-9.68942227382
-9.66300487998
-9.60673852213
-9.55432435007
-9.48712728855
-9.41641531591
-9.33651971885
-9.25008471869
-9.15649072667
-9.05557555588
-8.94721889527
-8.83461489989
-8.72307879861
-8.62024559689
-10.1604080595
-9.68987963282
-9.81960348869
-9.76558196631
-9.7465685242
-9.71298835184
-9.65556804166
-9.60013647528
-9.53016340166
-9.45688421832
-9.37505077025
-9.28683884095
-9.19306359576
-9.09274413816
-8.98636364632
-8.87598532998
-8.76600428084
-8.66041729822
-10.0552871629
-9.62330498761
-9.94622425077
-9.85450087931
-9.8556326339
-9.81380494329
-9.75619324168
-9.6969907166
-9.62579603352
-9.55124702233
-9.4702827613
-9.38379423581
-9.29168465227
-9.19547759201
-9.09545449353
-8.99394386002
-8.89650650079
-8.81860270493
-11.2429582431
-9.98027522101
-9.8570338013
-9.81601752405
-9.80470593289
-9.75523701833
-9.69548543034
-9.63311577693
-9.55889913067
-9.48038686026
-9.3903184867
-9.29517308145
-9.19567124137
-9.09077826449
-8.98036119986
-8.866513311
-8.74711507076
-8.61225585686
-6.16028313613
-8.94298051403
-10.5477959038
-10.2074869687
-10.306413171
-10.2401044704
-10.1992914431
-10.1443944547
-10.0801987585
-10.0105719575
-9.93698453905
-9.85371327732
-9.76400166325
-9.6736439353
-9.58459713168
-9.49838047933
-9.42388453155
-9.36347866598
-22.7579948189
-11.5556814054
-9.4333078574
-9.76158228464
-9.61218928985
-9.54898205128
-9.45768514495
-9.36844742244
-9.26719188294
-9.16074814506
-9.04612519162
-8.93671422891
-8.83139805173
-8.73439206958
-8.65271154411
-8.59058550891
-8.54110592153
-8.56463248856
18.8029216058
-9.73574482062
-10.8771729022
-10.5950507358
-10.746447833
-10.610041701
-10.59974338
-10.5486837772
-10.5029327362
-10.4461569541
-10.3735669103
-10.2936339441
-10.2075694579
-10.1031217269
-9.97301641665
-9.81125232189
-9.61242172427
-9.29692713476
-38.662657551
-5.96898248056
-11.7552487383
-10.0346097136
-10.4269437571
-10.3385738463
-10.3258793898
-10.3021275907
-10.2639676883
-10.2240051404
-10.1777631471
-10.1157476978
-10.0395729616
-9.95523321782
-9.86837209396
-9.77481855165
-9.65208511256
-9.55756962365
-5.59561733799
-10.9725915187
-7.60514870544
-8.08693977008
-7.68461769141
-7.5152817442
-7.32836978764
-7.15805262735
-7.00856730794
-6.87039510097
-6.74270217975
-6.62522812331
-6.51279535073
-6.39699944496
-6.27388419091
-6.16268567469
-6.10909234509
-6.11403792489
0.0144778281559
0.0145579076741
0.0129655519157
0.0251800901085
0.0150259666171
-0.000996598594709
-0.0114850629354
-0.0156122028974
-0.0158580994597
-0.0151521678954
-0.0160001268085
-0.0200217721824
-0.0279798677347
-0.0399348266182
-0.0553565744909
-0.0734404400838
-0.0930859026794
-0.113230974316
-0.132686836536
-0.150480067733
-0.165584140944
-0.177257342595
-0.184743226826
-0.187542806725
-0.1851710066
-0.177404672384
-0.164064750894
-0.145161626636
-0.120738060005
-0.0909646465937
-0.0560535670236
-0.0162835069638
0.0280668010095
0.0766872994874
0.129302485051
0.185592485777
0.245289194431
0.308157295305
0.374016727388
0.442662040954
0.513940824486
0.58766359212
0.66369040983
0.741831776301
0.821949156927
0.903842958448
0.987355625205
1.072262245
1.15836230494
1.24542800873
1.33321421471
1.42146821283
1.50980452861
1.5978219938
1.68504546775
1.77111418634
1.85561956289
1.93826432274
2.01850243368
2.09571738241
2.16932260962
2.23832404927
2.30015239433
2.35204173541
2.39576769727
2.43353506958
2.46689671472
2.49692969728
2.52433131147
2.549353799
2.57193870083
2.59175663694
2.60819746292
2.62057096909
2.62814162825
2.63012218091
2.62576847478
2.61444386571
2.59558433059
2.56874765694
2.53358208096
2.48984931711
2.43740972395
2.37621739854
2.30623221984
2.22771734337
2.14082513056
2.04557620473
1.9423074813
1.83060430157
1.71084031684
1.5836460038
1.4500626602
1.31202055587
1.17018467386
1.02490481498
0.878522983063
0.732656559202
0.588438099287
0.454592173925
0.342088455449
0.252014372548
0.170356690508
0.0885107048438
-0.00958271194553
-0.0620276680746
-0.0107460986019
-0.027204670923
-0.0579122860459
-0.0938084762051
-0.130210543845
-0.165107088718
-0.198560762365
-0.229117130605
-0.256594999735
-0.28090046555
-0.302074074742
-0.320285201262
-0.335728232815
-0.348604191478
-0.359063256965
-0.367237557037
-0.373241506187
-0.377211774314
-0.379233276759
-0.379609277489
-0.378576540465
-0.376311833404
-0.372943317701
-0.36863841472
-0.363511112323
-0.357583263362
-0.350851904525
-0.343331079429
-0.335030331901
-0.325981208786
-0.316209341439
-0.305751114376
-0.294606114601
-0.282780636488
-0.270293597853
-0.257187424678
-0.243557199274
-0.229555529414
-0.215414080054
-0.201363507741
-0.18761822384
-0.174462509819
-0.16214490572
-0.151318454486
-0.142284755816
-0.135174910714
-0.129672450109
-0.125287879916
-0.121886334371
-0.119307199842
-0.117390109517
-0.115964655386
-0.114866376579
-0.113931730558
-0.113040149572
-0.112155687858
-0.111378977887
-0.110908712876
-0.110975666531
-0.111858833869
-0.113922020691
-0.117745303995
-0.124082481387
-0.133891931109
-0.148024096501
-0.167324426991
-0.192617742749
-0.223380083983
-0.256871953841
-0.288257215173
-0.311078808888
-0.31524892573
-0.294559788544
-0.216611236012
0.0160818250469
-0.0134261046079
0.0109485893659
0.0373357865949
0.0594816166785
0.0772565874243
0.09261622672
0.106578616827
0.119675424404
0.132447079008
0.145497151909
0.159383130499
0.1746305749
0.191581915627
0.210545685787
0.231641309716
0.255025102268
0.280696942235
0.308761299472
0.339204665906
0.372123420912
0.407509855465
0.445466487203
0.485993327657
0.529161004602
0.57493652474
0.623287597207
0.674103911533
0.727278711357
0.782647733066
0.840038642433
0.899253936033
0.960142250747
1.02255779872
1.08637604545
1.15150320718
1.2179131847
1.28559994575
1.3546227365
1.42505217561
1.49698765186
1.57051088765
1.64572149559
1.72268574166
1.80147627542
1.88211522039
1.96460433383
2.04889437129
2.13487028826
2.22234301089
2.31103148629
2.4006621947
2.49093654407
2.58148681349
2.67173880077
2.76105553454
2.84871142348
2.9339494861
3.01595005595
3.09389343812
3.16670303869
3.23368591732
3.29651534896
3.35566071299
3.4063920803
3.44561824816
3.47207640494
3.48528065712
3.48533601944
3.47276939416
3.44834343298
3.41291334132
3.36734056038
3.31235025503
3.24850334503
3.17626708574
3.09597476325
3.0079277425
2.9124981112
2.81013146182
2.70137534144
2.5868933285
2.46743570476
2.34380230708
2.2168029827
2.08703852899
1.95505872762
1.82145616509
1.68597716299
1.54917252559
1.41155329379
1.27340327971
1.1361690647
0.999238091864
0.858603824729
0.715917093784
0.581879675022
0.47393273623
0.388315002683
0.307157868769
0.196221864666
0.0828401050177
0.0233640999691
-0.0330059769957
-0.0335952262121
-0.0407960835746
-0.0895759015904
-0.16566793328
-0.225818825717
-0.279692262038
-0.323410900671
-0.36116328355
-0.394036605579
-0.422535760248
-0.447460074464
-0.469214996392
-0.488189031269
-0.504726030559
-0.519132661641
-0.531644441347
-0.542422759519
-0.551593765169
-0.559296478249
-0.565688131693
-0.570955914285
-0.575068021894
-0.578252884166
-0.581043332241
-0.583676933332
-0.586146720414
-0.588535514578
-0.59089117441
-0.593373729926
-0.596178483902
-0.599523531519
-0.603621819606
-0.608715160517
-0.61506620282
-0.622983579151
-0.632791419931
-0.644731874805
-0.658976397837
-0.675740617777
-0.695155973721
-0.717286299137
-0.742161770367
-0.769080850824
-0.797066959619
-0.825232751204
-0.852371152755
-0.877584937138
-0.90010024632
-0.919710088474
-0.936507406518
-0.950276287234
-0.960897707822
-0.968390413157
-0.972931192938
-0.974882271898
-0.974774781099
-0.973254512821
-0.970910299981
-0.968292696154
-0.965995069849
-0.96461713763
-0.964702902751
-0.966460484573
-0.970132200784
-0.975759442096
-0.983850425504
-0.994919266695
-1.00872068601
-1.02407604236
-1.0366156703
-1.04485315527
-1.04371398638
-1.02943894957
-0.996824373202
-0.950297546626
-0.904291535735
0.00687465307164
0.0583755731086
0.0857392806675
0.101052763817
0.11651146532
0.134950431768
0.155498332224
0.177272382088
0.200031577544
0.223847911616
0.248760745331
0.274660534293
0.301336994269
0.328478717156
0.35584526847
0.383190677999
0.410444127481
0.437560389866
0.464680827441
0.491951313301
0.519692076445
0.548180544305
0.57780166722
0.608891209654
0.641827469801
0.676891871925
0.714358045965
0.754401343819
0.797160451125
0.842683894099
0.890977840816
0.942001793124
0.995683222878
1.05192136934
1.11063369398
1.17171516875
1.23508097286
1.3006590688
1.36839299076
1.43819948225
1.50999542989
1.58364617149
1.65899412009
1.7358147155
1.81384277277
1.89273853608
1.97211332116
2.0515090241
2.13042692667
2.20832965221
2.28460623065
2.35862389001
2.42975398248
2.49747435323
2.56129684157
2.62079777823
2.67554676146
2.72531189106
2.77013010382
2.81018661234
2.84570052524
2.87721438652
2.90492523054
2.93155253384
2.96100396573
2.9923004094
3.02304094681
3.05055074802
3.07213558564
3.08521152617
3.08748756307
3.07705468674
3.05240378673
3.0125751255
2.95718242425
2.88635998894
2.80080818367
2.7017386302
2.59077807727
2.46983155332
2.34091327396
2.20604338303
2.06723287628
1.9263200439
1.78472027068
1.64365455853
1.50440827445
1.36791811498
1.23480715965
1.10542232676
0.979736553801
0.855514417764
0.73018902345
0.608704968022
0.510312992779
0.436815105139
0.371761030559
0.287448947592
0.168988789029
0.0499890532892
-0.050367316134
-0.03142004642
-0.00204132571073
-0.0121719046628
-0.0316857586268
-0.0895455880451
-0.180214902244
-0.275701401309
-0.352202762409
-0.416019954989
-0.468391716256
-0.514475099397
-0.555810667521
-0.593302544998
-0.627653230461
-0.659120236994
-0.687900107386
-0.714150126169
-0.738022028812
-0.759645194516
-0.779097389559
-0.796421259631
-0.811682020489
-0.82500668733
-0.836572962469
-0.846604124192
-0.855196831428
-0.862203022595
-0.867720848564
-0.87194535621
-0.875088041124
-0.877286259258
-0.878658051357
-0.879293298964
-0.87923791828
-0.878532734838
-0.877259651584
-0.875530970352
-0.873397219449
-0.870741218663
-0.867385456321
-0.863419474593
-0.858819273498
-0.853742674524
-0.848357907917
-0.842778622406
-0.837582580956
-0.833477320132
-0.830962525331
-0.830240709086
-0.831608228397
-0.835380818873
-0.841824954231
-0.851128242232
-0.863399382119
-0.878637779354
-0.896720017199
-0.917408879141
-0.94037526305
-0.965199917499
-0.991378686337
-1.01830808169
-1.04535622319
-1.07193933203
-1.09751223024
-1.12153503214
-1.1435422602
-1.16332612872
-1.18102443371
-1.1970740921
-1.21187189537
-1.22541460949
-1.23663336828
-1.24429043883
-1.24637840237
-1.23934258792
-1.2173032252
-1.17534773774
-1.11903256612
-1.06175880943
0.0523402383539
0.13560973755
0.158778171249
0.160548110552
0.166175774388
0.181484763146
0.203761264632
0.230483847938
0.260348912212
0.292604331465
0.326627072861
0.361749188484
0.397365672701
0.432875360057
0.467844734752
0.501889746932
0.534833918666
0.56653690582
0.597060302379
0.6264742401
0.654995306538
0.682831860149
0.710301635267
0.737670199772
0.765271017656
0.793379902673
0.822279570579
0.85218861212
0.883312973258
0.915807071873
0.94980359532
0.985387954763
1.02264910496
1.06165402973
1.10245714525
1.14511574565
1.18970133416
1.23626342366
1.28486411867
1.33554082484
1.38832165248
1.44319183323
1.50011919831
1.55902105976
1.61978860136
1.68225260612
1.74620260894
1.81138687588
1.87751006376
1.94423581981
2.01120154474
2.07799608076
2.14410863545
2.20904434045
2.27229915304
2.33341907174
2.39195452112
2.44745930971
2.49946176363
2.54761593152
2.59158737438
2.63019360595
2.6607545488
2.68189689339
2.69391702565
2.69893581724
2.69927156362
2.69653615856
2.69157138155
2.68439955296
2.67422531643
2.65955722718
2.63842304366
2.60851131898
2.56744922681
2.51317021981
2.44411596957
2.35948306301
2.25939679368
2.14491804494
2.01785447056
1.88059847144
1.73592495654
1.58667677376
1.43544352591
1.28460852402
1.13669228856
0.993020098951
0.852872116325
0.715663767566
0.582599001966
0.462049765493
0.364248621881
0.287083265803
0.214063900051
0.110977037856
-0.0210288873006
-0.136546034692
-0.238272115754
-0.283559826314
-0.270287358108
-0.23148673468
-0.235387025736
-0.270973633937
-0.316271145417
-0.380961311856
-0.462510496338
-0.545917223853
-0.616975172585
-0.675966665595
-0.723903453721
-0.764210779211
-0.798483598758
-0.827786545877
-0.852918181565
-0.87432454048
-0.892385694091
-0.90745271659
-0.919873031959
-0.929966640752
-0.93799944287
-0.944205095942
-0.948826577852
-0.952145740163
-0.954476098098
-0.956167408587
-0.95750127458
-0.958628706462
-0.959647159426
-0.960547024513
-0.961384888038
-0.962534859489
-0.96411076451
-0.966184280557
-0.968891713144
-0.972396422598
-0.976930430761
-0.982722641559
-0.989948119011
-0.998634264834
-1.0087214997
-1.02002204737
-1.03255026277
-1.04619940099
-1.06069469644
-1.07584925042
-1.09161715686
-1.10786031617
-1.12435897881
-1.14091131293
-1.15731467111
-1.1733461208
-1.18879501784
-1.20348098814
-1.21728822467
-1.23016115325
-1.24210748401
-1.25320256635
-1.26359146164
-1.27347061662
-1.28306678026
-1.2925787511
-1.30215311272
-1.31193618014
-1.32208449528
-1.33269842211
-1.34390217374
-1.35593681963
-1.36922525497
-1.38447670957
-1.40248148434
-1.42339877811
-1.4462934733
-1.46914847889
-1.49019941133
-1.50460619891
-1.50607779994
-1.49095424081
-1.46315441938
-1.43772961916
0.0803595695471
0.238369505468
0.26591034044
0.236770394949
0.215426978028
0.21380168819
0.226606525387
0.248961171733
0.277768574019
0.310874603214
0.346773253821
0.384316680279
0.42271992471
0.461348050299
0.4998155822
0.537788563064
0.57513106993
0.611715499523
0.647567525145
0.682702114463
0.717268359899
0.751372568884
0.785216705414
0.818970247438
0.852850871325
0.887025975276
0.921692237428
0.95699389681
0.993081105217
1.03005995307
1.06803932981
1.10711152931
1.14736157066
1.18886871188
1.23173032543
1.27602741392
1.32184571552
1.36926214347
1.41834138934
1.46910735142
1.52155863077
1.57563634088
1.63124535946
1.68823080951
1.74639446528
1.80547892539
1.86518478962
1.92516958507
1.98507737171
2.04454089385
2.10314481535
2.1604631761
2.21604883272
2.26947985605
2.32036902834
2.36839735471
2.41327117034
2.45470651625
2.49236009614
2.5258242539
2.55468480741
2.57885654118
2.59873608487
2.61371315032
2.62231565124
2.62317401234
2.61586803636
2.60064786431
2.57823880526
2.54956355078
2.51550155728
2.47661852103
2.43294429115
2.38391658806
2.32836360723
2.2645783075
2.19064451684
2.10475201025
2.00558512711
1.89266043987
1.76650924261
1.62855616305
1.48117577042
1.32728855384
1.1696813055
1.01086311416
0.852124576532
0.695030142221
0.544073483072
0.405560174553
0.285229560421
0.179548552505
0.0768995360301
-0.0510928574349
-0.196782376034
-0.333490763278
-0.471364585963
-0.517277001794
-0.544675233973
-0.553356146818
-0.527537517073
-0.511197986551
-0.530289957811
-0.568588265761
-0.611764656007
-0.66141925464
-0.714943772835
-0.765832239785
-0.80953334348
-0.846972114212
-0.878587942065
-0.905987912117
-0.930116952201
-0.951660180443
-0.971130351149
-0.98879227934
-1.00485257572
-1.01949524914
-1.03289705265
-1.04519861362
-1.05648103585
-1.06678187733
-1.07614140394
-1.08463681148
-1.09239606263
-1.09955125483
-1.10620215385
-1.11238059354
-1.11813589858
-1.12360003746
-1.12885798045
-1.13390911934
-1.13877218241
-1.14342033805
-1.14787591979
-1.15226682412
-1.15673099336
-1.16140785592
-1.1663116889
-1.17136752519
-1.17651211935
-1.18172701004
-1.18702768733
-1.19243406924
-1.19801333901
-1.20382007393
-1.20986349796
-1.21615535438
-1.22272996665
-1.22965272462
-1.23700831593
-1.2448790188
-1.25335185596
-1.2625159494
-1.27246752874
-1.2832888425
-1.29503532608
-1.30772608854
-1.32133991991
-1.33580740908
-1.35100991396
-1.36675636929
-1.38278109988
-1.39881667373
-1.4146138098
-1.42992661363
-1.44456067885
-1.45852162581
-1.47193897371
-1.48521441775
-1.49879402985
-1.51265416027
-1.52619803316
-1.53809870358
-1.54749272011
-1.55141922088
-1.54662127536
-1.53328594734
-1.51916327821
-1.51855611728
0.0958136315198
0.418406862071
0.419142721212
0.313272262007
0.248933485887
0.226612680215
0.229199342974
0.246114576399
0.27130985093
0.301282830128
0.334072665589
0.368454893587
0.403751757167
0.439454732259
0.475299413972
0.511035188268
0.546567606313
0.581768826131
0.616649955662
0.651181859098
0.685436139787
0.719458072754
0.753370591196
0.787254930898
0.821258601709
0.855489927139
0.890086870084
0.925153971378
0.960813135916
0.9971637039
1.03431461354
1.07235836859
1.11140613847
1.15155952684
1.1929200841
1.23558760771
1.27965619274
1.3251893041
1.37223064648
1.42077585746
1.47077764394
1.5221251966
1.57465844283
1.62815596406
1.68234669379
1.73689453805
1.79141404393
1.84549375652
1.89870115789
1.95059004844
2.00070013239
2.04855131062
2.09364705683
2.13557994351
2.17397989182
2.20845617608
2.2386747566
2.26451894115
2.2860336226
2.30329258735
2.31634202257
2.32497104302
2.32984893083
2.33390281293
2.33720358849
2.33930482958
2.3391699865
2.33548610473
2.32684956804
2.31192223042
2.28951702305
2.2586769762
2.21874375354
2.16926194705
2.10983423021
2.04007276488
1.95949522148
1.86750828833
1.76349212183
1.64721131669
1.51895720414
1.37964969231
1.230866939
1.07424376549
0.912088702975
0.747532797561
0.585601250451
0.432173370196
0.289497669662
0.156592572594
0.0270226550616
-0.117464806749
-0.27299306167
-0.434465701289
-0.582018616567
-0.656222124793
-0.716698721997
-0.731599211365
-0.751011694359
-0.753923304148
-0.736973428195
-0.738247785156
-0.766106282665
-0.805188923927
-0.845156894698
-0.884738251711
-0.921903130823
-0.954817286554
-0.983559535048
-1.00985659775
-1.03409620802
-1.05672658289
-1.07786305199
-1.09756606664
-1.11588102366
-1.13278173765
-1.14826852121
-1.16240056107
-1.17527330391
-1.18698089427
-1.19757991983
-1.20710169241
-1.2155941426
-1.22315520633
-1.22992924197
-1.23606908563
-1.24170772633
-1.24694751764
-1.25188918457
-1.25663860194
-1.26122574699
-1.26560157122
-1.2697809828
-1.27382530851
-1.27781024506
-1.28186700721
-1.28615451639
-1.29080305495
-1.29585768339
-1.30127955625
-1.30697994988
-1.31284828179
-1.31881150047
-1.32489906912
-1.33118317046
-1.33770594915
-1.34447740009
-1.35150212748
-1.35879217381
-1.36637365628
-1.37427668721
-1.38252695676
-1.39114534582
-1.40015373189
-1.40957635385
-1.41943420722
-1.42973782564
-1.44048850929
-1.45167735516
-1.46328358779
-1.47527026645
-1.48756453663
-1.5000535008
-1.51263146896
-1.52520901842
-1.53769983521
-1.55003848301
-1.56227854183
-1.57453595825
-1.58706334179
-1.60009268137
-1.61342670855
-1.62646501485
-1.63798261347
-1.6466954621
-1.6503161788
-1.6466632823
-1.63661131392
-1.62738245194
-1.62776675033
0.127089721997
0.686454205721
0.574909346149
0.356275819193
0.261934846884
0.230816668349
0.229091476947
0.241641054597
0.261253336241
0.284767395516
0.310801010175
0.33855602126
0.367620365478
0.397630824661
0.428392858483
0.459677200413
0.491374084833
0.523320454396
0.555468522755
0.587739497688
0.620140348363
0.652633223563
0.685262572405
0.718045543801
0.751047147666
0.78430812676
0.817911415603
0.851915547805
0.88640945751
0.921465935708
0.957182366933
0.993649768147
1.03096715524
1.06923039153
1.10853919762
1.14897197522
1.19059431516
1.23344156584
1.27751470491
1.32276394392
1.36909164057
1.41633942449
1.46430053207
1.51271811915
1.56129314561
1.60967817958
1.65748457704
1.70429847254
1.7497060316
1.79331692593
1.83470592043
1.87342689222
1.90901766263
1.9412006099
1.9697158058
1.9940084379
2.01366288412
2.0287670169
2.03964142301
2.04662617513
2.04971797881
2.04846530554
2.04290164714
2.03639557442
2.02815194517
2.01922059204
2.01015114523
2.00104450957
1.99140122376
1.98005937425
1.96523378599
1.94465327411
1.91589758741
1.8767579777
1.82549163641
1.76094697906
1.68273564765
1.59106315227
1.48643999793
1.36955617274
1.24098500129
1.10171694833
0.952822826075
0.797171079198
0.638687731371
0.481852575977
0.32885616138
0.183384119341
0.0364280325418
-0.119606803094
-0.275102419044
-0.448510725026
-0.597223938184
-0.692441856108
-0.760101712789
-0.799034088582
-0.849908735162
-0.881502765058
-0.903480682247
-0.907555443994
-0.908953794906
-0.930621710655
-0.969183282127
-1.01135674718
-1.05015001768
-1.08431784517
-1.11350335203
-1.13818990037
-1.15976167892
-1.17987982018
-1.19909589763
-1.21759713024
-1.23527775808
-1.25199634499
-1.26763586361
-1.28209129491
-1.29533094466
-1.30740446761
-1.31841677341
-1.32846575763
-1.33760837721
-1.34587467769
-1.35330091871
-1.35996808549
-1.36598688652
-1.37148227034
-1.37656428307
-1.38132704741
-1.38584863208
-1.39019292742
-1.39437058736
-1.39834956583
-1.4021197063
-1.40571605295
-1.40920862786
-1.41270528154
-1.41634933561
-1.42025899702
-1.42449472156
-1.42902103074
-1.43374998369
-1.43859629452
-1.44351432195
-1.44852389419
-1.45367580155
-1.45901020352
-1.46454960279
-1.47031079077
-1.47631412412
-1.482586622
-1.48915780674
-1.49605388751
-1.50329796579
-1.510913148
-1.51892357497
-1.52734879717
-1.53619824013
-1.54546987674
-1.5551507034
-1.56521290099
-1.57561103075
-1.58626465099
-1.59706115997
-1.60789140311
-1.61866978942
-1.62932854888
-1.63983044393
-1.65024335145
-1.66069395057
-1.6713958902
-1.68253819419
-1.69396113096
-1.70517932359
-1.71518428283
-1.72298567676
-1.72673112002
-1.72517783545
-1.71951183863
-1.71566260865
-1.71826236914
0.203065850848
1.01177481643
0.690454954594
0.371014600452
0.280313168184
0.248466730219
0.24258647475
0.247402801201
0.257009816094
0.270049499413
0.285991514355
0.304339010487
0.324778316663
0.346947040255
0.370616257751
0.395510867646
0.421453397375
0.448222078972
0.475726985229
0.503833485219
0.532476925192
0.561571246366
0.591093163004
0.620993565169
0.651285465886
0.681960385264
0.713055281224
0.744599059998
0.776657426367
0.809291884566
0.842587590783
0.876625148114
0.911499576405
0.947291043736
0.984074555169
1.02190352946
1.06080475818
1.1007645048
1.1417295584
1.1835912639
1.22618873371
1.26930018488
1.31265505523
1.35593902339
1.39880697346
1.44087782251
1.48174287652
1.52098456704
1.55817693075
1.59297579423
1.62501758663
1.65389202145
1.67901422522
1.70039358618
1.71780185101
1.72971213098
1.73527545709
1.73503829409
1.72991896327
1.72054105249
1.70708616157
1.6901478368
1.67500474987
1.66037685344
1.64684613666
1.63480827122
1.62453133718
1.61599002064
1.6087119953
1.60172647082
1.59338004009
1.58123724458
1.56229788864
1.53343199773
1.49173159943
1.43505194846
1.36240902274
1.27399668639
1.17114567876
1.05583532717
0.929509332388
0.79354994979
0.650428832844
0.503034575201
0.356173380451
0.208713506693
0.055726166016
-0.0989838027198
-0.257849508863
-0.433791557941
-0.576151443686
-0.686275817746
-0.751011976906
-0.798010277113
-0.861340320192
-0.92633531956
-0.986474393296
-1.0219674162
-1.04305215022
-1.05772369449
-1.08009726243
-1.11739735045
-1.16185919463
-1.20406750568
-1.24005490696
-1.26957786251
-1.29350069457
-1.31316023054
-1.33010051629
-1.34571351027
-1.36066379925
-1.37519687951
-1.38926941705
-1.40273947864
-1.41545268785
-1.42727482892
-1.43816063502
-1.44814731233
-1.45732653031
-1.46577863235
-1.47353811492
-1.48061039316
-1.48701272291
-1.49279553906
-1.49803875249
-1.50283674576
-1.50728041474
-1.51144852741
-1.51540244229
-1.51918105217
-1.52278310256
-1.52617822152
-1.52934209029
-1.5322886364
-1.53507960652
-1.53782621304
-1.54066298979
-1.54369792828
-1.5469712582
-1.55045064654
-1.55406808182
-1.55776141964
-1.56150276762
-1.5653074088
-1.5692143773
-1.57326104373
-1.57747765639
-1.58189033316
-1.58652791
-1.59142110011
-1.5966024792
-1.60209992827
-1.60793926636
-1.61414261034
-1.62073178453
-1.62772043669
-1.6351124332