/*--------------------------------*- C++ -*----------------------------------*\
| =========                 |                                                 |
| \\      /  F ield         | OpenFOAM: The Open Source CFD Toolbox           |
|  \\    /   O peration     | Version:  v1806                                 |
|   \\  /    A nd           | Web:      www.OpenFOAM.com                      |
|    \\/     M anipulation  |                                                 |
\*---------------------------------------------------------------------------*/
FoamFile
{
    version     2.0;
    format      ascii;
    class       volScalarField;
    location    "21";
    object      alpha;
}
// * * * * * * * * * * * * * * * * * * * * * * * * * * * * * * * * * * * * * //

dimensions      [0 0 -1 0 0 0 0];


internalField   nonuniform List<scalar> 
12225
(
0.391696965519
0.32876821647
0.349020339413
0.348745833258
0.3604736083
0.364662118865
0.37049545435
0.374422874504
0.376476926402
0.375493962879
0.370042596507
0.361498210078
0.354627392906
0.343061820398
0.320141746938
0.290051446746
0.250959121151
0.218311296688
0.222018299939
0.281139783266
0.312516589712
0.307984098218
0.31678826558
0.31904786008
0.32261687207
0.324786076562
0.325912603915
0.325334275311
0.321739738931
0.315382592331
0.308770612431
0.299055537145
0.281785388404
0.259272895404
0.234401493772
0.231806053134
0.372103263158
0.298782856559
0.317275049038
0.315358965427
0.324893082975
0.328094634014
0.332461068406
0.335344916282
0.337282787029
0.337780648728
0.336173021282
0.332347781914
0.326810446077
0.317987812681
0.303506269687
0.285166004154
0.268059351049
0.27261064155
0.304975575776
0.287338688379
0.312924272208
0.307281187122
0.315787651269
0.317427594228
0.320469431046
0.32224829898
0.323395970005
0.323512836393
0.322293428345
0.319589070397
0.315277534065
0.308433044541
0.29810958906
0.286251182803
0.278457392025
0.287659334515
0.339961534074
0.287504730316
0.311812275849
0.304966733906
0.312689602279
0.31340533189
0.315582249838
0.316467778977
0.316702545137
0.315975819894
0.314169820336
0.311209337345
0.306884014579
0.300751064218
0.292823598646
0.285295965357
0.283094307981
0.293207816339
0.325790249954
0.28386720335
0.308554613995
0.300449480179
0.307597253964
0.307612521686
0.309255439106
0.309656752327
0.309473308811
0.30845255951
0.306555433337
0.303751942958
0.299891188936
0.294857522137
0.289187968098
0.285046453801
0.286108000713
0.295692428469
0.329710342952
0.282539869965
0.306105045699
0.297149988963
0.303633266017
0.303006709057
0.304139169282
0.304103618548
0.303575874444
0.302353102555
0.300445536666
0.297864683422
0.29458015989
0.29070363186
0.287009921411
0.285375541005
0.288255609069
0.297011875469
0.327344960761
0.281083243048
0.30396122448
0.294277225528
0.300215130058
0.299072933299
0.299823740941
0.299484560119
0.298774591977
0.297508766297
0.295719564281
0.293458809205
0.290812876377
0.288041417543
0.285983072653
0.286113164365
0.28995667857
0.297867576261
0.326430179898
0.280352667117
0.302215468462
0.292040161324
0.29745488028
0.295874038638
0.29630774633
0.295759127405
0.29497961677
0.293777335815
0.292194245331
0.29032856133
0.288353178583
0.286605329554
0.285854821051
0.287206319515
0.291512819197
0.298703356956
0.325548841119
0.280032472838
0.301018949524
0.290483322268
0.295461357377
0.293520880466
0.293723279245
0.293055321291
0.292275528371
0.29118444031
0.289856474128
0.288435542834
0.287143281098
0.286319548349
0.286603151407
0.288771198547
0.293252667622
0.299772315153
0.325587261798
0.279964066591
0.300647015779
0.289786924666
0.294514000494
0.292370077357
0.292495859506
0.291808093138
0.291085457863
0.290155523528
0.289127142888
0.288148297489
0.287443586385
0.287313560727
0.288261860719
0.290808640895
0.295122876145
0.300901999739
0.329477039836
0.280084159598
0.302081503075
0.290665746777
0.295451841522
0.29321721734
0.293329548701
0.292647648969
0.292023581902
0.291256103275
0.290397506807
0.289616029843
0.289147569766
0.289279753258
0.290398669449
0.29286003305
0.296733406944
0.301722840193
0.332677720614
0.280746308211
0.303529693653
0.291721100573
0.296336455575
0.293938910124
0.293957041498
0.293205008227
0.292499099036
0.291659172587
0.290794751244
0.290079000044
0.28978133969
0.290110912708
0.291383740685
0.293811508452
0.297365810452
0.301785582866
0.336582055254
0.281573367342
0.305185858087
0.292860765464
0.297271409344
0.294533538622
0.294257884208
0.293296421922
0.29248841099
0.291650743948
0.290899368244
0.290421965956
0.290453000104
0.291138082165
0.292644507023
0.295098875711
0.298362710413
0.302289034128
0.34168279006
0.282479995984
0.307272165707
0.294246414636
0.298448021585
0.295307662469
0.294698417849
0.29348868046
0.292561057998
0.291766097242
0.291186030964
0.29101740923
0.291434011788
0.292459184956
0.294174971141
0.29660759541
0.299604171192
0.303025318865
0.347064730036
0.283449980666
0.309661795937
0.295941753097
0.300039137469
0.296553555859
0.29569858748
0.294308370985
0.293333603198
0.292591407222
0.292206206097
0.292290289472
0.293000362614
0.29423547508
0.296038275618
0.298359188839
0.301065186811
0.304059452071
0.351954648275
0.284338855394
0.312096011908
0.297810807472
0.301951551177
0.298262302603
0.297309053098
0.295867744454
0.294924571945
0.294301087899
0.294064727468
0.294338079311
0.29520174796
0.296526828177
0.298285910317
0.30044935935
0.302851527816
0.305495362396
0.356595793499
0.285025114735
0.314428166142
0.299681820251
0.304007080043
0.300256757548
0.299348071731
0.297951172408
0.297100014563
0.296594761269
0.296484346553
0.296872768949
0.297806482451
0.299124828865
0.300788405374
0.302771779713
0.304914522076
0.307250670787
0.359129343931
0.285113064367
0.315678678412
0.300754741012
0.30537370334
0.301768364374
0.301085050121
0.29989175781
0.299253754147
0.298950376721
0.299015382398
0.299530861388
0.300529384268
0.301835600721
0.303416532605
0.305258362975
0.307211875212
0.30931976638
0.353971202222
0.284523479316
0.314132382374
0.300047488663
0.305132065084
0.302182715653
0.302124084055
0.301569015185
0.301505501648
0.301712772261
0.302194768078
0.30301693056
0.304215750458
0.305629198902
0.307228953772
0.309010942084
0.310840912687
0.312752459805
0.349287343239
0.283374188983
0.312295037884
0.298828038243
0.304275601245
0.301848464003
0.302284135816
0.302191777069
0.302568846482
0.30313942155
0.303915272845
0.30493823285
0.306277477111
0.307747655775
0.309358646776
0.311087450864
0.312842337642
0.314629778466
0.347620148037
0.282588443405
0.310452456248
0.297504161648
0.303218635968
0.301251396242
0.302087947723
0.302398078876
0.303117674758
0.303977397868
0.304987577698
0.306168513238
0.307602353982
0.309125992271
0.310737201478
0.312436920102
0.314127460605
0.315854264478
0.339553332315
0.280823720759
0.308737273719
0.29628708424
0.302292582903
0.300757345726
0.301976456929
0.302647937697
0.303682514913
0.304819010643
0.306026209188
0.30736632464
0.308903187582
0.310494833042
0.312116619604
0.313817095161
0.315476869437
0.317139859881
0.346403392152
0.28041546384
0.306567865053
0.294648323661
0.300918731747
0.29983249277
0.301423328679
0.302463736094
0.303803655862
0.305189240609
0.306609678381
0.308104786413
0.309758641417
0.311424478726
0.313119709638
0.314855395159
0.316545946767
0.31820346888
0.319781631612
0.278166595969
0.304998298536
0.29390003074
0.300373145218
0.299707363488
0.301624446135
0.302941299609
0.304518951187
0.306101420042
0.307675859538
0.309261950866
0.310976229004
0.312677390524
0.314374374619
0.316122633724
0.317843250079
0.319520269919
0.362092755592
0.278006979897
0.302032172425
0.291253390581
0.297994971223
0.297702758867
0.299882070078
0.301482712824
0.30330983754
0.305135259634
0.306916180657
0.308679106928
0.310531948221
0.312369727279
0.314194536294
0.316041704979
0.317836564356
0.319446378441
0.269153449298
0.275103338259
0.299556269169
0.290951782258
0.297556655529
0.297855952812
0.300345687155
0.302262567313
0.304372161098
0.306477815459
0.308552947422
0.310468294373
0.312398292977
0.314305045788
0.316139841178
0.317994642151
0.319866549594
0.321907403094
0.412525377833
0.279144226815
0.292000932857
0.284980209299
0.29157836404
0.29200517965
0.29440770645
0.296160410228
0.298047449466
0.299922433737
0.301655337979
0.303271701917
0.304958159431
0.306633267642
0.308289116234
0.31007167285
0.311953901183
0.313473590309
0.15208219388
0.260708576316
0.284710105356
0.278666053216
0.284803168543
0.28587265338
0.288808751929
0.291455834459
0.294466988965
0.297722546347
0.301112397238
0.304289564503
0.307509118247
0.310862380345
0.314267013636
0.317737457704
0.321321433558
0.324795757348
0.329276155391
0.296689974959
0.301428828275
0.299789919032
0.307314965526
0.308287984894
0.310856359013
0.312842927054
0.314860876167
0.316633490209
0.318063953981
0.319399474332
0.320795741302
0.321872708266
0.322634466577
0.323273356914
0.323598106075
0.324341893828
0.476040512707
0.476400416013
0.476586516045
0.476568369496
0.476354536892
0.475979289834
0.475545361823
0.475086215095
0.474628443657
0.474190515881
0.473784397571
0.473417033645
0.473091720941
0.472809322029
0.47256897565
0.472368662405
0.472205776219
0.472076999182
0.471979270416
0.471909667923
0.471864974265
0.471843068745
0.471840774218
0.471857487207
0.471891429926
0.471943145996
0.472011134796
0.472095800564
0.472196652055
0.472314623866
0.472449592061
0.472602187118
0.472772136108
0.472960319601
0.473166620761
0.473390976194
0.473632306336
0.473891392802
0.474167089113
0.474459359241
0.47476683172
0.475088763533
0.475423451776
0.475769248431
0.476124008735
0.476485189719
0.476850176235
0.477215834723
0.477578894641
0.477936391464
0.478285460183
0.478624707738
0.478950996113
0.479260095943
0.479546642712
0.479805506128
0.480031293189
0.480218610236
0.480361940319
0.480456024632
0.480496795162
0.480483035943
0.480413800404
0.480286105087
0.480098999497
0.479855591383
0.479557946169
0.479208175802
0.478809586118
0.478364952228
0.477878530567
0.477354174243
0.476796633372
0.476210125383
0.475599298137
0.474968116517
0.474320528083
0.473661067566
0.47299351484
0.472320490377
0.471644026243
0.470967402981
0.470292661449
0.469622492701
0.468956121255
0.468296203916
0.467642832169
0.466989739251
0.466340660709
0.465692045277
0.465043136191
0.464393755906
0.4637417465
0.46311345868
0.462523417087
0.461933799425
0.461312976032
0.460675691398
0.460023829054
0.459363362224
0.45858893588
0.457721724843
0.45758085215
0.457534697936
0.457318864221
0.456879619437
0.456250357946
0.455905993579
0.455503160652
0.455140210595
0.454843364689
0.454587516065
0.454367471515
0.454161581013
0.453977035016
0.453805364078
0.45364452431
0.453490104455
0.45334150217
0.453199784395
0.453068277767
0.452948212188
0.452838322107
0.452737548153
0.452643092289
0.452553716024
0.452468691838
0.45238752882
0.452309873291
0.452235334671
0.452163552296
0.452094317744
0.452027452682
0.451962937923
0.451900710236
0.451840853008
0.451783379452
0.451727953057
0.451675040873
0.45162478241
0.451578904163
0.451535994498
0.451496862509
0.451463021365
0.451436169753
0.451418119552
0.451409984122
0.451412569847
0.451426581717
0.451452566957
0.451491616263
0.451545253827
0.451615199898
0.45170308578
0.451810680974
0.451939799881
0.452092491181
0.452270992745
0.452478262431
0.452717888448
0.452995207692
0.453315901324
0.453687991262
0.454122720118
0.454635454676
0.455243079108
0.455966448697
0.456822104254
0.457823295954
0.458992803466
0.460343633399
0.461872383156
0.463561411095
0.465369144529
0.467235751846
0.469216908018
0.47126176862
0.473293275541
0.475202893357
0.47669081475
0.476142479133
0.476375661041
0.476274458203
0.475987925623
0.475639958468
0.475283918823
0.4749412529
0.474622241202
0.47433138886
0.47407085437
0.473840942563
0.473642236066
0.473473823896
0.473335304098
0.473225288152
0.473142670519
0.473085629564
0.473052382304
0.473040476257
0.473048442545
0.473073767605
0.473115043657
0.473169958041
0.47323832968
0.473318787117
0.473412187135
0.473517690941
0.473636142923
0.473767762119
0.473913863965
0.474074626427
0.474251035747
0.474443680171
0.474653746769
0.474880903527
0.47512586402
0.475388322953
0.475668568874
0.475966092948
0.476281039505
0.476612432343
0.476959515884
0.477320805864
0.477694568772
0.478078547261
0.478469978869
0.47886548554
0.479261448117
0.479653220507
0.480035617215
0.48040103701
0.480744427064
0.48106288158
0.481353419466
0.48161213749
0.481835157768
0.48201866576
0.4821569424
0.482244045165
0.482277871307
0.482256956043
0.482179044497
0.48204452563
0.481857397993
0.48161663254
0.481319620131
0.480966187919
0.480556691532
0.480092081282
0.479573390626
0.479002548094
0.478381679538
0.477714111318
0.477003406781
0.476253672486
0.475469566616
0.474656202603
0.473818909591
0.472963205356
0.472093119436
0.47121175431
0.470322946416
0.469430862126
0.468537353523
0.467640749897
0.466746309442
0.46586071072
0.464974362593
0.464066461331
0.463155364294
0.462271651308
0.461382083589
0.460447034721
0.459496975186
0.458616993451
0.457812359864
0.45697497126
0.456286812741
0.455605056682
0.454891384211
0.454205589944
0.453389507171
0.452785239419
0.452133849379
0.451533252416
0.450954690712
0.450610571613
0.450346196293
0.45011054314
0.449866514359
0.449619050982
0.449362849829
0.449100774709
0.448836355409
0.448577994955
0.448321263801
0.448066374994
0.447811425603
0.447556206325
0.447303518566
0.447057177923
0.446819018358
0.446589145633
0.446365922507
0.446147444168
0.445932776505
0.445721201068
0.445512268496
0.445305480076
0.44510064388
0.444897666587
0.444696515927
0.444497047035
0.444299127787
0.444102356296
0.443906356049
0.44371049821
0.443514002386
0.443316146272
0.443117194736
0.44291731473
0.442715230509
0.442510535328
0.442303523088
0.44209507045
0.441885610661
0.441674749074
0.441461499332
0.441244639816
0.441023155993
0.440795935255
0.44056176916
0.440319443519
0.440068266949
0.439808373583
0.4395405888
0.439266895425
0.438989895226
0.438713166487
0.438439989901
0.438175358198
0.437924812653
0.437693747786
0.43748620411
0.437305877331
0.437155741864
0.437032249285
0.436943133563
0.436887633275
0.436864169777
0.436874391176
0.436925158721
0.437026064486
0.437179836349
0.437455332723
0.437761041926
0.438120251611
0.438525224306
0.438933998469
0.439363080535
0.475773723352
0.47584895737
0.475814261659
0.475699192523
0.475577574451
0.475477557784
0.475389965387
0.475308328184
0.475228915394
0.475151591238
0.475076905212
0.475006455993
0.474941885013
0.474885092139
0.474837482119
0.474800283155
0.474774002971
0.474758982311
0.474754830543
0.474761109891
0.474776925229
0.474802271178
0.474835621922
0.474877359603
0.474927125528
0.474985682113
0.475052869592
0.475129968237
0.475217442216
0.475316662523
0.475428225435
0.475553597367
0.475693162545
0.475847963941
0.47601834551
0.476204836922
0.476406986404
0.476625370993
0.476859428874
0.47710888954
0.477372833306
0.477650248483
0.477939559161
0.478238874173
0.478545827693
0.478857688279
0.479171154452
0.479482623942
0.479788044657
0.48008306786
0.48036151584
0.480616971035
0.480842516587
0.481033628086
0.481186789779
0.481299177676
0.481368446265
0.481394661085
0.481378702037
0.481319052924
0.48121303884
0.481058498183
0.480850043752
0.480583930979
0.48026191933
0.479883264154
0.479446839152
0.478952561351
0.478402032302
0.477797756944
0.477143540683
0.476443887607
0.475703940375
0.474929112961
0.474124893136
0.47329674563
0.472449908586
0.471589580472
0.470720636832
0.469847758817
0.468973046375
0.468099402477
0.467231212543
0.466371228425
0.465515614887
0.464662718485
0.463826673104
0.463010268929
0.46218957593
0.461354710757
0.460539215205
0.459770576644
0.458973533556
0.458171916684
0.457401348078
0.45666056817
0.455976310825
0.455446556196
0.454843370949
0.454052793092
0.453193621637
0.452578994167
0.45225026628
0.45190827897
0.451718211527
0.451479803377
0.45108677874
0.450522491636
0.449983732796
0.449514592284
0.449080000439
0.448677132867
0.448304802074
0.447960123285
0.447638684417
0.447332661433
0.447038721785
0.446753540621
0.446475870973
0.4462074904
0.445950487837
0.445705293972
0.445470551204
0.445244049365
0.445024666217
0.444811672141
0.44460457055
0.444402960565
0.444206494549
0.444014673577
0.443826799832
0.443642164286
0.443460296989
0.443280897662
0.443103711055
0.442928417242
0.442754458148
0.442581456517
0.44240925959
0.44223897804
0.442070668079
0.441903319067
0.441735738024
0.441568264229
0.441402402646
0.441239317705
0.44107951568
0.44092299382
0.440769871418
0.440620307817
0.440474490244
0.44033240053
0.440194160387
0.440059743057
0.439928896253
0.439801102673
0.439675636822
0.439551344272
0.439427034207
0.439301007082
0.439171559315
0.439036982844
0.438895543796
0.43874535329
0.438585028132
0.438412941162
0.438226465024
0.438025203524
0.437812396577
0.437591089622
0.437366391524
0.437148251314
0.436948898068
0.436792676754
0.436705785468
0.436705203849
0.436809569047
0.437025527024
0.437308146765
0.437505278602
0.475305368504
0.475424192747
0.475685575323
0.475826170449
0.475902844437
0.475962434935
0.47599909298
0.47601315776
0.476006839242
0.475983213465
0.475945442464
0.475897441672
0.475842489374
0.475784079491
0.475724952798
0.47566762125
0.475613818399
0.475564926034
0.475521468248
0.475484470769
0.47545359597
0.47542916555
0.475411034339
0.475399855267
0.47539526882
0.47539868257
0.475410437729
0.475431857514
0.475463750292
0.475507773571
0.475564829169
0.475636260735
0.475722934778
0.475826208772
0.475946023004
0.476083305418
0.476237988006
0.476410195903
0.476599329849
0.476805094345
0.477026274057
0.47726158344
0.477509071924
0.477766415731
0.478030806058
0.478298982445
0.478567118073
0.478831318977
0.479087072452
0.479329532474
0.479554035844
0.479757019775
0.479932782679
0.480076474325
0.480183625928
0.48025049451
0.480273661441
0.480251484561
0.480185379717
0.480078075693
0.479930244117
0.479740805253
0.479507066317
0.479223673515
0.478884120051
0.478484401011
0.478022439235
0.477497143118
0.476908782181
0.47625923638
0.475551916968
0.474791897777
0.473985692173
0.47314023296
0.472262895343
0.471361974859
0.470444848084
0.469517133126
0.468585971
0.46765811421
0.466735813061
0.46581838744
0.464913870072
0.4640315116
0.463163030633
0.462300536302
0.461458070688
0.460668805067
0.459886644096
0.459101194799
0.458346462894
0.457639139244
0.45696703149
0.456309197987
0.455696773121
0.455080020994
0.454399553342
0.453663287648
0.452824443371
0.452026658433
0.451464683609
0.451211867091
0.451029258168
0.450808211844
0.450619549764
0.450299802796
0.44977384244
0.449106952539
0.44845941364
0.447876323034
0.447351250327
0.446885969069
0.44647311157
0.446102575909
0.445764311703
0.445449321245
0.445152516241
0.444869832927
0.444599960671
0.44434375798
0.444102204896
0.443874252777
0.443656938438
0.443448013326
0.443246322477
0.443051177271
0.442861926752
0.442677918822
0.442498458812
0.44232288561
0.442150306492
0.441980144115
0.441812185177
0.44164611036
0.441481524385
0.44131773167
0.441154160234
0.440990659598
0.44082798817
0.440667420566
0.440509223129
0.440351725543
0.440193042363
0.440033221956
0.439873427286
0.439714609763
0.439557058246
0.439400641303
0.439245143226
0.439090318806
0.438935999329
0.438782007749
0.438628490423
0.438475584534
0.438323417927
0.438172136809
0.438022027224
0.437873607799
0.437727531061
0.437584494811
0.437444889312
0.437309135805
0.437177563148
0.437049876313
0.436925331244
0.436802448874
0.436677799307
0.436549202717
0.436414877962
0.436271936662
0.436118890865
0.435957409518
0.435791071112
0.435627466909
0.435484615506
0.435368677001
0.435290562014
0.435250827389
0.435197385527
0.435002750179
0.474763717647
0.475427530033
0.47608242784
0.476322782957
0.476408193567
0.476464118178
0.47649759696
0.476511751406
0.476506234285
0.476482454374
0.476441517982
0.476385891478
0.476318220807
0.476241839899
0.47615946582
0.476074009445
0.475987392905
0.475901811853
0.475818366647
0.475738141905
0.475661638785
0.475590050851
0.475523045178
0.475461802188
0.475406791013
0.475359069957
0.475319255098
0.475289035685
0.475269349065
0.475261846033
0.47526755013
0.475288213055
0.475324479621
0.475377509311
0.475447846595
0.475536201277
0.475642220319
0.475766409456
0.475908117099
0.476066884074
0.476241518102
0.476430742909
0.476632579438
0.476844788212
0.477064560707
0.477288862952
0.477514024723
0.477736205164
0.477951310575
0.478154681971
0.478340146209
0.478503358116
0.478639000594
0.478741949606
0.478808181693
0.478834226774
0.478816287541
0.478751861726
0.478640520702
0.478480843702
0.478271711604
0.478012587868
0.477703317086
0.477344826668
0.476936213961
0.476474936582
0.475958634874
0.475385619129
0.474755946983
0.474070783005
0.473332910871
0.472546645798
0.471718815291
0.470855176555
0.469962369185
0.469048915191
0.468123468078
0.46718942522
0.466250502624
0.465319444135
0.464402489544
0.463489522107
0.462586797863
0.461712461351
0.460854810594
0.459999540133
0.45916677051
0.458375979985
0.457635442114
0.456910394874
0.456183795645
0.455507499418
0.454842822904
0.454206316756
0.453544347355
0.452771790551
0.451939694304
0.451126747352
0.450418227258
0.449949874617
0.449736825208
0.449652252762
0.44950497168
0.449286569369
0.449019788522
0.448619429639
0.448086290048
0.447491838666
0.446911556445
0.446369651224
0.44587969766
0.445447285983
0.445065872999
0.444725834966
0.444417701452
0.444133503877
0.443867741789
0.44361641183
0.443378022679
0.443152745184
0.442940496885
0.442739075768
0.442545278023
0.442357241479
0.442174352167
0.441996447534
0.441823367522
0.441654856246
0.441490534468
0.441330005033
0.441172985635
0.441019178035
0.440868133036
0.440719440553
0.4405725372
0.440426771531
0.44028181045
0.440138038837
0.439997025365
0.439860087057
0.439727375186
0.439596356574
0.439464722563
0.439332081949
0.439199192968
0.439066928355
0.438935597134
0.438805181168
0.438675494265
0.438546302516
0.438417469732
0.438288882122
0.438160398707
0.438031923208
0.437903382861
0.437774834561
0.437646295537
0.437517753162
0.43738931755
0.437261121873
0.4371330025
0.437004795465
0.436876231024
0.436746636338
0.436615340941
0.436481208627
0.436341898711
0.43619638063
0.436044440235
0.435884875285
0.435718507864
0.435548328997
0.435377463047
0.435211440425
0.435060371624
0.434925897045
0.434804317906
0.434679202722
0.43448743158
0.434117384311
0.474274469479
0.476111005869
0.476970302631
0.476965858581
0.476861411502
0.476813193819
0.47679139562
0.476776309116
0.476754147503
0.476718605253
0.476666686947
0.47659962564
0.476518806288
0.476427326942
0.476327416408
0.476222029706
0.476113034058
0.476002630017
0.475891902093
0.475782761002
0.475675508327
0.475571231344
0.47547059045
0.475374662936
0.475283653886
0.475199291932
0.475122368827
0.4750544651
0.474996710496
0.474950913872
0.474918234014
0.47490016424
0.474897689068
0.474912177248
0.474943701778
0.474993139069
0.475060399478
0.475145513161
0.475247703891
0.475366470899
0.475500311404
0.47564779352
0.475806688047
0.475974636722
0.476148714742
0.476325901537
0.476502561718
0.476675267104
0.476840038028
0.476992349107
0.477126304735
0.477237669427
0.477320701331
0.477370205296
0.47738153895
0.477350599314
0.477273638098
0.477151361454
0.476985352308
0.47677659935
0.476525191132
0.476231026006
0.475892178403
0.475506804684
0.475069937647
0.474578057203
0.474027606767
0.473416410341
0.472744841928
0.472015855166
0.471231947917
0.470399055136
0.469526186724
0.468621954949
0.467690453524
0.466741519923
0.46578886998
0.464837982466
0.463885062291
0.462939432701
0.462025537006
0.461108006424
0.460203282354
0.459324516322
0.458482814421
0.457682084796
0.456899756242
0.45614182871
0.455407910268
0.454679740843
0.453998900712
0.453321383607
0.452571860131
0.451809737179
0.451028862879
0.450261911917
0.449575584195
0.449013850509
0.448601054028
0.44837083482
0.448256709826
0.448134747924
0.447933466681
0.447674472631
0.44734763138
0.446921739924
0.446426983413
0.445909115222
0.445400879369
0.444918678869
0.444477566481
0.444082111077
0.44372813183
0.443408849007
0.443117294328
0.442847365931
0.442594392556
0.442355443597
0.442129578747
0.441917244094
0.441718116059
0.44152977166
0.441349597442
0.441176179307
0.441009158454
0.440848483811
0.440694041365
0.44054551613
0.440402409824
0.440264091674
0.440129834438
0.439998707264
0.439869956219
0.439742938224
0.439616928447
0.439491186904
0.439365497108
0.439240889669
0.439119249514
0.439002326564
0.438889842233
0.438779157694
0.438667987634
0.438555686219
0.438442841875
0.438330121159
0.438217853592
0.438106074334
0.437994681526
0.437883711325
0.437773113446
0.437662844115
0.437552838597
0.437442945978
0.437333077002
0.437223120274
0.437113013484
0.437002656571
0.436892031471
0.436781068212
0.436669465717
0.436556915565
0.43644292459
0.436326623497
0.436206986189
0.436082658395
0.435951357223
0.435811906377
0.435663755132
0.435505606104
0.435338410192
0.43516495021
0.434987642532
0.43481042226
0.434641611765
0.434481270596
0.434322329535
0.434142611059
0.433881326729
0.433451543953
0.47402355701
0.477521198976
0.478088687589
0.477505339801
0.477160443301
0.477010021969
0.476934569353
0.476880822515
0.476823188082
0.476753881157
0.47666898501
0.476569715623
0.476457080688
0.476334102574
0.476202490323
0.476065126375
0.475923402279
0.475779743065
0.47563507848
0.475490810779
0.475347676584
0.475207194922
0.475069356091
0.474935633342
0.474806738261
0.47468385819
0.474567831054
0.474460431161
0.474362679455
0.474276289369
0.47420234096
0.474142550501
0.474097595197
0.474068564048
0.474055971782
0.474060375123
0.474081372714
0.474119208371
0.474172976744
0.474241946942
0.474324581154
0.47441940031
0.474524181249
0.474636722284
0.4747543136
0.474874481382
0.474994112932
0.475110408692
0.475220456417
0.47532080639
0.475404871865
0.475469108894
0.47550716726
0.475511833571
0.475476724966
0.47539598171
0.475266380957
0.475091211975
0.474872259148
0.474611471976
0.474309895526
0.473970263422
0.473592876344
0.473175214908
0.472710059463
0.47219341377
0.471619747523
0.470984754097
0.470288791347
0.469535952834
0.4687293738
0.46787192014
0.46697639111
0.466056893583
0.465116422868
0.464160897603
0.463205325052
0.462255570592
0.461302092238
0.46036203886
0.459444056227
0.45856207526
0.457719411385
0.456889778157
0.456082485494
0.455308000562
0.454566990526
0.453858442708
0.453145101201
0.452402812205
0.451674545007
0.450927065103
0.450171223298
0.449452291575
0.448774197204
0.448182633023
0.447704906158
0.447345885112
0.447085855695
0.446911408109
0.446755481609
0.446560930565
0.446316476457
0.446029307351
0.445680570356
0.445267435346
0.444820182542
0.444365525397
0.443921033174
0.443498946023
0.44310949171
0.442755187133
0.442433887333
0.442141624933
0.44187402327
0.441626764942
0.44139643982
0.4411809025
0.440979582368
0.440792543039
0.440618652762
0.440455251381
0.440299629564
0.440150237705
0.4400064085
0.439867849278
0.439734273036
0.439605302434
0.439480426167
0.439359045449
0.439240576741
0.439124552186
0.439010600679
0.438898222737
0.438786716739
0.43867540321
0.43856433311
0.438454926242
0.438349282148
0.438249084244
0.438153560017
0.43806012479
0.43796651244
0.437872091701
0.437777272498
0.437682505755
0.437587982264
0.437493611129
0.43739940439
0.437305312837
0.437211353344
0.437117479274
0.437023638655
0.43692978335
0.436835798154
0.436741534219
0.436646888584
0.436551749031
0.436456061258
0.436359657032
0.436262156666
0.436163134886
0.436062040536
0.43595784522
0.435849394542
0.435735301251
0.435613436661
0.435482588822
0.435342042707
0.435190458093
0.4350284943
0.434858443586
0.434681674883
0.434500291584
0.434320291651
0.434139924607
0.433949926432
0.433725289549
0.433411256581
0.432943097343
0.474140111397
0.479446885312
0.479093478548
0.477810555745
0.477329033187
0.477112805214
0.476981769614
0.476868174585
0.476750418737
0.476623394483
0.476483688597
0.476333584654
0.476173069062
0.476005014148
0.475830170523
0.475651146589
0.475468774396
0.475285124879
0.475100671466
0.474917302262
0.474735169772
0.47455559156
0.474379189718
0.4742070165
0.474039265319
0.473877600665
0.473722629858
0.473575778103
0.473437965906
0.473310788162
0.473195135953
0.473092264379
0.473002922916
0.47292815645
0.472867918879
0.472822830917
0.4727926228
0.472777097504
0.472775351651
0.472786718152
0.472809602613
0.472842639006
0.472883836813
0.472931376586
0.472983218671
0.473037681784
0.473093051942
0.473147929151
0.473200767566
0.473249824135
0.4732898937
0.473314935122
0.473317001909
0.47328458888
0.473206134772
0.473071491431
0.472880275411
0.472639293208
0.472352780551
0.472025950418
0.471665665022
0.471279475825
0.47087225734
0.470433742564
0.469955622021
0.469430158519
0.468849857345
0.468206166923
0.467496179627
0.46672839167
0.465910690558
0.465042565149
0.464134505127
0.463213062535
0.462263823019
0.461300842791
0.460346769972
0.459409420813
0.458500433299
0.457624626571
0.456760804763
0.455920640529
0.455115339603
0.454343419193
0.453606965505
0.452899902388
0.452198907398
0.451483357721
0.45075019259
0.450015050265
0.449309537889
0.44861297078
0.447963070945
0.447373124331
0.446845163047
0.4464012103
0.446045996513
0.44577220925
0.445553086288
0.445366672206
0.445170960381
0.444947649484
0.444693328002
0.444399564276
0.444055459259
0.443672264531
0.443273700577
0.442875879717
0.442489758462
0.442123541642
0.4417830184
0.441469579797
0.441182350085
0.440919221152
0.440677386052
0.440453694465
0.440245532632
0.44005126088
0.439870444355
0.43970288983
0.439547223526
0.439401020463
0.439262063111
0.439129076628
0.439001535489
0.438879266887
0.438762132772
0.438649900995
0.438542185945
0.438438481959
0.438338237735
0.43824092404
0.438145919631
0.438052477769
0.437959628598
0.437866650169
0.437773831679
0.437682810575
0.437595845762
0.437514252867
0.437437057927
0.43736182435
0.437286540935
0.437210652458
0.437134402678
0.437058111115
0.43698179816
0.436905409312
0.436828879211
0.436752201908
0.436675422842
0.43659851987
0.436521453112
0.43644412699
0.436366405241
0.43628810618
0.436209069565
0.436129110333