/*--------------------------------*- C++ -*----------------------------------*\
| =========                 |                                                 |
| \\      /  F ield         | OpenFOAM: The Open Source CFD Toolbox           |
|  \\    /   O peration     | Version:  v1806                                 |
|   \\  /    A nd           | Web:      www.OpenFOAM.com                      |
|    \\/     M anipulation  |                                                 |
\*---------------------------------------------------------------------------*/
FoamFile
{
    version     2.0;
    format      ascii;
    class       volScalarField;
    location    "21";
    object      pa;
}
// * * * * * * * * * * * * * * * * * * * * * * * * * * * * * * * * * * * * * //

dimensions      [0 2 -2 0 0 0 0];


internalField   nonuniform List<scalar> 
12225
(
490.730150748
489.967585663
490.67236946
490.846514114
491.239498182
491.400269976
491.443245874
491.421229999
491.523378797
491.967079241
492.869297043
494.081555349
495.104364963
495.625437615
496.974505764
503.026936125
515.509167334
519.674502274
510.192805906
503.160567945
503.105621349
503.514360446
503.869992299
504.187856567
504.489578982
504.912951695
505.605973205
506.704129837
508.18671812
509.758739537
510.902923259
511.593194936
513.531594827
519.918650438
529.403496175
526.273885627
484.705971134
495.43361082
495.739426313
495.663104859
495.554457948
495.377555051
495.217539979
495.222300872
495.551608898
496.318748383
497.465447801
498.670433753
499.49201573
500.089598192
502.1511768
507.991920614
515.332819562
513.578870302
506.525874302
499.162261544
499.588784428
499.602984118
499.621662723
499.514242174
499.413926342
499.445234934
499.749643652
500.407039056
501.321332025
502.167020924
502.591472824
502.822898802
504.141845706
507.594399444
510.592611994
507.555533797
488.929682665
496.227540653
497.06306302
497.046328031
497.112998674
497.079285524
497.094481113
497.255364503
497.688514077
498.450678028
499.447186033
500.420069071
501.174627325
502.010388505
503.750356593
506.416344679
507.571588246
504.587609028
504.80303836
498.228886458
497.832156405
497.99795695
497.997088635
497.960869377
497.949094532
498.054845276
498.359922561
498.886273811
499.538360573
500.140409932
500.65211961
501.417965802
502.920420059
504.720621887
504.982309938
502.598439545
493.097947548
496.773327223
497.269689947
497.308585307
497.417036284
497.48117816
497.60926681
497.851282286
498.255309486
498.800840667
499.383027377
499.877815312
500.31873656
500.994159145
502.112973717
503.138086699
502.912387406
501.072551568
498.942844245
497.186690279
497.277366829
497.30899585
497.365567428
497.411657712
497.533506249
497.770761033
498.148690362
498.628837946
499.116505633
499.533296983
499.936243277
500.510820399
501.273375335
501.749849341
501.293733686
499.851754325
496.86354859
497.045944532
497.180443012
497.213722682
497.281210343
497.346803193
497.482204974
497.714065594
498.051566575
498.452036186
498.84261543
499.182986722
499.528597827
499.97145783
500.431301219
500.555680839
500.016743481
498.861330731
497.184833176
496.965520547
497.099891193
497.128152446
497.199818539
497.277519514
497.418958155
497.637278662
497.929437661
498.254450837
498.560484033
498.830366967
499.102787245
499.403398218
499.625107576
499.535978139
498.986285161
498.040925456
497.045048495
496.919599313
497.0307086
497.06143273
497.129917339
497.21193202
497.34775638
497.54200419
497.783732163
498.037981192
498.269782615
498.472172294
498.663422786
498.831216403
498.878633778
498.667099967
498.1388462
497.351076397
496.960874332
496.874178551
496.966799793
496.997789704
497.060715909
497.140251435
497.263191381
497.428842108
497.62312324
497.817788453
497.988567239
498.1305019
498.246915246
498.31113384
498.248791409
497.979080636
497.484145289
496.809649678
496.896975192
496.843936183
496.911326514
496.941286518
496.995382179
497.067564044
497.172593828
497.306696815
497.454860601
497.594969099
497.709727519
497.793757786
497.83992283
497.820180431
497.682028928
497.38279914
496.92376785
496.33971062
496.823337341
496.812304124
496.853034222
496.879038496
496.919154081
496.977887585
497.057784873
497.154682177
497.253330627
497.337528157
497.394571257
497.417355314
497.395113939
497.303713961
497.111724568
496.800107901
496.379575647
495.876341867
496.746615739
496.773486774
496.78779029
496.80292779
496.824387652
496.861113533
496.909987439
496.964521694
497.012692036
497.041272609
497.041364949
497.004982763
496.922336214
496.777045601
496.552686048
496.243822992
495.863489783
495.431351798
496.691890601
496.737026553
496.71709689
496.715724633
496.710418825
496.71940825
496.73060378
496.741206897
496.738490028
496.714632151
496.660906206
496.57232248
496.441201063
496.259585153
496.020197324
495.72376815
495.382834716
495.011328619
496.699155743
496.722107941
496.666385152
496.640016759
496.603716921
496.578869537
496.551155498
496.517718813
496.468699761
496.397538001
496.298893182
496.16892139
496.004911459
495.803439583
495.562786037
495.285439453
494.982149932
494.664462717
496.30027385
496.49541223
496.423860445
496.364799646
496.291941661
496.23041341
496.163715013
496.089098162
495.998561867
495.887426345
495.752716346
495.593355428
495.409141876
495.200030217
494.965613801
494.709075163
494.43725244
494.15393506
497.959543754
497.335096486
497.031582497
496.90022766
496.792918149
496.699747012
496.601642849
496.493833187
496.370713216
496.228973389
496.067699758
495.887612977
495.690254027
495.477250974
495.248189544
495.00665371
494.760853485
494.53078989
492.788059852
494.673882385
495.01391469
495.018293072
494.937621469
494.852173715
494.753232569
494.645094848
494.52021396
494.381363513
494.225091093
494.05691146
493.875305664
493.684888815
493.482715082
493.272950115
493.054150466
492.806576541
502.19054673
498.391420416
497.454220428
497.281647689
497.169541067
497.052907838
496.921536596
496.771260571
496.605750995
496.422424541
496.225699538
496.016451008
495.8002986
495.576242272
495.345618246
495.105676562
494.867195287
494.678546131
486.223087869
493.305785525
494.729840368
494.767171387
494.680320719
494.580407005
494.461412271
494.333665923
494.194100431
494.043479248
493.882299503
493.710709459
493.531371112
493.344314089
493.151009099
492.955396926
492.76329079
492.52286357
510.526364497
499.390493294
497.097889601
497.063339307
496.974415529
496.881408419
496.759294645
496.624469263
496.478390213
496.324248893
496.160916719
495.991774579
495.816583763
495.63830673
495.452962754
495.257274908
495.048236736
494.904998369
475.25311787
492.075860667
495.231733817
495.011478728
494.923806244
494.760014302
494.588154522
494.393580048
494.184601478
493.964483069
493.737000317
493.505371301
493.272367222
493.037690806
492.802797996
492.574810704
492.366098299
492.092388677
522.753267717
501.24497195
497.283630412
497.681806832
497.561134579
497.506430986
497.383633017
497.26179008
497.13159322
497.002604638
496.874385201
496.746069003
496.61468201
496.475776459
496.324778629
496.154947633
495.961994691
495.861619477
468.937608784
491.261527138
495.021458331
494.557906152
494.493026083
494.281816295
494.100334151
493.890393847
493.677340536
493.460287072
493.24044911
493.012882118
492.773238756
492.516916965
492.245456294
491.975886738
491.739522165
491.417570182
518.595683041
500.067101488
498.488383319
498.765758092
498.622384202
498.511136395
498.355127412
498.199491011
498.035971402
497.876066728
497.718529731
497.560320315
497.403700781
497.250085571
497.108315014
496.988269026
496.880549552
496.892298501
474.682334742
493.029525622
493.71415217
493.625497331
493.454975145
493.318027744
493.16780865
493.00885496
492.84403859
492.679426095
492.513757365
492.344990561
492.175146771
492.003089261
491.826130923
491.64159614
491.444043218
491.061292672
512.659710534
502.487429957
501.547432748
501.458925482
501.275405996
501.109527351
500.932328149
500.744001822
500.545061266
500.338997949
500.123868822
499.898899474
499.667412748
499.425433908
499.16078693
498.852347245
498.455483551
498.15461607
489.055847726
488.251748186
488.228347706
488.099629472
488.139758279
488.136231489
488.139240372
488.128985154
488.108562359
488.077664158
488.035624732
487.986052211
487.937079188
487.891967266
487.84408177
487.797101354
487.815247395
487.887567434
487.797649059
487.785045595
487.768813693
487.752602835
487.74427281
487.744315026
487.750967208
487.76289485
487.782727588
487.815352472
487.863746958
487.930834443
488.014272088
488.111650139
488.216379918
488.324208449
488.429037906
488.528609451
488.619682728
488.70278307
488.77732092
488.845504334
488.907971667
488.96739065
489.024559758
489.081619446
489.13927412
489.198838269
489.260591812
489.324884557
489.391893691
489.461074986
489.532606272
489.605207123
489.679090201
489.75241345
489.825518196
489.896469776
489.965530516
490.030950172
490.092904453
490.15011508
490.202501602
490.249584329
490.290912018
490.327076907
490.357136674
490.382630219
490.402451272
490.418676453
490.430048103
490.438876517
490.443804778
490.446607608
490.446577161
490.444954365
490.441175833
490.435780748
490.428673333
490.419764436
490.409237776
490.396225703
490.381419611
490.365442371
490.350386043
490.336034523
490.32188405
490.307876586
490.29397637
490.281322324
490.26970284
490.260423522
490.252671102
490.247676093
490.244208862
490.243164965
490.243357745
490.245589913
490.248963243
490.254577546
490.261550067
490.271015726
490.282111209
490.296031253
490.311308793
490.328895848
490.347357844
490.367497947
490.38901879
490.412557235
490.44030937
490.467832126
490.490857425
490.504640058
490.506514263
490.493040698
490.462875088
490.414630409
490.349124298
490.266200904
490.167409881
490.054208529
489.928518526
489.792409755
489.648380863
489.504853471
489.374162966
489.273424384
489.19513786
489.114722973
489.019358645
488.91335878
488.814894084
488.720422377
488.589742935
488.453798298
488.321660297
488.205471813
488.111084986
488.047104287
488.011472014
488.000081828
488.006856139
488.028204074
488.060291989
488.102704042
488.15291066
488.211036131
488.273977254
488.341371053
488.408964433
488.475294707
488.534639797
488.584848619
488.619619533
488.637326852
488.632112082
488.605752593
488.559494084
488.505826124
488.451608439
488.403113614
488.355925578
488.308102811
488.254440884
488.197388093
488.135400732
488.07591542
488.021726141
487.987238606
487.981571246
488.02854666
488.144934939
488.366123487
488.717806203
489.250118661
490.000403119
491.038843468
492.418990682
494.238001278
496.570324927
499.546021798
503.262945446
507.888566972
513.545439406
520.440763094
528.721407082
538.639908451
550.371774276
564.209224893
580.341621125
599.095388294
620.711647138
645.573088469
673.932802079
706.26492679
743.091823798
785.187015393
833.011351331
886.664272417
487.789067686
487.766802225
487.748161328
487.724846306
487.697506812
487.670715097
487.650825809
487.645019383
487.656510566
487.688409756
487.741255444
487.814972023
487.905830311
488.010596283
488.123925738
488.242634361
488.362633249
488.482422684
488.599802725
488.71478924
488.826463871
488.935738194
489.042344762
489.147286498
489.250470687
489.352727566
489.453871922
489.554313595
489.653747937
489.752018619
489.848755386
489.943286617
490.035257584
490.123456705
490.207477141
490.285827179
490.358059645
490.422554754
490.478821538
490.525347864
490.561535379
490.586236313
490.598767644
490.598578742
490.584959526
490.55814346
490.517497029
490.463960517
490.397039472
490.318327757
490.227624491
490.126458321
490.0149022
489.894441096
489.765450505
489.629171078
489.486161772
489.337216517
489.183129149
489.024521074
488.862818775
488.698712103
488.532098431
488.361031629
488.185292031
488.006760422
487.827489967
487.648547662
487.470835042
487.295579735
487.123727339
486.956747206
486.795443051
486.641063034
486.494175556
486.355615672
486.225529722
486.104489098
485.99257083
485.890145653
485.797052129
485.713627484
485.639698897
485.575692224
485.52138801
485.477741195
485.445442697
485.426692143
485.423479002
485.441592089
485.483665447
485.550082494
485.637383772
485.741996014
485.859904277
485.986499822
486.115958034
486.242345272
486.36082447
486.467698596
486.559860463
486.636995113
486.704469728
486.769361991
486.83942606
486.934788146
487.082875654
487.282311625
487.507796587
487.755703907
488.016945587
488.245222905
488.43811034
488.596499664
488.716647958
488.804432761
488.880551157
488.914550354
488.95468596
489.005887392
489.067376903
489.136145561
489.208399206
489.281009354
489.352391476
489.421873799
489.489040095
489.553424272
489.614177504
489.67027922
489.719985569
489.761363215
489.791653441
489.808289568
489.808081821
489.788052758
489.744736745
489.67725366
489.590419443
489.494756036
489.400019551
489.309760147
489.221024261
489.129668027
489.03260175
488.929585414
488.82155525
488.712848735
488.609223989
488.521443618
488.462223899
488.451021458
488.50905267
488.666347475
488.954132888
489.415957479
490.09609606
491.056759212
492.360313233
494.094481646
496.344541695
499.229145658
502.859108095
507.388463944
512.954449975
519.748171757
527.933833813
537.749228359
549.391949803
563.138915287
579.19729913
597.88280109
619.453543982
644.253156253
672.483281893
704.539199271
740.928578586
782.568920157
829.773150481
882.945713821
487.791414521
487.742528588
487.683086711
487.608227623
487.523812025
487.448059606
487.392424908
487.358605781
487.344799591
487.350630142
487.37387292
487.412065635
487.459880014
487.513389479
487.567823703
487.621040596
487.67054688
487.716032088
487.756479104
487.792421136
487.82357542
487.850701461
487.873817
487.893781099
487.910717001
487.925373083
487.937993868
487.949155231
487.959104579
487.968167163
487.976621867
487.984512377
487.992117822
487.999208053
488.006068062
488.012175114
488.017808543
488.022342239
488.025925568
488.027947595
488.028464518
488.02703795
488.023607089
488.018080991
488.010313651
488.00067427
487.988959935
487.975929176
487.961450807
487.94643657
487.93079697
487.915499603
487.900393473
487.886198431
487.872949711
487.861062091
487.850518155
487.841319427
487.833393125
487.826268105
487.819561345
487.813518898
487.809911629
487.809747601
487.812358005
487.816511172
487.822221711
487.829646954
487.838490417
487.8484825
487.859107846
487.870169001
487.881164528
487.891952591
487.901949784
487.910833063
487.918033206
487.923185876
487.925800356
487.925518633
487.921791092
487.914193211
487.902099268
487.884895149
487.861761217
487.832248063
487.796206489
487.753896238
487.70780468
487.6615128
487.620274613
487.585946372
487.558717983
487.540171662
487.530685051
487.531210811
487.539664537
487.553239508
487.566986501
487.575677705
487.571686966
487.551860939
487.516326416
487.461903591
487.394586611
487.342180625
487.326260133
487.343095196
487.395171289
487.507533849
487.663150776
487.819116387
487.977479296
488.117013321
488.255291594
488.354220573
488.439532805
488.47934469
488.498716837
488.515453546
488.538735938
488.570513085
488.610426203
488.656491279
488.708449105
488.765117994
488.826646481
488.891590641
488.959685299
489.028885903
489.098310243
489.165028468
489.226948864
489.279498343
489.318870912
489.338904937
489.336012368
489.308050397
489.260822097
489.203810578
489.147180188
489.093249977
489.039208189
488.980891281
488.915687561
488.843249727
488.765052277
488.685354554
488.610520161
488.551320051
488.521151145
488.5395849
488.628597841
488.818376083
489.140964905
489.640017667
490.360729848
491.365317089
492.7172784
494.504021991
496.812278591
499.759953355
503.459798942
508.063171712
513.708688969
520.582446083
528.851699942
538.74551942
550.463446533
564.277168308
580.418949549
599.212845258
620.934063219
645.91266129
674.390255167
706.751198761
743.319625463
784.510821473
830.456841168
881.449437096
487.767638565
487.579028779
487.491890714
487.427761537
487.355411597
487.300276401
487.27317166
487.267576268
487.276149783
487.297510161
487.3302168
487.373009976
487.421819908
487.474056464
487.526341901
487.57768783
487.626552683
487.673096262
487.716687849
487.757734451
487.795835329
487.831406855
487.8642162
487.894583277
487.922438056
487.948119231
487.971604843
487.993203096
488.012949282
488.031060291
488.047564337
488.062545576
488.076056245
488.08796007
488.098276121
488.106736401
488.113307863
488.117558607
488.119467536
488.118569552
488.114797112
488.107815517
488.097538724
488.083887766
488.066778238
488.046447527
488.022845519
487.996460012
487.967201156
487.935763915
487.902080339
487.86673009
487.829681773
487.791439777
487.751900948
487.711372275
487.669748793
487.627050188
487.58319175
487.538189891
487.491942059
487.443171751
487.390836365
487.334771864
487.27641118
487.216059248
487.154156998
487.091438112
487.028959605
486.967782788
486.908871094
486.853263237
486.801740502
486.755034588
486.713636294
486.677926833
486.648022771
486.624062121
486.606059403
486.594006885
486.58783135
486.587457017
486.592711177
486.603350747
486.61899544
486.639257581
486.663702527
486.692213944
486.724889368
486.7646322
486.81228518
486.866797231
486.926155725
486.988861924
487.055185222
487.125779081
487.20156009
487.282037703
487.365765248
487.448628736
487.525757082
487.592808542
487.640345674
487.658734774
487.656319016
487.644878531
487.615328535
487.571918146
487.539843887
487.541542939
487.564285973
487.626870667
487.737836746
487.889818685
488.080586844
488.255398881
488.404833636
488.514550695
488.600709604
488.67887576
488.757638236
488.839334684
488.92352904
489.00900506
489.095166938
489.181327541
489.267186052
489.351898731
489.43492695
489.515017502
489.591166302
489.661156866
489.722638533
489.771580202
489.803821017
489.8141192
489.799773418
489.76131921
489.704953834
489.641081705
489.57946607
489.521458541
489.463758333
489.401781465
489.333801232
489.258943453
489.179676467
489.099412164
489.025723325
488.968189668
488.941752559
488.964291886
489.059810683
489.256132994
489.587940861
490.095636991
490.827956415
491.84292401
493.208735747
495.007493141
497.332316372
500.294786205
504.015970822
508.63868956
514.311396061
521.209432306
529.510792309
539.427425192
551.169240346
564.994513289
581.172834452
600.024876662
621.862227039
647.036394796
675.878744259
708.768487921
745.824882791
786.817731955
831.753447952
880.531076858
487.696737946
487.245310597
487.210734061
487.249156314
487.246690458
487.243924263
487.255033387
487.270664817
487.285151046
487.301249696
487.321150855
487.346144599
487.37424142
487.404386151
487.434414572
487.463911566
487.49167827
487.517789754
487.541508334
487.562948506
487.581628341
487.597570871
487.610461445
487.620381896
487.627163714
487.630929691
487.631683329
487.629627058
487.624832078
487.617560761
487.607930424
487.596217216
487.58251897
487.567103186
487.550084074
487.531578292
487.511737399
487.490590638
487.468260384
487.444722947
487.420133664
487.39450311
487.368011396
487.3407987
487.313071766
487.285135541
487.25719111
487.229661237
487.202747789
487.176867202
487.152149535
487.129063301
487.107621292
487.088182853
487.070728914
487.055470269
487.042251156
487.031061613
487.021609619
487.013734908
487.007771381
487.004405917
487.003667641
487.004197846
487.004935285
487.00541959
487.005433027
487.004732442
487.003196684
487.000792437
486.997560449
486.993638192
486.989167987
486.984423296
486.979530471
486.974701318
486.970064035
486.965759238
486.961861494
486.95844699
486.955520367
486.953046823
486.950930561
486.949004829
486.947098869
486.945083333
486.943143952
486.941534108
486.942137976
486.947070153
486.959807151
486.978912342
487.002772808
487.029365209
487.058817649
487.091381838
487.128490895
487.171111781
487.222072294
487.282879922
487.354795906
487.435245055
487.516037516
487.594803503
487.674276278
487.739181831
487.768135333
487.764680065
487.74226402
487.701931822
487.649351839
487.651289804
487.72811853
487.875271792
488.062058243
488.23699546
488.382925378
488.49393175
488.579903208
488.653264079
488.721353459
488.788308754
488.854573318
488.921380348
488.988392879
489.056716453
489.1256164
489.19574696
489.265776039
489.335764743
489.40345248
489.46778211
489.525039855
489.572491172
489.604426433
489.617217525
489.607345775
489.576990305
489.531228251
489.480712456
489.432684903
489.388070044
489.341997098
489.291462714
489.233657013
489.169456011
489.099978229
489.03050087
488.967060377
488.921274829
488.9063237
488.942306992
489.051184018
489.263201155
489.610706076
490.136654612
490.887189925
491.923037097
493.309662206
495.131974837
497.480340728
500.469344491
504.217309183
508.870195124
514.573762797
521.506838762
529.844247062
539.800581737
551.582045327
565.451599886
581.682159287
600.601361611
622.524632556
647.8186583
676.838603287
709.95405053
747.192389715
788.105944958
832.618670792
880.442139212
487.596715004
486.753913293
486.893183104
487.110562362
487.195438956
487.241072593
487.278156965
487.303577546
487.318088363
487.328646729
487.339495724
487.352999139
487.368332945
487.385299856
487.402504785
487.419786134
487.436146002
487.451534471
487.465264739
487.477275317
487.487060479
487.494562409
487.49946325
487.501687396
487.501088211
487.497676305
487.491387274
487.482333087
487.470517429
487.456161706
487.439282395
487.420191534
487.398944517
487.375853742
487.350983659
487.324657962
487.296942119
487.268064725
487.238162008
487.207397041
487.175944611
487.143966367
487.111691684
487.079324477
487.04713678
487.015378841
486.984335525
486.954258842
486.925354849
486.897871017
486.871921226
486.847658729
486.825111369
486.804409286
486.785424628
486.768180868
486.752386502
486.737856515
486.724110231
486.710711179
486.696803906
486.681676905
486.665566896
486.649294394
486.633129343
486.617152986
486.60167431
486.587026033
486.573680895
486.562071445
486.552599115
486.545568791
486.541113464
486.539230988
486.539803525
486.542672547
486.547591039
486.554429121
486.563061989
486.573483298
486.585713625
486.599839568
486.615946602
486.634078282
486.654292903
486.676531984
486.700935119
486.727824622
486.757766843
486.794026392
486.836992639
486.886072863
486.937757742
486.989514511
487.03879653
487.084140321
487.124274998
487.16048608
487.196609956
487.237289975
487.286137601
487.344766013
487.414252039
487.497471582
487.590860572
487.681517097
487.766419038
487.838207041
487.872064585
487.840999163
487.776720862
487.76058083
487.817794279
487.941545121
488.099656979
488.253714684
488.388173848
488.498818175
488.591202885
488.672956691
488.749461229
488.823455184
488.896075867
488.968158418
489.040208213
489.11276704
489.185850718
489.259448721
489.332901327
489.405487901
489.475607848
489.541439039
489.599825557
489.647140293
489.678308552
489.689340329
489.678778608
489.648929022
489.606249665
489.560274139
489.517269474
489.476888213
489.434905311
489.388119375
489.334540882
489.274611582
489.210284469
489.1462728
489.089537606
489.050953427
489.044743157
489.090013744
489.209934085
489.433417668
489.794351328
490.333964116
491.100369238
492.151969668
493.556843282
495.396886284
497.765948424
500.77474884
504.546337751
509.222382602
514.95534947
521.91948786
530.298351556
540.30215533
552.147528371
566.089857585
582.403255424
601.400083271
623.392126991
648.721881318
677.728612223
710.754742595
747.889342115
788.869005395
833.670109128
882.103761516
487.447136731
486.145073201
486.608785513
487.023870117
487.163291661
487.230331689
487.275334866
487.30305685
487.317575701
487.326221763
487.332856652
487.339642461
487.346349054
487.353259768
487.359609064
487.365464433
487.370150533
487.373676344
487.375511168
487.375624004
487.373662462
487.369556467
487.363088232
487.354229673
487.342858744
487.328991182
487.312595203
487.293779585
487.272552731
487.249136885
487.223574143
487.19618819
487.167015189
487.13647016
487.104618563
487.071839607
487.038251577
487.004196693
486.969805623
486.935359443
486.901043403
486.867092642
486.833741336
486.801206648
486.769761103
486.739606639
486.711017747
486.684162494
486.659285584
486.636488989
486.61592918
486.597715298
486.581894035
486.568550311
486.557650562
486.549244831
486.543131466
486.539205782
486.537106086
486.536833522
486.538359273
486.541492035
486.54532503
486.549193194
486.55257412
486.554802814
486.555260959
486.553629031
486.550057536
486.545058159
486.53946416
486.534146495
486.529926956
486.527436492
486.527035182
486.528876071
486.532945939
486.53911186
486.547188614
486.557009414
486.568397952
486.581233168
486.595370095
486.610687822
486.627112048
486.644641248
486.663647786
486.684557922
486.70952461
486.74090934
486.781548412
486.83058974
486.885220942
486.943724877
487.003655799
487.063170651
487.119417161
487.171511483
487.218767774
487.25981239
487.29416458
487.321116371
487.341379698
487.365288024
487.410647327
487.497608694
487.634545581
487.785225948
487.883238152
487.896912
487.869523477
487.868701616
487.919784883
488.020004472
488.147478733
488.276776787
488.395677226
488.499538187
488.590928749
488.673400036
488.750959407
488.825045009
488.89779406
488.969611225
489.042135812
489.115163903
489.189628109
489.26447018
489.339811683
489.413706625
489.485298838
489.551290948
489.609242571
489.654008074
489.681900482
489.689061677
489.676131212
489.645853024
489.605502736
489.563188241
489.524140404
489.486607313
489.447317443
489.402548059
489.351413169
489.293630707
489.232302902
489.171364393
489.118977115
489.085145556
489.08530361
489.137552007
489.26627937
489.499219365
489.871519844
490.423151401
491.203578643
492.269843571
493.691466481
495.548907377
497.937746517
500.967120138
504.762585414
509.464524657
515.229859327
522.231774803
530.660874714
540.726711297
552.655418511
566.695714989
583.117394508
602.211922706
624.279094182
649.624005971
678.55021512
711.37778912
748.320511463
789.471751446
834.956273235
884.811808732
487.212995057
485.497775567
486.405358646
486.962142694
487.104404504
487.173476678
487.219352544
487.251145351
487.27027959
487.282494782
487.290577245
487.296430513
487.30031378
487.302853171
487.303814698
487.303486944
487.301558581
487.298165032
487.293049263
487.28627034
487.277634996
487.267175243
487.254772834
487.24043782
487.224110065
487.205834911
487.185574875
487.163442104
487.139424596
487.113726719
487.086343876
487.057573198
487.027447439
486.99630389
486.964198475
486.931506493
486.898295775
486.864890622
486.831404609
486.798097697
486.76510861
486.732643722
486.700872329
486.669956187
486.640090189
486.611399335
486.58409277
486.55826057
486.534088409
486.511655797
486.491112828
486.472514056
486.455944095
486.441457583
486.429021993
486.418676483
486.410277211
486.403735617
486.398560261
486.394222063
486.390164857
486.386850042
486.384768001
486.384290764
486.385346631
486.387481049
486.389896785
486.391792858
486.392755169
486.392792904
486.392362455
486.392104501
486.392713471
486.394724662
486.398549864
486.404395732
486.412317604
486.422299912
486.43426631
486.44814329
486.463889215
486.481565277
486.501026356
486.522305397
486.544877664
486.568839015
486.593742111
486.620500573
486.649986805
486.686009632
486.730287656
486.782431382
486.840768258
486.904326766
486.97309886
487.046566815
487.122449498
487.194981132
487.257206822
487.298447907
487.306628726
487.276560759
487.219989707
487.172201669
487.180035582
487.285210697
487.480347338
487.693529186
487.844870341
487.912173902
487.933668977
487.959163826
488.012232674
488.096261025
488.19975896
488.308282671
488.412890835
488.50979149
488.599184302
488.682739157
488.762184448
488.838768947
488.913646968
488.987616486
489.061504132
489.135607597
489.210181892
489.28481687
489.359064635
489.431658631
489.501121601
489.564747567
489.619425531
489.660682107
489.68478127
489.689719178
489.676398354
489.6487173
489.613435273
489.577613616
489.544435416
489.512092734
489.47733994
489.437179058
489.390407741
489.337370595
489.280770729
489.225239593
489.178496636
489.151288738
489.158470688
489.218908564
489.356251813
489.599041991
489.981519651
490.54456391
491.336632345
492.41588841
493.850765315
495.723152914
498.127558208
501.17500437
504.990293038
509.716691041
515.511541737
522.552143293
531.031117548
541.163299939
553.178136363
567.324837217
583.86458296
603.074648156
625.237710531
650.627134692
679.509934
712.189186605
748.990030762
790.314799491
836.467190738
887.69413193
486.884129567
484.904023364
486.271896866
486.87238295
486.989084243
487.060391387
487.10868069
487.148582566
487.174931253
487.193398524
487.205795663
487.214111517
487.218988302
487.221246266
487.221038313
487.21879866
487.214524829
487.208484198
487.200644888
487.191178197
487.180054955
487.167372198
487.153092632
487.137287604
487.119909432
487.101031931
487.080611786
487.058761908
487.035443031
487.010827559
486.984899017
486.957893009
486.92981203
486.900955802
486.871368291
486.841337353
486.810949911
486.780465057
486.749975515
486.719690396
486.689728496
486.660241841
486.631362863
486.603193371
486.575878559
486.549485638
486.524172457
486.499995395
486.47713635
486.455674342
486.435815515
486.417707105
486.40153754
486.387459601
486.375589727
486.366057945
486.358887387
486.354152936
486.351537476
486.350399274
486.349641398
486.348950698
486.348618421
486.34930808
486.351220767
486.353976695
486.356709251
486.358648559
486.359456248
486.359323713
486.358869437
486.358839616
486.359927079
486.362677618
486.367303297
486.373954877
486.382482287
486.392889193
486.404841728
486.418352704
486.433199819
486.449702121
486.467917423
486.487795471
486.509323212
486.532029657
486.55635803
486.58241096
486.612423276
486.648945538
486.694423097
486.748088847
486.808972909
486.876825636
486.951754227
487.03289944
487.116741865
487.193145973
487.246722612
487.260738221
487.222768558
487.136358402
487.031887692
486.96566213
486.996609416
487.151570695
487.390336915
487.630534791
487.807219893
487.909656218
487.966163332
488.012219774
488.068054526
488.140987818
488.226893203
488.319015187
488.411345142
488.501291501
488.587347609