/*--------------------------------*- C++ -*----------------------------------*\
| =========                 |                                                 |
| \\      /  F ield         | OpenFOAM: The Open Source CFD Toolbox           |
|  \\    /   O peration     | Version:  v1806                                 |
|   \\  /    A nd           | Web:      www.OpenFOAM.com                      |
|    \\/     M anipulation  |                                                 |
\*---------------------------------------------------------------------------*/
FoamFile
{
    version     2.0;
    format      ascii;
    class       surfaceScalarField;
    location    "21";
    object      phi;
}
// * * * * * * * * * * * * * * * * * * * * * * * * * * * * * * * * * * * * * //

dimensions      [0 3 -1 0 0 0 0];
oriented        oriented;


internalField   nonuniform List<scalar> 
24170
(
3.07340135122e-06
1.15006077931e-07
2.98631332002e-06
8.70890945587e-08
2.90611399311e-06
8.02005403583e-08
2.82878643289e-06
7.73297899421e-08
2.75455619255e-06
7.42314715233e-08
2.68354136848e-06
7.1016956361e-08
2.61557352419e-06
6.79688334651e-08
2.55041716148e-06
6.51582454861e-08
2.48782115276e-06
6.25969907911e-08
2.42751890516e-06
6.0303967391e-08
2.36921290103e-06
5.83069652328e-08
2.31256717136e-06
5.66472715912e-08
2.2571837683e-06
5.53845255837e-08
2.20256632978e-06
5.46188998622e-08
2.1480331962e-06
5.45346297881e-08
2.09248764394e-06
5.55480626692e-08
2.0335788589e-06
5.89127700399e-08
7.03402058895e-08
1.96324206941e-06
3.43148885929e-06
1.00767410433e-07
3.42625882646e-06
9.23200690394e-08
3.4191192891e-06
8.73411971962e-08
3.40889132804e-06
8.75596642195e-08
3.39604766256e-06
8.70763960427e-08
3.38122548734e-06
8.58409883193e-08
3.36476304456e-06
8.44324186493e-08
3.34686093628e-06
8.30620370798e-08
3.32764988183e-06
8.18092782204e-08
3.30719952723e-06
8.07559548609e-08
3.28550903193e-06
7.9998798962e-08
3.26250173637e-06
7.96562133441e-08
3.23800429172e-06
7.9883583694e-08
3.21170872429e-06
8.09162957183e-08
3.18308533173e-06
8.31601401447e-08
3.15121711127e-06
8.74191780805e-08
3.11457143986e-06
9.55625769436e-08
1.10399461784e-07
3.07451443955e-06
3.67990531146e-06
8.33801412143e-08
3.68415302928e-06
8.80733647082e-08
3.68659421025e-06
8.49011434104e-08
3.68785670537e-06
8.62989205801e-08
3.68770962471e-06
8.72245759668e-08
3.6863578777e-06
8.71942986556e-08
3.6839138966e-06
8.68772508414e-08
3.68039941951e-06
8.65777855249e-08
3.67580062206e-06
8.64088446808e-08
3.67008041577e-06
8.64772224033e-08
3.66316844418e-06
8.69114410304e-08
3.65495473188e-06
8.78707748686e-08
3.64527463762e-06
8.95643345256e-08
3.63389015815e-06
9.23014670971e-08
3.62046748614e-06
9.65835182169e-08
3.60461307266e-06
1.03274650353e-07
3.5862782301e-06
1.13898813446e-07
1.29453321583e-07
3.56722351695e-06
3.93960991249e-06
6.91596723512e-08
3.9455134376e-06
8.21707753114e-08
3.94876271245e-06
8.16529870023e-08
3.95124971133e-06
8.38135244776e-08
3.95276033258e-06
8.57152266756e-08
3.95338220299e-06
8.65739727534e-08
3.95322374948e-06
8.70368908246e-08
3.95230541839e-06
8.74975256919e-08
3.95060135506e-06
8.81141402172e-08
3.94806359623e-06
8.90163438791e-08
3.94462008142e-06
9.03562263625e-08
3.94017315137e-06
9.23190785786e-08
3.93459564324e-06
9.51432169609e-08
3.9277338165e-06
9.9164705274e-08
3.91943226786e-06
1.0488656132e-07
3.90964324636e-06
1.13065416492e-07
3.89877776201e-06
1.2476619435e-07
1.40386517934e-07
3.88784559635e-06
4.21841763652e-06
5.78702476589e-08
4.22477469272e-06
7.58147141701e-08
4.22813020857e-06
7.82985352927e-08
4.23068711965e-06
8.12580604249e-08
4.23240515324e-06
8.39982256073e-08
4.23328201707e-06
8.56983562231e-08
4.23341272087e-06
8.69070012388e-08
4.23283126047e-06
8.80799722261e-08
4.23152185632e-06
8.94242540475e-08
4.22944689796e-06
9.10920901553e-08
4.22655113068e-06
9.32525892467e-08
4.22276371175e-06
9.61071075334e-08
4.21800226717e-06
9.99051705829e-08
4.21218945948e-06
1.0497794525e-07
4.20529804149e-06
1.1177836287e-07
4.19746092768e-06
1.20903018882e-07
4.18919192597e-06
1.33035634659e-07
1.48333616547e-07
4.18124350239e-06
4.51802600615e-06
4.89324387837e-08
4.52438324818e-06
6.94584160265e-08
4.52788371273e-06
7.47991921277e-08
4.53045608782e-06
7.86870213507e-08
4.5322525705e-06
8.22030042521e-08
4.53322024014e-06
8.47319739235e-08
4.53342427703e-06
8.67041592943e-08
4.53290485001e-06
8.86005942785e-08
4.53165591308e-06
9.06743725563e-08
4.52964975436e-06
9.30993910453e-08
4.5268470087e-06
9.60564897618e-08
4.52320215183e-06
9.97530902046e-08
4.51867342286e-06
1.04434992513e-07
4.51324652405e-06
1.10405829681e-07
4.50698388822e-06
1.18041895992e-07
4.50011349812e-06
1.27774214197e-07
4.49315349576e-06
1.39996242462e-07
1.54691424665e-07
4.48679655793e-06
4.839780176e-06
4.18732366585e-08
4.84584891878e-06
6.33905846963e-08
4.84947447007e-06
7.1174642705e-08
4.85206278679e-06
7.60998184466e-08
4.85390738188e-06
8.03593860158e-08
4.85495046025e-06
8.3689834107e-08
4.85522483319e-06
8.64305831293e-08
4.85476960427e-06
8.90565669035e-08
4.85358721905e-06
9.18574286596e-08
4.85166019544e-06
9.50270114597e-08
4.84896521501e-06
9.87520232838e-08
4.84548229647e-06
1.0323650858e-07
4.84120836955e-06
1.08709352023e-07
4.83618325109e-06
1.15431248388e-07
4.8305340373e-06
1.2369128783e-07
4.824537695e-06
1.33770745225e-07
4.81867996568e-06
1.45854436927e-07
1.59800869998e-07
4.81356806064e-06
5.18516894789e-06
3.62862470736e-08
5.19077641491e-06
5.77840776213e-08
5.19447001519e-06
6.74820865194e-08
5.19709332127e-06
7.34776973024e-08
5.1989929567e-06
7.84608739023e-08
5.20013116483e-06
8.25527889731e-08
5.20051233961e-06
8.60504653938e-08
5.20016837219e-06
8.9401627183e-08
5.1991092667e-06
9.29175272701e-08
5.19732985404e-06
9.68074499525e-08
5.19482500054e-06
1.01257837814e-07
5.19160168571e-06
1.06460767087e-07
5.18769407674e-06
1.12617758372e-07
5.18318800971e-06
1.19937976579e-07
5.1782559802e-06
1.28623768764e-07
5.17319585768e-06
1.38831293439e-07
5.16844995169e-06
1.50599509329e-07
1.6371027544e-07
5.16454055209e-06
5.55577965933e-06
3.18448196709e-08
5.56084534053e-06
5.27192043528e-08
5.56453699196e-06
6.37912916436e-08
5.5672072901e-06
7.0808307705e-08
5.56917316367e-06
7.64958433784e-08
5.57042322116e-06
8.13035218009e-08
5.57094368391e-06
8.55307157342e-08
5.57075760026e-06
8.95883632878e-08
5.56988237266e-06
9.3793360159e-08
5.56832713635e-06
9.83632387783e-08
5.56610666311e-06
1.03478884042e-07
5.56325474657e-06
1.0931318717e-07
5.55983927215e-06
1.16033677574e-07
5.55598240528e-06
1.23795123944e-07
5.55188495542e-06
1.32721379562e-07
5.54784521159e-06
1.42870994932e-07
5.54425538409e-06
1.54189547178e-07
1.66422643651e-07
5.54154050002e-06
5.95333591769e-06
2.82859955034e-08
5.95784749208e-06
4.82085826345e-08
5.96147362593e-06
6.01662019213e-08
5.96419640639e-06
6.80865929142e-08
5.96624847182e-06
7.44449023544e-08
5.96763757082e-06
7.99154957129e-08
5.96834182176e-06
8.48275711469e-08
5.96837600202e-06
8.95552122158e-08
5.96776348205e-06
9.44069320141e-08
5.9665277667e-06
9.96000603035e-08
5.96470319662e-06
1.05304491688e-07
5.96234819602e-06
1.1166907731e-07
5.95955866497e-06
1.18824034061e-07
5.95648265282e-06
1.26871749559e-07
5.95333465165e-06
1.35869903951e-07
5.95040050922e-06
1.45805570007e-07
5.94802218232e-06
1.56566906408e-07
1.67893643818e-07
5.94655121181e-06
6.37969785795e-06
2.54010012645e-08
6.38368994867e-06
4.42173011299e-08
6.38720738711e-06
5.66496173648e-08
6.38998707539e-06
6.53078417352e-08
6.39215337341e-06
7.22794946525e-08
6.39371866e-06
7.83511390041e-08
6.39465923584e-06
8.38878429117e-08
6.39498375655e-06
8.92315782539e-08
6.39472018665e-06
9.46713996147e-08
6.39390552833e-06
1.00415645014e-07
6.39259245439e-06
1.06618414897e-07
6.39086074267e-06
1.13401727288e-07
6.38882769896e-06
1.2085781551e-07
6.38665716089e-06
1.29043039376e-07
6.38456523978e-06
1.37962392992e-07
6.3828159654e-06
1.47555179153e-07
6.38170230268e-06
1.57681254659e-07
1.68093982667e-07
6.38150064049e-06
5.74288133502e-06
2.33551937469e-08
5.74590112271e-06
4.11985736054e-08
5.74877501774e-06
5.37767323659e-08
5.75117453323e-06
6.29093757714e-08
5.75312106129e-06
7.03339731205e-08
5.75461709313e-06
7.68561235066e-08
5.75564319613e-06
8.28626755952e-08
5.75620382689e-06
8.86718852917e-08
5.75632520823e-06
9.45508962677e-08
5.75604740049e-06
1.00694362112e-07
5.75542682217e-06
1.07240053154e-07
5.75454319272e-06
1.14285384662e-07
5.75350647162e-06
1.21895127553e-07
5.75245922402e-06
1.30090144996e-07
5.75157820712e-06
1.38843683941e-07
5.75106614338e-06
1.48067138753e-07
5.75113706476e-06
1.57609116609e-07
1.67234537401e-07
5.75199618244e-06
7.00015436836e-06
2.13569916596e-08
7.00326670825e-06
3.80870809464e-08
7.0064453251e-06
5.0599065384e-08
7.00925808681e-06
6.00975302979e-08
7.01164761707e-06
6.79454545661e-08
7.01359901879e-06
7.49056645257e-08
7.0150903525e-06
8.13723645653e-08
7.01612551048e-06
8.76376876609e-08
7.0167373989e-06
9.39400763253e-08
7.0169804119e-06
1.00452664298e-07
7.01692984465e-06
1.07290430492e-07
7.01668890148e-06
1.14526932245e-07
7.01638937416e-06
1.22193986452e-07
7.01619533735e-06
1.30284293843e-07
7.01629603878e-06
1.38742116003e-07
7.01689807692e-06
1.47464363609e-07
7.01820639613e-06
1.56299882893e-07
1.65041114063e-07
7.02039875597e-06
8.53279609292e-06
1.9408950306e-08
8.53599168504e-06
3.48925143548e-08
8.53949897465e-06
4.7092420935e-08
8.5428167078e-06
5.67806810214e-08
8.54580124837e-06
6.49615395833e-08
8.54840756065e-06
7.23002421783e-08
8.55060807897e-06
7.91724973969e-08
8.55240651531e-06
8.58401684088e-08
8.55384213727e-06
9.25053977432e-08
8.55498286011e-06
9.93119333419e-08
8.55592423207e-06
1.0634942332e-07
8.55678840402e-06
1.13662033764e-07
8.5577270354e-06
1.21255199692e-07
8.55891531773e-06
1.29095187517e-07
8.56054717775e-06
1.37109819291e-07
8.56282054161e-06
1.4518998679e-07
8.56592310583e-06
1.53196315473e-07
1.60953298342e-07
8.57000975401e-06
1.04011568369e-05
1.74720820072e-08
1.04044858343e-05
3.15640551244e-08
1.04084019791e-05
4.31771482593e-08
1.0412376676e-05
5.28062988152e-08
1.04161889994e-05
6.11499639051e-08
1.04197528331e-05
6.87366066164e-08
1.04230303454e-05
7.58956900525e-08
1.04260231366e-05
8.28475862978e-08
1.04287752095e-05
8.97536001698e-08
1.04313655996e-05
9.67213838939e-08
1.04339038386e-05
1.03810799237e-07
1.04365261072e-05
1.11039112418e-07
1.04393924872e-05
1.18388832538e-07
1.04426785927e-05
1.25808721863e-07
1.0446568291e-05
1.33220080665e-07
1.045123894e-05
1.40518905645e-07
1.04568495158e-05
1.47585472506e-07
1.54279175385e-07
1.04635237093e-05
1.26788163425e-05
1.54461516334e-08
1.26824317229e-05
2.79494811405e-08
1.268695376e-05
3.86553118439e-08
1.26918611619e-05
4.78994768789e-08
1.26968727452e-05
5.61384485409e-08
1.27018582201e-05
6.37516821578e-08
1.27067602626e-05
7.09935520875e-08
1.27115752695e-05
7.80330286709e-08
1.27163451503e-05
8.49833579253e-08
1.27211528529e-05
9.19137362047e-08
1.2726110515e-05
9.8852341418e-08
1.27313565382e-05
1.05793782349e-07
1.27370422974e-05
1.12702870682e-07
1.27433299426e-05
1.19522125801e-07
1.27503756739e-05
1.26174532743e-07
1.27583244522e-05
1.32571125286e-07
1.27672940597e-05
1.38616168818e-07
1.44205803908e-07
1.2777368307e-05
1.54554852572e-05
1.31414280621e-08
1.54596999504e-05
2.37349874412e-08
1.54652257044e-05
3.31299327868e-08
1.54715542194e-05
4.15712806586e-08
1.54783608429e-05
4.93322556525e-08
1.54854688158e-05
5.66440199181e-08
1.54927940581e-05
6.36687658332e-08
1.55003159088e-05
7.05113882164e-08
1.55080651126e-05
7.72344677009e-08
1.55161121401e-05
8.38666827736e-08
1.55245574981e-05
9.04075380819e-08
1.55335192014e-05
9.68324313644e-08
1.55431251763e-05
1.03097889538e-07
1.55535014741e-05
1.09146568172e-07
1.55647649269e-05
1.14912284823e-07
1.55770122556e-05
1.20324758471e-07
1.55903146317e-05
1.253149794e-07
1.29812494844e-07
1.56047090602e-05
1.88405426761e-05
1.02364259553e-08
1.8845912376e-05
1.83656880042e-08
1.88531482688e-05
2.58946361744e-08
1.88617181785e-05
3.30019105549e-08
1.88712471691e-05
3.98040432897e-08
1.88815069917e-05
4.63847903815e-08
1.88923742331e-05
5.28024502818e-08
1.89037961968e-05
5.90900313182e-08
1.89157746806e-05
6.52569791005e-08
1.89283490058e-05
7.12929203918e-08
1.89415857534e-05
7.71718718801e-08
1.89555631927e-05
8.28556932133e-08
1.89703643301e-05
8.82979506187e-08
1.89860645752e-05
9.34471692113e-08
1.90027271588e-05
9.82507939376e-08
1.90203947275e-05
1.02658044902e-07
1.90390868876e-05
1.06623490235e-07
1.10104093189e-07
1.90587959416e-05
2.29674379427e-05
6.13653631849e-09
2.29749546559e-05
1.08499236459e-08
2.29851294722e-05
1.57208807576e-08
2.29972946659e-05
2.08376390417e-08
2.30109804001e-05
2.6119534138e-08
2.30258904343e-05
3.1475677689e-08
2.3041845485e-05
3.68487490316e-08
2.30587417559e-05
4.2194728213e-08
2.30765317645e-05
4.74684057772e-08
2.30952043271e-05
5.26214165382e-08
2.31147717063e-05
5.76059364179e-08
2.31352545289e-05
6.23741672579e-08
2.31566734136e-05
6.68804622497e-08
2.31790410598e-05
7.10810707476e-08
2.32023558343e-05
7.49372644238e-08
2.32266002848e-05
7.8415366729e-08
2.32517351229e-05
8.14895064732e-08
8.41381714691e-08
2.32777030182e-05
1.68144097968e-05
2.43315197665e-09
1.68210558099e-05
4.20513886859e-09
1.68298739771e-05
6.90422192527e-09
1.68402517249e-05
1.04612382815e-08
1.68518192606e-05
1.45532251615e-08
1.68643598813e-05
1.89364226843e-08
1.68777314863e-05
2.34780622939e-08
1.68918413253e-05
2.808640716e-08
1.6906631538e-05
3.26787923007e-08
1.69220705719e-05
3.71840214122e-08
1.69381360406e-05
4.15408244817e-08
1.69548138229e-05
4.56981242158e-08
1.69720844193e-05
4.96098411399e-08
1.69899293988e-05
5.32379049222e-08
1.70083171852e-05
5.65490562322e-08
1.7027215103e-05
5.95191659715e-08
1.70465739083e-05
6.21295445815e-08
6.43687151876e-08
1.70663445126e-05
1.46385325991e-05
-1.52962869264e-09
1.46454931028e-05
-2.75383778667e-09
1.46544225933e-05
-2.02406972226e-09
1.46646493789e-05
2.35994136335e-10
1.46758656323e-05
3.33850198401e-09
1.46879087366e-05
6.89481579781e-09
1.47006601135e-05
1.07284608498e-08
1.47140363938e-05
1.47112064749e-08
1.47279866881e-05
1.87303425222e-08
1.47424748147e-05
2.26967583254e-08
1.47574733651e-05
2.6544016853e-08
1.47729535515e-05
3.02185227535e-08
1.47888884025e-05
3.36767412558e-08
1.48052442019e-05
3.68823677547e-08
1.48219877833e-05
3.98072135631e-08
1.48390771065e-05
4.24295786441e-08
1.48564729015e-05
4.47353696852e-08
4.6714865588e-08
1.48741257556e-05
1.27445240382e-05
-5.92051810297e-09
1.27519389696e-05
-1.01678112204e-08
1.27609506738e-05
-1.10342964097e-08
1.27708850119e-05
-9.69706686697e-09
1.27815652252e-05
-7.34015432818e-09
1.27928933941e-05
-4.43194143232e-09
1.28047748536e-05
-1.15147491689e-09
1.28171466552e-05
2.34116825376e-09
1.28299722294e-05
5.90623049832e-09
1.28432245202e-05
9.44611946624e-09
1.28568763764e-05
1.28937207441e-08
1.28708993679e-05
1.61968094037e-08
1.28852628102e-05
1.93148262258e-08
1.28999316101e-05
2.22145206874e-08
1.29148684432e-05
2.48717187001e-08
1.29300314259e-05
2.72672644407e-08
1.29453768223e-05
2.93907237863e-08
3.12353494683e-08
1.29608571695e-05
1.10960111106e-05
-1.10017754039e-08
1.11040171713e-05
-1.81728713831e-08
1.11130182834e-05
-2.00346794242e-08
1.11225181085e-05
-1.91957407872e-08
1.11325452759e-05
-1.73663051799e-08
1.11430568377e-05
-1.49420580329e-08
1.11539789197e-05
-1.20722229041e-08
1.11652737713e-05
-8.95234026335e-09
1.11769229511e-05
-5.74149267595e-09
1.11889080231e-05
-2.53753820768e-09
1.12012070354e-05
5.95911251604e-10
1.12137946142e-05
3.61107498216e-09
1.12266401764e-05
6.47018384818e-09
1.12397122488e-05
9.14458867643e-09
1.12529731646e-05
1.16110204863e-08
1.12663905023e-05
1.38518126819e-08
1.12799299013e-05
1.58510285166e-08
1.75975012593e-08
1.12935693505e-05
9.66133372652e-06
-1.71201202418e-08
9.67001687923e-06
-2.68552861949e-08
9.67884003159e-06
-2.88568222231e-08
9.68777313623e-06
-2.8128025025e-08
9.69705625718e-06
-2.66484400403e-08
9.70665799892e-06
-2.45429912574e-08
9.71653168445e-06
-2.19448579278e-08
9.72667702863e-06
-1.90966091775e-08
9.73709745339e-06
-1.61610481548e-08
9.74778431032e-06
-1.32232049596e-08
9.75871955859e-06
-1.03382533887e-08
9.76988010167e-06
-7.54828544648e-09
9.7812389437e-06
-4.88722091579e-09
9.79276439111e-06
-2.37986896618e-09
9.80442220294e-06
-4.54030328867e-11
9.81617434961e-06
2.10040097837e-09
9.82798246775e-06
4.04381207579e-09
5.77197381017e-09
9.83980870108e-06
8.41306858093e-06
-2.48355562383e-08
8.42238301931e-06
-3.61689306059e-08
8.43080462464e-06
-3.72778198465e-08
8.43911592409e-06
-3.64384285391e-08
8.44766674524e-06
-3.51985101896e-08
8.45639487622e-06
-3.32702407719e-08
8.46528705778e-06
-3.08361955837e-08
8.47437356416e-06
-2.81823502251e-08
8.48366972062e-06
-2.54563968448e-08
8.4931727923e-06
-2.27257862706e-08
8.50287147857e-06
-2.00360932689e-08
8.51274844588e-06
-1.74244834444e-08
8.52278071878e-06
-1.49184479826e-08
8.53293906781e-06
-1.25372594615e-08
8.54318937875e-06
-1.02948781884e-08
8.55349515378e-06
-8.20468305635e-09
8.56382795472e-06
-6.28776249221e-09
-4.58140480793e-09
8.57418165209e-06
7.32718780869e-06
-3.47383417658e-08
7.33683420077e-06
-4.58146233062e-08
7.34459556647e-06
-4.50383987669e-08
7.3522031671e-06
-4.40452729886e-08
7.35993527e-06
-4.2929826947e-08
7.36772347969e-06
-4.10578106254e-08
7.37561253839e-06
-3.87245205408e-08
7.38365474619e-06
-3.62238902241e-08
7.39186826739e-06
-3.36694669385e-08
7.40025284731e-06
-3.11097016982e-08
7.4088000501e-06
-2.85828417679e-08
7.41749543711e-06
-2.61191853217e-08
7.42631847433e-06
-2.37409039193e-08
7.43524197061e-06
-2.14601371163e-08
7.44423081042e-06
-1.92831519548e-08
7.4532403427e-06
-1.72138049199e-08
7.46221653309e-06
-1.52630692081e-08
-1.34705225452e-08
7.47110669513e-06
6.38310947013e-06
-4.77812377924e-08
6.3925279737e-06
-5.52324766136e-08
6.39964020785e-06
-5.21500682865e-08
6.40667902617e-06
-5.10831270083e-08
6.41365945119e-06
-4.99097450781e-08
6.42057420844e-06
-4.79720344873e-08
6.42753096969e-06
-4.56806725885e-08
6.43459379386e-06
-4.32861979019e-08
6.44178446662e-06
-4.08597053789e-08
6.44910828462e-06
-3.84332930206e-08
6.45656263278e-06
-3.60362900764e-08
6.46413715327e-06
-3.36936089776e-08
6.4718167254e-06
-3.14200689376e-08
6.4795794293e-06
-2.92224219783e-08
6.48739465169e-06
-2.70980936317e-08
6.49521637941e-06
-2.50351783605e-08
6.50297525419e-06
-2.30215689594e-08
-2.10779847443e-08
6.51058405957e-06
5.56216633694e-06
-6.44824473628e-08
5.57003963557e-06
-6.31051519064e-08
5.57628859345e-06
-5.83983629037e-08
5.58245954619e-06
-5.72530926972e-08
5.58833275285e-06
-5.57822914797e-08
5.59402306343e-06
-5.3661905829e-08
5.59966239499e-06
-5.13194503101e-08
5.6053082215e-06
-4.89315546021e-08
5.61098679015e-06
-4.65379985966e-08
5.616714249e-06
-4.41601134981e-08
5.62249873514e-06
-4.18202752319e-08
5.62834151359e-06
-3.9536155642e-08
5.63423949357e-06
-3.7317923644e-08
5.64018513277e-06
-3.51677952541e-08
5.64616365595e-06
-3.30764417143e-08
5.65213942782e-06
-3.10109185197e-08
5.65801243485e-06
-2.88936804653e-08
-2.65139712506e-08
5.66344897723e-06
4.84622050442e-06
-8.30950178979e-08
4.84813994824e-06
-6.50238990445e-08
4.84929398183e-06
-5.95516135605e-08
4.84924312951e-06
-5.72011308583e-08
4.84810527514e-06
-5.46437026557e-08
4.84631306129e-06
-5.18691699687e-08
4.84411787639e-06
-4.91236565519e-08
4.84166663608e-06
-4.64798020951e-08
4.83907241839e-06
-4.3943348562e-08
4.83642745883e-06
-4.15145265667e-08
4.83380358721e-06
-3.91957930988e-08
4.83125561322e-06
-3.69880044341e-08
4.82882636378e-06
-3.48885361167e-08
4.82655054276e-06
-3.28917298847e-08
4.8244599269e-06
-3.09856989818e-08
4.82258612852e-06
-2.91368330458e-08
4.82095066727e-06
-2.72577099046e-08
-2.45365444287e-08
4.81897415865e-06
4.11958126731e-06
4.05455742826e-06
3.9950059159e-06
3.93780485846e-06
3.88316120822e-06
3.83129210715e-06
3.7821685157e-06
3.73568876621e-06
3.69174550259e-06
3.6502310798e-06
3.61103532031e-06
3.57404733369e-06
3.53915884507e-06
3.50626714879e-06
3.47528148338e-06
3.44614476662e-06
3.41888727858e-06
3.39435072583e-06
7.77013383275e-08
-7.76465634383e-08
1.07544469004e-07
-2.9792595642e-08
9.20472921295e-08
1.55516046801e-08
2.8113113238e-08
6.39858376827e-08
-1.04072786357e-07
1.322251357e-07
-2.66459215521e-07
1.62411476703e-07
-4.39456222492e-07
1.73015758238e-07
-6.21451542388e-07
1.82010773371e-07
-8.11773410182e-07
1.90335012911e-07
-1.00963711449e-06
1.97876004213e-07
-1.2142456749e-06
2.04619062791e-07
-1.42482721957e-06
2.10592125541e-07
-1.64065282616e-06
2.15834298282e-07
-1.86102920912e-06
2.2038579485e-07
-2.08530554934e-06
2.24283624372e-07
-2.31285766205e-06
2.27560705646e-07
-2.54309645902e-06
2.30244864908e-07
-2.77544779255e-06
2.32359416878e-07
-3.00936476204e-06
2.33922514201e-07
-3.24430505014e-06
2.349482069e-07
-3.47974566503e-06
2.35445839372e-07
-3.71515883669e-06
2.35421282225e-07
-3.95002959071e-06
2.34876319836e-07
-4.1838313386e-06
2.33810344995e-07
-4.41604498991e-06
2.32219783379e-07
-4.64613601829e-06
2.30100064742e-07
-4.87357495975e-06
2.2744534271e-07
-5.0978165265e-06
2.24250870038e-07
-5.31832262925e-06
2.20512795957e-07
-5.53454413112e-06
2.16230839361e-07
-5.74594596458e-06
2.11408251808e-07
-5.95199156468e-06
2.06054653588e-07
-6.15217095905e-06
2.00185642421e-07
-6.34598771969e-06
1.9382542025e-07
-6.53298811982e-06
1.87005979439e-07
-6.71274900025e-06
1.79769088039e-07
-6.88490791017e-06
1.72164244161e-07
-7.04914988786e-06
1.64249879468e-07
-7.20523489346e-06
1.56090123522e-07
-7.35298212784e-06
1.47754849077e-07
-7.49229264472e-06
1.39315375798e-07
-7.62312919776e-06
1.30843807821e-07
-7.74553288735e-06
1.22408202424e-07
-7.85959791361e-06
1.14071915628e-07
-7.96548285434e-06
1.05889016847e-07
-8.0633806792e-06
9.79044672065e-08
-8.1535270692e-06
9.01503774733e-08
-8.23616809624e-06
8.26477762276e-08
-8.31156814266e-06
7.54041794439e-08
-8.37997745995e-06
6.8416694415e-08
-8.44164312602e-06
6.16706654932e-08
-8.49677853496e-06
5.51440022458e-08
-8.54557887454e-06
4.88067109727e-08
-8.58819540469e-06
4.26263322924e-08
-8.62475464228e-06
3.65663985911e-08
-8.6553361361e-06
3.05924183039e-08
-8.67999459925e-06
2.4666850151e-08
-8.69874024504e-06
1.87575581081e-08
-8.71156726739e-06
1.28358214644e-08
-8.71843081693e-06
6.87623323797e-09
-8.71926729058e-06
8.46173715921e-10
-8.71405810196e-06
-5.19600833509e-09
-8.70292888114e-06
-1.11197444824e-08
-8.68608444681e-06
-1.683099841e-08
-8.66381580578e-06
-2.22587600065e-08
-8.63646333773e-06
-2.73384938497e-08
-8.60444022484e-06
-3.20127889563e-08
-8.56819875673e-06
-3.62270513731e-08
-8.5282472044e-06
-3.99411523876e-08
-8.48510477388e-06
-4.31278438748e-08
-8.43931289866e-06
-4.57813924669e-08
-8.39138570424e-06
-4.79120958132e-08
-8.34182207535e-06
-4.95523137302e-08
-8.29105754592e-06
-5.07476904757e-08
-8.23948290454e-06
-5.15610371895e-08
-8.18740102811e-06
-5.20616223625e-08
-8.13505306038e-06
-5.23303180084e-08
-8.08257971311e-06
-5.24500704144e-08
-8.03004671826e-06
-5.25133922433e-08
-7.9774045555e-06
-5.26165699683e-08
-7.92451085016e-06
-5.28713081808e-08
-7.87108275272e-06
-5.34003151471e-08
-7.81671050867e-06
-5.43479169967e-08
-7.76080578111e-06
-5.58732201552e-08
-7.70261902935e-06
-5.81567347937e-08
-7.64119519683e-06
-6.138580957e-08
-7.57540574913e-06
-6.57534244099e-08
-7.50392543781e-06
-7.14377989309e-08
-7.42528423567e-06
-7.86046047301e-08
-7.33785555858e-06
-8.7380575491e-08
-7.23992150355e-06
-9.78743404328e-08
-7.12969075251e-06
-1.10153064667e-07
-7.0053453437e-06
-1.24262277743e-07
-6.86505924438e-06
-1.40196824118e-07
-6.70708032172e-06
-1.57891521025e-07
-6.52980956612e-06
-1.77182168302e-07
-6.33193680431e-06
-1.97788366292e-07
-6.1125691211e-06
-2.19283446527e-07
-5.8713782973e-06
-2.41110376733e-07
-5.60870390588e-06
-2.625921188e-07
-5.32563602469e-06
-2.82985268418e-07
-5.0239912433e-06
-3.01543254485e-07
-4.70624681446e-06
-3.17636746041e-07
-4.37539379368e-06
-3.30715536299e-07
-4.03490683915e-06
-3.4036092983e-07
-3.68843411038e-06
-3.46328405565e-07
-3.33969478015e-06
-3.48628669005e-07
-2.99240168852e-06
-3.47170702726e-07
-2.64988951879e-06
-3.42433296363e-07
-2.31518056803e-06
-3.34616521352e-07
-1.99091991175e-06
-3.24217790885e-07
-1.679735914e-06
-3.11132673565e-07
-1.38282256702e-06
-2.96916901679e-07
-1.10579237181e-06
-2.77004039375e-07
-8.42874293049e-07
-2.62944616585e-07
-6.21081994935e-07
-2.21790944434e-07
-4.35367797819e-07
-1.85745527197e-07
-1.91050408414e-07
-2.44341813946e-07
1.3008321532e-07
-3.21160509951e-07
4.48021903749e-07
-3.17890497695e-07
7.14538717241e-07
-2.66442926969e-07
9.3669341608e-07
-2.22001697268e-07
1.1264280179e-06
-1.89601486375e-07
1.29116262989e-06
-1.64587275786e-07
1.43527108588e-06
-1.44034275887e-07
1.5616912125e-06
-1.26349618419e-07
1.67243548037e-06
-1.10739596525e-07
1.76914572189e-06
-9.66980752227e-08
1.85307839228e-06
-8.39713355313e-08
1.92539255802e-06
-7.23383511086e-08
1.98702328304e-06
-6.16960756876e-08
2.03888914226e-06
-5.19148148974e-08
2.08174684802e-06
-4.29415986015e-08
2.11636337073e-06
-3.46855043447e-08
2.1433799604e-06
-2.71164797712e-08
2.16346213683e-06
-2.01707355395e-08
2.17718969726e-06
-1.38446772781e-08
2.18521451337e-06
-8.14322949735e-09
2.18831611288e-06
-3.25266716999e-09
2.18742195647e-06
7.38673337827e-10
2.18317729787e-06
4.0862008393e-09
2.1759184458e-06
7.11853553142e-09
2.16588681145e-06
9.90829671777e-09
2.15335472992e-06
1.24249964808e-08
2.13860023909e-06
1.46561743765e-08
2.12188797591e-06
1.66222334787e-08
2.10345678391e-06
1.834559256e-08
2.08352385808e-06
1.98520055279e-08
2.06228483671e-06
2.11601723712e-08
2.03991752258e-06
2.22906474061e-08
2.01658330563e-06
2.32579251008e-08
1.99242893361e-06
2.4078862635e-08
1.96758821317e-06
2.47649662683e-08
1.94218275008e-06
2.53303356985e-08
1.91632345022e-06
2.57842803125e-08
1.890110899e-06
2.61388190032e-08
1.86363654378e-06
2.64015369069e-08
1.83698295329e-06
2.65829302861e-08
1.81022434088e-06
2.66896067708e-08
1.78342709242e-06
2.67310416117e-08
1.75664966529e-06
2.67132967538e-08
1.72994297934e-06
2.66456612511e-08
1.70334953162e-06
2.65346600073e-08
1.67690380274e-06
2.6390155573e-08
1.65062999453e-06
2.62205261848e-08
1.62454179444e-06
2.60381546163e-08
1.59863861552e-06
2.58553997731e-08
1.57290404755e-06
2.5689924574e-08
1.54729967266e-06
2.55618056443e-08
1.52176020078e-06
2.54997557018e-08
1.49618191181e-06
2.5540248267e-08
1.47041087832e-06
2.57353777886e-08
1.4442194146e-06
2.61569121799e-08
1.41727488512e-06
2.69118260534e-08
1.38908156471e-06
2.8161092565e-08
1.35888635235e-06
3.01643371878e-08
1.32549281306e-06
3.33627095847e-08
1.2867945695e-06
3.86693334646e-08
1.23901913456e-06
4.77486380923e-08
7.41419055745e-08
1.164856566e-06
-6.07178512859e-08
-1.68794272043e-08
-1.74527453516e-07
8.40493840425e-08
-3.16536171064e-07
1.57580803784e-07
-4.62577585315e-07
2.10041802949e-07
-5.90383625386e-07
2.60043431523e-07
-7.27865365373e-07
2.99903969417e-07
-8.84241575518e-07
3.29402040921e-07
-1.05544143e-06
3.53220071268e-07
-1.23824604842e-06
3.73148531673e-07
-1.43049282365e-06
3.90131401521e-07
-1.63060549313e-06
4.04739693177e-07
-1.83734967709e-06
4.17344282057e-07
-2.04970856168e-06
4.28200291357e-07
-2.26680729824e-06
4.37491913254e-07
-2.4878744476e-06
4.45357092552e-07
-2.71220853906e-06
4.51901675522e-07
-2.93916576739e-06
4.57207704446e-07
-3.1681385235e-06
4.61338636637e-07
-3.3985533719e-06
4.64342555636e-07
-3.62985328988e-06
4.66254547393e-07
-3.86150061615e-06
4.67098275176e-07
-4.09296039778e-06
4.66887559997e-07
-4.32370616884e-06
4.6562754793e-07
-4.55320498887e-06
4.63316246872e-07
-4.78092516974e-06
4.59945945822e-07
-5.00632281695e-06
4.55505171793e-07
-5.2288515579e-06
4.49980557385e-07
-5.44795200759e-06
4.43359297588e-07
-5.66306397703e-06
4.3563159542e-07
-5.8736187805e-06
4.26793671678e-07
-6.07905414738e-06
4.16850493605e-07
-6.27881028448e-06
4.05818829323e-07
-6.47234769297e-06
3.93729754846e-07
-6.65914583284e-06
3.80631238533e-07
-6.83872289684e-06
3.66589459513e-07
-7.01063626604e-06
3.51689823189e-07
-7.17450223037e-06
3.36036370173e-07
-7.32999569925e-06
3.19750478394e-07
-7.47686726151e-06
3.02967665e-07
-7.61493947947e-06
2.85833893043e-07
-7.74411847429e-06
2.68500072241e-07
-7.86438484381e-06
2.51116628347e-07
-7.97579832742e-06
2.33827034242e-07
-8.07848259113e-06
2.16762243295e-07
-8.17262362805e-06
2.00035024369e-07
-8.25844942185e-06
1.83735986825e-07
-8.33622467757e-06
1.67930447401e-07
-8.40622859522e-06
1.52657502123e-07
-8.46874898654e-06
1.37929578894e-07
-8.52406101883e-06
1.23734871526e-07
-8.57242315994e-06
1.10038630297e-07
-8.61406152715e-06
9.67897112763e-08
-8.64917245187e-06
8.39246125943e-08
-8.67790933741e-06
7.13714810187e-08
-8.70039012922e-06
5.90553016987e-08
-8.71668261758e-06
4.68945413405e-08
-8.72682949104e-06
3.48230139633e-08
-8.73085065996e-06
2.27892469793e-08
-8.72874137469e-06
1.07368142546e-08
-8.72047158557e-06
-1.38192957074e-09
-8.70621952431e-06
-1.33947771238e-08
-8.68633315788e-06
-2.50702507043e-08
-8.66109162477e-06
-3.63497357797e-08
-8.63075350995e-06
-4.715653403e-08
-8.59561987611e-06
-5.73803480516e-08
-8.55604046549e-06
-6.69047381911e-08
-8.51242171713e-06
-7.56190091623e-08
-8.46520486413e-06
-8.34304872241e-08
-8.41485827551e-06
-9.02752189297e-08
-8.36185065111e-06
-9.61222132898e-08
-8.3066413795e-06
-1.00978150119e-07
-8.24965447384e-06
-1.04885356712e-07
-8.19127409238e-06
-1.07919543179e-07
-8.1318254175e-06
-1.10181377139e-07
-8.07158009332e-06
-1.11790703479e-07
-8.01074641117e-06
-1.12877017816e-07
-7.94948126566e-06
-1.13576519423e-07
-7.88788163009e-06
-1.14028729815e-07
-7.82599172871e-06
-1.14381848184e-07
-7.76378575438e-06
-1.14798873859e-07
-7.70116217995e-06
-1.15471058751e-07
-7.63790944128e-06
-1.16627278332e-07
-7.57368511188e-06
-1.18545576998e-07
-7.5079734794e-06
-1.21554764239e-07
-7.44006662778e-06
-1.26031659289e-07
-7.36903308527e-06
-1.32383100179e-07
-7.29372298024e-06
-1.4102390503e-07
-7.21277682825e-06
-1.52346098158e-07
-7.12465308716e-06
-1.66685737288e-07
-7.02767921926e-06
-1.84312566086e-07