/*--------------------------------*- C++ -*----------------------------------*\
| =========                 |                                                 |
| \\      /  F ield         | OpenFOAM: The Open Source CFD Toolbox           |
|  \\    /   O peration     | Version:  v1806                                 |
|   \\  /    A nd           | Web:      www.OpenFOAM.com                      |
|    \\/     M anipulation  |                                                 |
\*---------------------------------------------------------------------------*/
FoamFile
{
    version     2.0;
    format      ascii;
    class       volScalarField;
    location    "21";
    object      sensitivity;
}
// * * * * * * * * * * * * * * * * * * * * * * * * * * * * * * * * * * * * * //

dimensions      [0 2 -3 0 0 0 0];


internalField   nonuniform List<scalar> 
12225
(
-4.59462069663
-10.0173913207
-7.61585816252
-8.41822081809
-8.11109845838
-8.16201310352
-8.02630050144
-7.92802818899
-7.85635526
-7.91179735623
-8.13976281907
-8.50494821755
-8.8265889042
-8.93390443636
-9.21927799909
-11.1699410313
-15.9512429839
-18.9416690671
-25.1408717747
-9.79467890601
-12.4731633668
-12.0448560774
-12.5435737095
-12.7876834324
-13.0916434652
-13.4204112858
-13.8455126129
-14.4103706267
-15.1214761271
-15.8812871685
-16.4950464
-16.8785646069
-17.5702159042
-19.8919981403
-23.9314273715
-24.3150398785
8.1646880315
-12.1682756565
-9.36587564479
-10.3883845964
-10.0293773539
-10.10245074
-10.0224306365
-10.0472557477
-10.1635659125
-10.4435873485
-10.8748090086
-11.3544247231
-11.7055509436
-11.9221515739
-12.5818909057
-14.7284652448
-17.9956654203
-18.458582317
-25.9472196885
-7.9458385694
-11.5461955822
-10.6153429004
-11.0384709153
-11.0178579198
-11.1131696569
-11.2181110747
-11.4241166607
-11.7531650134
-12.1842215867
-12.6017843591
-12.8546228583
-12.9709641633
-13.4124997229
-14.7450661166
-16.2768425385
-15.657844948
7.15480490643
-12.4065927837
-8.90744239558
-10.241878629
-9.91565548242
-10.0926585382
-10.1174277241
-10.24792364
-10.4607416689
-10.8053366067
-11.250248622
-11.703882006
-12.0705780013
-12.4236685084
-13.090047762
-14.2245904
-15.0100508746
-14.1159660532
-20.9608847088
-9.33667138331
-10.3820355728
-10.1995980072
-10.3243137259
-10.3702534571
-10.422999881
-10.520142823
-10.6841308875
-10.9339563522
-11.2388834968
-11.531619089
-11.7756987557
-12.0810259759
-12.6693250003
-13.4824551933
-13.8248829227
-13.0001576868
-4.18870056122
-9.92934934778
-9.70653073154
-10.0021910073
-10.0111694107
-10.1273807463
-10.2169494748
-10.364148972
-10.5643147622
-10.8232563931
-11.1022829261
-11.3492214378
-11.5578760478
-11.8303809261
-12.2867268485
-12.785028841
-12.8411929133
-12.1386483479
-11.3034298627
-10.0446151442
-9.75425914912
-9.97280227583
-9.97407358956
-10.0695101913
-10.1486461808
-10.2851083164
-10.4684844296
-10.6965480894
-10.9320447079
-11.1387538354
-11.3249009778
-11.5627672374
-11.890448638
-12.1521427164
-12.0482705475
-11.4591474755
-9.3250077658
-9.79394676088
-9.76081320171
-9.90067449968
-9.92607273902
-10.0128579259
-10.0948976289
-10.222703913
-10.3865759421
-10.5787435641
-10.7690756472
-10.9361381745
-11.0934364162
-11.2821561151
-11.4919411468
-11.5908850301
-11.4095676587
-10.9163168723
-9.66375834946
-9.81408426073
-9.72405171681
-9.85762447574
-9.88163305458
-9.96291693543
-10.0427412104
-10.1594228515
-10.3015948279
-10.45913357
-10.6092827362
-10.7406242725
-10.864622084
-10.9974653783
-11.1082553798
-11.1012645019
-10.8886355693
-10.4731812605
-9.63035376025
-9.76903180563
-9.71844603907
-9.81887441252
-9.84833425709
-9.91899962418
-9.99379388628
-10.0954393237
-10.2140569456
-10.3385972302
-10.4531315583
-10.5514768891
-10.6397835885
-10.7179253462
-10.7518018352
-10.6790918474
-10.4590198308
-10.105333672
-9.61172866687
-9.73524918526
-9.70328750101
-9.77937604516
-9.81096102133
-9.87074803515
-9.93785517634
-10.0233390086
-10.119620408
-10.2158874018
-10.3009049125
-10.3703339453
-10.4256389828
-10.4592857686
-10.4422110218
-10.3356249354
-10.1215348701
-9.81514936261
-9.63594732583
-9.70346273429
-9.69686840475
-9.74672078557
-9.77917382842
-9.82682839567
-9.88430693051
-9.95261685371
-10.0266705545
-10.0963464436
-10.1538614243
-10.1956139938
-10.2194065496
-10.2152225582
-10.1612997526
-10.0351024016
-9.83125038723
-9.56349774352
-9.65547077999
-9.66778274202
-9.68850717881
-9.71025393125
-9.74130863971
-9.77386223186
-9.81814122926
-9.86620147207
-9.91607020268
-9.95821162268
-9.98765760275
-10.0005999644
-9.99320246343
-9.95606025333
-9.87482903651
-9.73853961701
-9.54822528655
-9.31600462826
-9.68306165572
-9.62760844643
-9.67846106657
-9.66898162651
-9.69577100509
-9.71026064702
-9.73797427264
-9.7636345377
-9.78812006549
-9.80288660509
-9.804492934
-9.7895056435
-9.75382242104
-9.69066297073
-9.59186928285
-9.4533301345
-9.27884280135
-9.07828692475
-9.75334800416
-9.59075256799
-9.6721315918
-9.62957581783
-9.64809677294
-9.64231011313
-9.65074301102
-9.65275468735
-9.65181323257
-9.64009691293
-9.61559146375
-9.57522164544
-9.51626806059
-9.43458589194
-9.32667322534
-9.19163777452
-9.03410599013
-8.86191480718
-9.81271803944
-9.5674438599
-9.6536531381
-9.58353972547
-9.58823410929
-9.56142157853
-9.5488589363
-9.52746627448
-9.50226360064
-9.46631963177
-9.41859380853
-9.35714116052
-9.28060901487
-9.18728915103
-9.07595659075
-8.94733205619
-8.80528851005
-8.65593515934
-9.71509356535
-9.4967592211
-9.63623515388
-9.53848186623
-9.52722752785
-9.48009292579
-9.44777028454
-9.40599746856
-9.36050882899
-9.30553518724
-9.24099784681
-9.16589604097
-9.0800139398
-8.98315020143
-8.87516473014
-8.75718741638
-8.63248275095
-8.50513385109
-10.4644234436
-9.67803819006
-9.61061354495
-9.4625871141
-9.42453558223
-9.35980896034
-9.30895356825
-9.24921184011
-9.18570313137
-9.11404971497
-9.03452806567
-8.94780870772
-8.85437277191
-8.75475262542
-8.64904455602
-8.53835037747
-8.42554907843
-8.31849470484
-7.75455849797
-9.04147096682
-9.4961224181
-9.44686747177
-9.43446037823
-9.36819606904
-9.31392900618
-9.24832088439
-9.17850865881
-9.10096422061
-9.01670226385
-8.92562109464
-8.82875405166
-8.72631690429
-8.61846936947
-8.5054865397
-8.38868321275
-8.26121869756
-14.4853648704
-10.0482930898
-9.63457669651
-9.40600245084
-9.37566980892
-9.31809887453
-9.26554882222
-9.20356761082
-9.13731245498
-9.06547253968
-8.98968982856
-8.91158904322
-8.83238772853
-8.75307676907
-8.67373042763
-8.59427581506
-8.51732613317
-8.46336621309
0.21948923966
-8.87405645075
-9.31087250439
-9.5067105598
-9.43386071026
-9.34280292124
-9.25789103523
-9.15746800144
-9.05434160834
-8.94296747698
-8.82523697685
-8.70193542384
-8.57439278206
-8.44233864821
-8.3062848481
-8.16787346961
-8.02960085361
-7.87325025422
-27.988592186
-9.51576957321
-10.2398854198
-9.45837972851
-9.63019192482
-9.57742598132
-9.56469812731
-9.53698491266
-9.50884983165
-9.47883460243
-9.44714078701
-9.41260197169
-9.37600719652
-9.33745400446
-9.29568243662
-9.24792463856
-9.19222577431
-9.15419065095
20.3025802909
-10.778033364
-8.39865618782
-9.75423438043
-9.27435727749
-9.24107836089
-9.08836182956
-8.94893003698
-8.79945154033
-8.64566276823
-8.49091039811
-8.33753430209
-8.18690514319
-8.04028116648
-7.89902986206
-7.76690905847
-7.64996909436
-7.52335758137
-53.6118966209
-6.06061368085
-11.9947522333
-9.37362851292
-10.2120704507
-9.98577260685
-10.0426758049
-10.00884334
-9.99454965582
-9.97170629581
-9.94790456135
-9.92064954682
-9.88927008107
-9.85072967178
-9.80305305567
-9.743256201
-9.66903572635
-9.61809928234
43.9610399065
-16.7309492656
-6.38225114048
-10.2977935033
-8.93414598896
-9.17280305279
-8.92684887277
-8.8175820081
-8.66630473752
-8.52723634181
-8.38702948164
-8.24831162439
-8.1085603702
-7.96664770624
-7.8227494664
-7.68309580365
-7.56095401698
-7.42200319352
-58.2901314797
-1.60848876281
-13.658992176
-9.4519612185
-10.869751569
-10.3867309842
-10.4990252745
-10.4131966737
-10.3843624716
-10.3345648846
-10.2893990177
-10.2392527878
-10.1869425009
-10.1330016613
-10.0806145992
-10.0343954823
-9.99277282216
-9.99020503793
31.8720503329
-16.1515177281
-6.94489152864
-10.035221477
-8.9048029044
-9.11334360302
-8.89941745449
-8.81627641758
-8.69021367257
-8.57992143565
-8.46841935228
-8.36072056624
-8.2559114808
-8.15515884354
-8.05733284342
-7.96120541141
-7.86368481027
-7.70233066886
-36.5446793864
-6.91189536739
-13.1235508371
-10.9610811256
-11.6044306497
-11.3571312523
-11.3852367995
-11.3183627849
-11.2711853128
-11.2094345364
-11.144186402
-11.0695735161
-10.9880558522
-10.8986050266
-10.7965725687
-10.6735431816
-10.5128454138
-10.3696866117
-1.36928830849
-8.99739247741
-5.82014775372
-6.58820915848
-6.16158791166
-6.13756800985
-5.98788731636
-5.87762595692
-5.75758338038
-5.64227922845
-5.52842359114
-5.41764431287
-5.31243366005
-5.21471917769
-5.12273727863
-5.03708889853
-4.98046639653
-4.95841529715
-0.00252662689272
-0.00270770288407
0.00391843780825
0.00970352505847
-0.00389223440556
-0.0330169438264
-0.0545079896475
-0.077848947454
-0.103770112724
-0.133516057927
-0.168901019887
-0.211299052158
-0.261171083392
-0.318070333173
-0.380738908173
-0.447704177166
-0.51740973041
-0.588625201147
-0.66037666321
-0.732163144623
-0.803699632804
-0.874979920906
-0.946096982943
-1.01727081774
-1.08860326342
-1.16032629347
-1.23248774822
-1.30515988621
-1.37815677499
-1.4514148146
-1.52457678396
-1.59738719112
-1.66935141818
-1.74005574419
-1.80887588372
-1.87523931423
-1.93855366377
-1.99816181933
-2.05350366438
-2.10392481284
-2.14899903653
-2.18811514409
-2.22103670853
-2.2472776043
-2.2668347915
-2.27944457652
-2.28524175184
-2.28426591152
-2.27679742445
-2.26307248746
-2.24341913262
-2.21824775532
-2.18771679865
-2.15231014949
-2.11228673363
-2.06807123594
-2.01978271147
-1.96781862892
-1.91230708642
-1.85356227359
-1.79158796923
-1.72686226812
-1.65842142
-1.58708862046
-1.51383751658
-1.43900058078
-1.36276131341
-1.28516881357
-1.20664182386
-1.12743849592
-1.04795343188
-0.968367020632
-0.888901768001
-0.80968827954
-0.73073764651
-0.652112843351
-0.573796010311
-0.49585719217
-0.418445165117
-0.341720027234
-0.265833087069
-0.190937877928
-0.117275092584
-0.0449289544756
0.0261705057791
0.0959739594094
0.164644434371
0.231752280722
0.297194303931
0.359577650509
0.418588438368
0.476096241188
0.533992470491
0.593404210172
0.654955821254
0.718998454757
0.785280031084
0.852572533774
0.91845475962
0.980338150892
1.03781482047
1.09201955844
1.13885027559
1.17461833975
1.20209267349
1.20177545227
1.15051797731
1.07947211976
0.972197381971
0.765988869205
0.575746625279
0.453450581955
0.278727661768
0.047414052284
-0.198672651815
-0.380016500785
-0.158432910427
-0.0601409790895
-0.0133381548065
0.0180157512906
0.0401370875989
0.0564034538888
0.0696066651375
0.0820193828524
0.0954393122701
0.110778186703
0.128661940781
0.149502858913
0.173890977721
0.202388061841
0.235881807624
0.275132852501
0.320666809304
0.37245915062
0.430171369853
0.492730059545
0.559536903574
0.630540851319
0.706823497743
0.789217025627
0.875039936074
0.960699420834
1.04353310873
1.12287516179
1.19948945736
1.27370514333
1.34607706328
1.41658886476
1.48581513893
1.55370039314
1.62091303986
1.6869479043
1.75211925349
1.81491940229
1.87501593482
1.92985218883
1.97887469056
2.01914257076
2.05045197269
2.06967630506
2.07769560662
2.07118754479
2.05022678427
2.00945598312
1.94772360894
1.86605696916
1.7635940642
1.63047997939
1.47199151481
1.29924336409
1.10874677234
0.886355648366
0.445738974877
-0.0574013239848
-0.592902905905
-1.28884670348
-2.43497315987
-3.5445677828
-4.2613723128
-1.11708530776
0.00821324470448
-0.00383165646656
-0.0441517555735
-0.0581637635545
-0.053262910243
-0.0340028516761
-0.00713433976451
0.0221903491006
0.0513232079133
0.0778497412869
0.0996902199349
0.115617780951
0.125399856401
0.129448361739
0.128671519384
0.123988104361
0.116342506626
0.106425524494
0.0948378862166
0.0819751352996
0.068164989154
0.0536086418897
0.0385942864188
0.0233503607111
0.00819746354191
-0.00655166160267
-0.0204588472699
-0.0331514766496
-0.0441161843251
-0.0529407734024
-0.0591100156902
-0.0622503416555
-0.0619003208111
-0.0576901242914
-0.0492507660863
-0.0362587288959
-0.0184270998708
0.00453783412134
0.0328422018947
0.066784366457
0.106513748962
0.152317094849
0.204284617891
0.262653762952
0.327431344501
0.398723278773
0.476442966392
0.560543685124
0.650827712632
0.746987566048
0.848786935083
0.955856237988
1.06787706507
1.18435819686
1.30491488954
1.42900253481
1.55623294476
1.68605721882
1.81801782875
1.95142453662
2.08566133449
2.22046001203
2.35460118291
2.48842048337
2.62167689805
2.75345038078
2.88264852173
3.00851851109
3.13022353655
3.24696689845
3.35788484952
3.4621966977
3.55922283009
3.6483749099
3.7292069486
3.80142488079
3.86485853322
3.91936643929
3.96488081874
4.0014408524
4.02910214322
4.04791340477
4.05781847234
4.0587276165
4.050297654
4.0317852062
4.00182131456
3.95859436729
3.89890500956
3.81866748882
3.71511885127
3.58746414773
3.43677845652
3.26498341803
3.07510102299
2.87119738757
2.65835416906
2.44291439627
2.2331473956
2.0372977922
1.8573776579
1.69077175269
1.54151344339
1.41078847091
1.27399406753
1.12693263683
0.993420993323
0.812445711323
0.586105611165
0.420222469076
0.289792628741
0.0879749902623
-0.117711123058
-0.362451643764
-0.377976722268
-0.400036312428
-0.338449267461
-0.379019725388
-0.43532033889
-0.492881351684
-0.547850400307
-0.598764391682
-0.644298897665
-0.682925804358
-0.713607395527
-0.73580980452
-0.749396645587
-0.754295037316
-0.750434837532
-0.737554737982
-0.715355825334
-0.683617614729
-0.642388268832
-0.592172212604
-0.533893668434
-0.468643847424
-0.397423156275
-0.319830122737
-0.234622360242
-0.142857133553
-0.047116628068
0.0487148424691
0.142185749783
0.232953578124
0.321758233689
0.409161750244
0.495666626952
0.581510314557
0.667148736886
0.752786078643
0.838837704133
0.925065712518
1.01132692959
1.09626784123
1.17877743542
1.25633526009
1.32736194234
1.38880405902
1.43934009155
1.47664826129
1.5010820316
1.5102661124
1.50331229317
1.4758823591
1.42655784375
1.35000289697
1.2272024537
1.04923571068
0.816230791007
0.55666261586
0.268291910379
-0.0386917202467
-0.381252813302
-0.420901862182
-0.476887205457
-0.745791736253
-2.11472380918
-4.06076392529
-6.67643228866
-9.14245244131
-0.0292545889975
-0.063560783881
-0.0541659674455
-0.00934388140173
0.0538303499034
0.119054306875
0.178119006653
0.229996466138
0.274811389126
0.312667461764
0.3438265035
0.369181821982
0.390166619682
0.408294979634
0.424996728831
0.441304137983
0.45801320574
0.475572231325
0.494310308308
0.514309180583
0.535637375079
0.558221101663
0.581971908931
0.606728547511
0.632381285066
0.658738499423
0.685680059478
0.713051138497
0.740780819102
0.768758011864
0.79696375648
0.825350541105
0.853943780344
0.882742174134
0.911816138028
0.941219685275
0.970998948534
1.00124371687
1.03198935307
1.06331746412
1.09520809421
1.12771539104
1.16074366343
1.19427724825
1.22813345976
1.26219345433
1.2962267839
1.33000452556
1.36327011259
1.39576442142
1.42723691167
1.45742141971
1.48617928096
1.51326774607
1.53856088533
1.56188867094
1.58321033032
1.60246018485
1.61967663182
1.6349319108
1.6488088089
1.66154681193
1.67275125487
1.68212093676
1.68997506237
1.69687577642
1.70305235781
1.70880275221
1.7145375196
1.72075639557
1.72791732294
1.73645716069
1.7467503758
1.75913187396
1.77395815859
1.79152927406
1.81212667105
1.8359707521
1.86324927232
1.89414715044
1.92884470833
1.96750007519
2.01026219948
2.05727146875
2.10855416759
2.16372960185
2.22205901237
2.28174194127
2.33961364718
2.39101729234
2.43111443157
2.45653554518
2.46341492086
2.44751548179
2.40479821015
2.33253970292
2.23093534904
2.10389948722
1.95745285228
1.79625279519
1.62514971503
1.45694685948
1.30300796547
1.1495677697
0.996849131041
0.876870169629
0.738505641343
0.556976784769
0.431289971259
0.360402024122
0.175477861097
-0.0250962294212
-0.272369733249
-0.3854767682
-0.338749062154
-0.355129459603
-0.374426416736
-0.434932417956
-0.487071415282
-0.527842487001
-0.560871197583
-0.58864170866
-0.612012758687
-0.630838318292
-0.644964159586
-0.654386736549
-0.659232345865
-0.659524295443
-0.655128323449
-0.645651203983
-0.630594468281
-0.609520165764
-0.58222156593
-0.548514476548
-0.508456657287
-0.462283543337
-0.410050411759
-0.351087870868
-0.28414098836
-0.209311204412
-0.129243053462
-0.0478516165438
0.0332071299345
0.113698020318
0.194321753847
0.275600732229
0.357938995252
0.441422711431
0.52633518824
0.61268811853
0.700713028564
0.78996344956
0.880086391636
0.969567868352
1.0571357276
1.14013761429
1.21670718578
1.28360912264
1.33918667601
1.38058641669
1.40732693621
1.41678256866
1.40876415327
1.38030281131
1.32984018809
1.25181603874
1.13434189377
0.96611113346
0.740852447837
0.449503651174
0.0882432999492
-0.319154923678
-0.757434315719
-0.999513764041
-1.1158090099
-1.16145091013
-1.23423474002
-1.58839579395
-2.64360034302
-4.02030086267
-0.0626651239053
-0.0258581136543
0.0441001942173
0.12140201912
0.195907341121
0.255547914129
0.299772152169
0.334495102137
0.3639719538
0.389989216003
0.413370114851
0.435043854242
0.456183368461
0.47780131584
0.500708269898
0.525296989016
0.551813921836
0.58024510152
0.610600660752
0.642799469517
0.676822411895
0.712587787209
0.750111138182
0.78934899046
0.830289619242
0.87290532281
0.917175929409
0.963036753427
1.01042286573
1.05922955756
1.10934172099
1.16058379398
1.21278889913
1.26575414556
1.31925780954
1.37306907954
1.42696974072
1.48073849376
1.53415170968
1.58704382824
1.63921860055
1.69056165446
1.74091382453
1.79020642813
1.83832444586
1.88522738679
1.93084446693
1.97518028199
2.01822294719
2.05996159072
2.10044785376
2.13971509873
2.17781709511
2.21478707788
2.25072210661
2.28564546378
2.31971600812
2.35300649895
2.38562513782
2.4177796355
2.44953656769
2.48141978049
2.51348379472
2.54573668061
2.57775064668
2.60929778857
2.64007454845
2.66960571188
2.69726361457
2.72244113457
2.74452748504
2.76296623009
2.77730752501
2.78721037506
2.79246299207
2.79301085849
2.78894232591
2.78042783172
2.76773822744
2.75121482351
2.7312336505
2.70817923869
2.68243630635
2.65437804749
2.62429877286
2.59239674829
2.5586229732
2.5228798654
2.48396063841
2.44000100313
2.39011544084
2.33408012481
2.2715904889
2.20142425551
2.12163770675
2.03012987474
1.92476967223
1.80316554642
1.66236706664
1.50262870084
1.33251257512
1.16186277649
0.982280544858
0.797693893509
0.653990323379
0.527921294814
0.363112355823
0.25210401034
0.220205996049
0.159422845938
-0.0264197273471
-0.155165024328
-0.318808818566
-0.373049971315
-0.394111548026
-0.4717233827
-0.548372293917
-0.629358218587
-0.697867402924
-0.754343631592
-0.801848111952
-0.842363653383
-0.876265717166
-0.903337519774
-0.923264789036
-0.936008276986
-0.941545074309
-0.939904016393
-0.930955289007
-0.914523924283
-0.890386661563
-0.858434867019
-0.818772800992
-0.771669982505
-0.717592057505
-0.657201213059
-0.590887531239
-0.518480844351
-0.439433107925
-0.354430791958
-0.266850600592
-0.17999491439
-0.0953739093005
-0.0125792643789
0.0691499607637
0.150481338084
0.231801938603
0.313398282502
0.395530341636
0.478447992062
0.56228248545
0.646856962989
0.731642201428
0.815448898856
0.89674349342
0.973203776917
1.04254380274
1.10188485865
1.14907208862
1.18156033866
1.19821581333
1.19702404327
1.17826263081
1.14094626221
1.0841507661
1.00476800484
0.895592411541
0.747399791558
0.550491647045
0.265625224805
-0.124725501511
-0.601184812538
-1.15578540946
-1.63156607581
-2.02414883672
-2.18954419249
-1.386602964
-0.106270202673
0.976076402653
2.30220598816
-0.0504750537352
0.161242863879
0.260934444789
0.297918928183
0.320811890763
0.331780461491
0.336655088519
0.342971430211
0.353662028598
0.368175993962
0.385377285503
0.404700019802
0.426205355422
0.450043921338
0.476431745736
0.505367451693
0.536869765222
0.570809551242
0.607141462866
0.645717081099
0.686501108063
0.72939946659
0.774362464823
0.82131498945
0.870214615712
0.92097698837
0.97351836605
1.02774500411
1.08353600305
1.14075506536
1.1992322287
1.25878769634
1.31920094722
1.38021682218
1.44158441129
1.5030088103
1.56418345198
1.62479836635
1.68453735062
1.7430851268
1.80012050451
1.85535383084
1.90848447755
1.95926212823
2.00743271303
2.05280305981
2.09520097831
2.13449519233
2.17059068406
2.20344133285
2.23299068216
2.25920987352
2.28208585324
2.3015801407
2.31766958123
2.33031866568
2.33954715319
2.34534385949
2.34767902852
2.34690480023
2.34347220216
2.33687324498
2.32729186888
2.31545941737
2.30216359632
2.28805845399
2.27373311487
2.25977181463
2.24667612509
2.2348521965
2.22456795589
2.21597810623
2.20909381071
2.20383154853
2.20006388432
2.19761837187
2.19632995862
2.19605756112
2.19670649705
2.19822757247
2.20061318308
2.20384712845
2.20788119041
2.2125574478
2.2175160636
2.2220008386
2.22493047365
2.22436789956
2.21761157938
2.20075751329
2.17046717847
2.12538348806
2.06513955525
1.99018444658
1.90139810262
1.79934546387
1.68361304664
1.55264171541
1.4061923593
1.24784680911
1.07811203745
0.887721402196
0.682914583269
0.501015618449
0.343225798886
0.155361946517
-0.00596697687099
-0.0473685308092
-0.0718986219871
-0.133023211478
-0.213504163405
-0.309242918974
-0.427889479669
-0.493508308368
-0.560560933253
-0.650197802643
-0.730883986303
-0.802047739641
-0.859416678559
-0.904972709803
-0.941605998504
-0.971336444336
-0.994863969517
-1.0123504381
-1.02381911283
-1.02941326707
-1.02924804105
-1.02342398752
-1.01187609141
-0.994404522099
-0.970645612146
-0.940316017181
-0.903357960757
-0.859965635385
-0.810364121145
-0.754821693791
-0.693286063186
-0.625216323399
-0.550126744978
-0.46882237957
-0.384788945292
-0.300917558274
-0.218109391802
-0.136018551981
-0.0540295581516
0.0282596793228
0.111089997994
0.194512043922
0.278652681565
0.363518804912
0.449134122999
0.535100477711
0.620808699307
0.704885295984
0.785759053225
0.861046646676
0.928511798725
0.985337993309
1.02949052716
1.05857483192
1.07158644733
1.06654718847
1.04374895629
1.00238140148
0.941695676691
0.8590269908
0.748864490802
0.603995471113
0.417945277629
0.148717813989
-0.229360399089
-0.700456939666
-1.26685916064
-1.80313009139
-2.31429097514
-2.6135078918
-1.68337466195
0.228503971738
2.33258770959
5.18715445761
0.0210472597639
0.519230693252
0.528312210372
0.429466288109
0.366251033141
0.327089331663
0.305578848025
0.299619285036
0.306264902854
0.32138273549
0.342033004726
0.366577664696
0.394369075823
0.425050303944
0.458528284263
0.494637279125
0.533343245395
0.574510599185
0.618117811662
0.664079750241
0.712379164528
0.762945471055
0.81576061796
0.870751732679
0.92783754175
0.986919831235
1.04785530711
1.11047988238
1.17456960858
1.2398878286
1.30613467297
1.37297955967
1.44005648148
1.50697307267
1.57330396976
1.63860863147
1.70246656916
1.76443985407
1.82413150672
1.88117296243
1.93524788079
1.98609590948
2.03352340989
2.07741161963
2.11771588357
2.15446743082
2.18776066282
2.21775833102
2.24464420877
2.26861797738
2.28987560359
2.30859109903
2.32487201413
2.33880187322
2.35039880211
2.35974279192
2.36685305422
2.37180274107
2.37472566632
2.37570473214
2.37541617645
2.37323854857
2.36908043823
2.36264331916
2.3538703735
2.34273732906
2.32919612133
2.31321760511
2.29478721584
2.27396105055
2.25086269758
2.22572050918
2.19887661684
2.17078197554
2.14195118328
2.11296989399
2.08444643465
2.05694948303
2.03097757562
2.00692355367
1.98505885319
1.96547598568
1.94816744595
1.93299602746
1.91972000901
1.90793826807
1.89680351941
1.88522919733
1.87066788526
1.84957034115
1.8189027619
1.77646547919
1.72111254821
1.65181046755
1.56769469264
1.46829003954
1.35434225709
1.2274762175
1.08889855582
0.936860347554
0.762936353538
0.572395483838
0.392753853487
0.227762314272
0.0297967669249
-0.157078599053
-0.258930290742
-0.293468751547
-0.330432085333
-0.368330833162
-0.427248170092
-0.518562933359
-0.615657710517
-0.690533221511
-0.770386081526
-0.855157961752
-0.930436280707
-0.995190203686
-1.04858891757
-1.09187979184
-1.12672838526
-1.15401451759
-1.1741131783
-1.18706234115
-1.19312219729
-1.19254660662
-1.18570495838
-1.17276158245
-1.15378805301
-1.12858188326
-1.0969179725
-1.05860525572
-1.0138163447
-0.962791117128
-0.905887215376
-0.843264471571
-0.775020012164
-0.700916454629
-0.62091547436
-0.53641934337
-0.450787820207
-0.366436633253
-0.283655430492
-0.202021926489
-0.12095216077
-0.0400102098573
0.0410464349089
0.122334166
0.203976687952
0.286054619021
0.368556686876
0.451165667264
0.533208343001
0.613430519643
0.690159161979
0.761191915492
0.824196320548
0.876671666264
0.916500874177
0.941700557192
0.951065921372
0.942804686805
0.916239344263
0.870135785926
0.80277989675
0.711468850361
0.590682414419
0.435669248923
0.246023612628
-0.00553863506033
-0.341431900848
-0.748384520093
-1.23425312278
-1.68807247259
-2.15503469517
-2.52553474952
-1.97605915609
-0.4292704844
1.42971547615
4.19234826236
0.157628486646
1.01086736983
0.760268720672
0.482939610468
0.356764002312
0.295416924363
0.267813774422
0.259764940126
0.265770556267
0.280710031121
0.301754472835
0.327258068073
0.35646158733
0.388839049563
0.424142430588
0.462089195071
0.50255463248
0.545354462861
0.590413871963
0.637599540552
0.686858469947
0.738095537732
0.791231616844
0.84617015304
0.902799745738
0.96098505435
1.02054964396
1.08130470762
1.14300022441
1.20536625155
1.26807293383
1.33077092186
1.39305849319
1.45449866799
1.5146545404
1.57305463255
1.62925121202
1.68280681595
1.73334874903
1.78054433698
1.82416291602
1.8640553965
1.9001928082
1.93264384933
1.96158647243
1.98727854154
2.01003801905
2.03019907014
2.04807713614
2.06394355593
2.07797092008
2.0902247879
2.10064869979
2.10909031907
2.11530765106
2.11905581262
2.12004060186
2.1179899124
2.11267664308
2.10430851303
2.09195576587
2.07564268038
2.05588308066
2.03331646123
2.00863317036
1.98254726745
1.95572068657
1.92861370265
1.90144468908
1.87421449543
1.84678137992
1.81898671703
1.79073128642
1.76207150826
1.73325574492
1.70471581601
1.67703331436
1.65087714754
1.62689590171
1.60563300004
1.5874375299
1.57241820907
1.56048053718
1.55130352539
1.54442564105
1.53901300292
1.5339548635
1.52740919814
1.51654568924
1.49756541431
1.46672306916
1.4221100623
1.36271603441
1.28815056197
1.19851356852
1.09444585977
0.977620871367
0.848527326135
0.704915877909
0.549218522218
0.388830656875
0.23686528022
0.0933049884498
-0.0612094918654
-0.242924495535
-0.348429174443
-0.407746394562
-0.476533383273
-0.534105009641
-0.588994013718
-0.667040093156
-0.758528147798
-0.842407830835
-0.915032468155
-0.987831725621
-1.05759559814
-1.1180929426
-1.16846102062
-1.20869068665
-1.23986589212
-1.26336639687
-1.28016234518
-1.29090493145
-1.2960187375
-1.29589855527
-1.29081372077
-1.28092037594
-1.26615133923
-1.24626672156
-1.22083486637
-1.18943284379
-1.15170610433
-1.10770564017
-1.05750049231
-1.00125747176
-0.939140527024
-0.871164847397
-0.797359860267
-0.718050864524
-0.634950194292
-0.550909578371
-0.467673412017
-0.385472416731
-0.303916211045
-0.222549977145
-0.141015253649
-0.0591748252915
0.0230182781034
0.105585692529
0.188549033184
0.271795232274
0.354970322099
0.437310169172
0.517556435105
0.593969389729
0.664386229358
0.726472839243
0.777880484294
0.816539085152
0.840691899318
0.849040757306
0.83990517321
0.811652383502
0.762396040826
0.689157672851
0.589231248226
0.456636059175
0.289081600017
0.0910894102769
-0.145515025505
-0.433062686938
-0.758650561399
-1.1315041705
-1.45067543965
-1.79561608345
-2.16573309733
-2.1107404528
-1.37313437245
-0.416253038128
1.29560423959
0.379083517207
1.56167784579
0.901313046462
0.482090668075
0.343250709736
0.282701625465
0.257236579163
0.246819621093
0.249665566658
0.2610551349
0.279130894542
0.30227567828
0.329635799332
0.360514177776
0.394483709808
0.431131103322
0.470219494824
0.511480382196
0.55476013295
0.599875528022
0.646693890791
0.695062426518
0.744843512889
0.795881688634
0.847999821075
0.90102024656
0.954718429223
1.00886377995
1.06317352727
1.11735378493
1.17106649751
1.22394618794
1.27561292959
1.32566088836
1.37368948433
1.41929471031
1.46213383709
1.50188909528
1.53835257768
1.5713987902
1.60104784351
1.62743929585
1.65086742527
1.67173568412
1.69054769387
1.70784090304
1.72413952002
1.73989271261
1.75541072136
1.77084140842
1.78613986231
1.80109263507
1.81531404943
1.82834843602
1.83968876423
1.84883662139
1.85531533956
1.85875615582
1.85880859593
1.85488077251
1.84665993422
1.83352945906
1.81514994582
1.79152758247
1.76295874854
1.7300281989
1.69358218712
1.65450713714
1.61358886876
1.57145059588
1.528567177
1.48532351733
1.44210175438
1.39932125347
1.35744571951
1.31703327162
1.27872907622
1.24322822915
1.21123502602
1.18334422463
1.15992412341
1.1411664416
1.12704739355
1.11752255934
1.11230643819
1.11086155142
1.11198539458
1.11374212591
1.11260530354
1.10334128007
1.08086286003
1.04112849121
0.982143595059
0.904173221222
0.80831943571
0.69547737783
0.567340261302
0.426734359082
0.276464571284
0.134792602654
0.0115401923267
-0.106769186621
-0.230454437825
-0.336846748223
-0.405572562481
-0.461088678071
-0.548312040598
-0.65372548801
-0.74374655931
-0.831328228415
-0.924344772533
-1.00991434981
-1.08163905953
-1.14464033014
-1.20414634058
-1.25859977318
-1.30570393931
-1.34521295699
-1.37727368954
-1.40268620125
-1.42200555005
-1.43564285695
-1.4436259471
-1.44605162644
-1.44291004898
-1.43434030728
-1.42034449618
-1.40093851797
-1.37592676602
-1.34508533919
-1.30812599818
-1.26497024624
-1.21574338877
-1.16064416746
-1.09980142758
-1.03341194448
-0.961574071149
-0.884510411027
-0.802994054038
-0.719086127969
-0.634911585848
-0.551561011888
-0.469211521907
-0.387599393557
-0.306318322676
-0.225042325824
-0.143628326986
-0.0620315642141
0.0197872426425
0.101837403875
0.18402201089
0.265966432499
0.346918586346
0.425597285103
0.500291619829
0.568839895664
0.628992821468
0.67844495787
0.715251240852
0.737685066635
0.74449699801
0.733938079766
0.703883721621
0.651683712217
0.573629374219
0.466921345355
0.325722979863
0.149292781084
-0.0549608827768