/*--------------------------------*- C++ -*----------------------------------*\
| =========                 |                                                 |
| \\      /  F ield         | OpenFOAM: The Open Source CFD Toolbox           |
|  \\    /   O peration     | Version:  v1806                                 |
|   \\  /    A nd           | Web:      www.OpenFOAM.com                      |
|    \\/     M anipulation  |                                                 |
\*---------------------------------------------------------------------------*/
FoamFile
{
    version     2.0;
    format      ascii;
    class       volVectorField;
    location    "21";
    object      U;
}
// * * * * * * * * * * * * * * * * * * * * * * * * * * * * * * * * * * * * * //

dimensions      [0 1 -1 0 0 0 0];


internalField   nonuniform List<vector> 
12225
(
(9.73884130233 0.0399752799378 0)
(9.50245332471 0.0407485252498 0)
(9.24614538325 0.0402132096542 0)
(8.99463643867 0.0405369000289 0)
(8.75582631014 0.0404984374112 0)
(8.5284567696 0.0401239222706 0)
(8.31091177277 0.0396360304291 0)
(8.10245141742 0.0391307794823 0)
(7.90247432407 0.0386477727688 0)
(7.71020723639 0.0382248375831 0)
(7.52475143239 0.0379042633983 0)
(7.34512971884 0.0377320821708 0)
(7.17024329732 0.0377634550607 0)
(6.99877345125 0.038078689583 0)
(6.82900929879 0.0388164024636 0)
(6.65841344089 0.0402784033274 0)
(6.48293028389 0.0433876398575 0)
(6.28493017923 0.0463291893255 0)
(10.016441171 0.0713975112526 0)
(10.0360834934 0.0697444631917 0)
(10.02287369 0.0672074717189 0)
(9.99415956351 0.0680473954817 0)
(9.95906704042 0.0688557721087 0)
(9.91863956725 0.0693294374503 0)
(9.87300784129 0.0698092753141 0)
(9.82280623744 0.0704077486653 0)
(9.76864500818 0.071144810025 0)
(9.71085131061 0.0720675262852 0)
(9.64951408902 0.0732563696916 0)
(9.58453037087 0.0748174351079 0)
(9.51557647872 0.0768942832537 0)
(9.44201783357 0.0797084774407 0)
(9.36275239488 0.0836474890718 0)
(9.27584853054 0.0894973498751 0)
(9.1791094797 0.0992414960159 0)
(9.0586133434 0.11980552959 0)
(10.0211268632 0.0581956734615 0)
(10.0529141999 0.0582419512668 0)
(10.0663760864 0.056769932458 0)
(10.0697868576 0.0595086800315 0)
(10.0702710927 0.062411155412 0)
(10.0683503603 0.0648563058453 0)
(10.0634353904 0.0672444147649 0)
(10.0554880728 0.069739721096 0)
(10.0446197344 0.0723849558831 0)
(10.0308046972 0.075264729419 0)
(10.0138888025 0.0785180910574 0)
(9.99363067337 0.0823273169763 0)
(9.96968387185 0.0869369258911 0)
(9.94154015169 0.0927153826726 0)
(9.90846610122 0.100280416375 0)
(9.86944264304 0.110766006728 0)
(9.82405792543 0.12645526301 0)
(9.76740041273 0.15000604496 0)
(10.0158916249 0.0478113144855 0)
(10.0428047325 0.0554188187359 0)
(10.0581214923 0.0572694903068 0)
(10.0647277248 0.0614021271939 0)
(10.0688754283 0.0652947984717 0)
(10.0716156581 0.0684435274511 0)
(10.0724574781 0.0713688892463 0)
(10.0712775766 0.0743687447322 0)
(10.0681341587 0.077566021799 0)
(10.0629830665 0.0810972447418 0)
(10.0556663548 0.0851484579266 0)
(10.0459636865 0.0899517507835 0)
(10.0336013835 0.0958101157567 0)
(10.01823704 0.103164471565 0)
(9.99947219769 0.112711065507 0)
(9.97694730285 0.125589282485 0)
(9.95107990759 0.143653936189 0)
(9.92048497649 0.168310034882 0)
(10.0115358374 0.0397859724372 0)
(10.0332861051 0.0514726429322 0)
(10.0478506695 0.0546313887981 0)
(10.0547966492 0.0586133289066 0)
(10.0591110959 0.0625871922176 0)
(10.0621541119 0.0660194368262 0)
(10.0635787285 0.0693170958173 0)
(10.0632313308 0.0727986331716 0)
(10.0611648827 0.0766114737176 0)
(10.0573690473 0.0808988446056 0)
(10.0517323037 0.0858553200649 0)
(10.0440939373 0.0917315278174 0)
(10.0342719087 0.0988573176935 0)
(10.0220745339 0.107699027623 0)
(10.0073485159 0.118946595214 0)
(9.99011231001 0.133613314184 0)
(9.97104910063 0.153091690014 0)
(9.95005617816 0.178316691227 0)
(10.0083716437 0.0334002643542 0)
(10.0257516231 0.047288540153 0)
(10.0391123481 0.0521882914794 0)
(10.046160276 0.0568419393257 0)
(10.0504613232 0.0615589486785 0)
(10.0534555051 0.0658067332373 0)
(10.0549516073 0.0698643770543 0)
(10.0547849572 0.0740764465741 0)
(10.0529930657 0.0786414328481 0)
(10.0495873951 0.0837308789947 0)
(10.0444955043 0.0895602443715 0)
(10.03760808 0.0964035176699 0)
(10.028818898 0.104611795668 0)
(10.0180529472 0.114654390761 0)
(10.005325477 0.127171880153 0)
(9.99086462321 0.14300938284 0)
(9.97542326365 0.163168402691 0)
(9.95935073624 0.188275303314 0)
(10.0060442242 0.0283393378657 0)
(10.0198323833 0.0432073732088 0)
(10.0317768597 0.0496848929275 0)
(10.0387383236 0.0549535443781 0)
(10.0429926468 0.0601158853702 0)
(10.0459030855 0.0648489438447 0)
(10.0474298496 0.0693837839612 0)
(10.0474175481 0.0740895214701 0)
(10.0458821123 0.079211764835 0)
(10.0428463305 0.0849467143017 0)
(10.0382720448 0.0915216173345 0)
(10.0320977159 0.0992189550768 0)
(10.0242838085 0.108389791902 0)
(10.0148492115 0.119477559375 0)
(10.0039278197 0.133041469388 0)
(9.99186273318 0.149747450293 0)
(9.9793938741 0.17028153893 0)
(9.96696502178 0.195001563815 0)
(10.0043683795 0.0243282306303 0)
(10.0152557845 0.0393677806279 0)
(10.025717647 0.0471189344433 0)
(10.0324383923 0.0530378296902 0)
(10.0366505225 0.0586713119443 0)
(10.0395213398 0.0639620399594 0)
(10.0411229062 0.0691053725229 0)
(10.0413217444 0.0744503669923 0)
(10.0401142098 0.0802607602753 0)
(10.0375305878 0.086746618417 0)
(10.0335663113 0.0941388703087 0)
(10.0282071498 0.10271700488 0)
(10.0214738282 0.112816334186 0)
(10.0134603184 0.124836197966 0)
(10.004381066 0.139241025007 0)
(9.99463440746 0.156529063876 0)
(9.98490675205 0.177142813957 0)
(9.97566008603 0.201235363838 0)
(10.003162297 0.0211368842189 0)
(10.0117448117 0.0358520437589 0)
(10.0207678323 0.0445390879307 0)
(10.0271272756 0.0510953155882 0)
(10.0312855325 0.0571843990092 0)
(10.0341490567 0.0629833992953 0)
(10.0358546651 0.0686783339731 0)
(10.0363017331 0.0745911637409 0)
(10.0354769027 0.0809985464003 0)
(10.0334176664 0.0881273668899 0)
(10.0301508409 0.0962124783296 0)
(10.0257058898 0.105523846966 0)
(10.0201544335 0.116369958187 0)
(10.0136457199 0.129095184616 0)
(10.006441836 0.144067166471 0)
(9.99895395776 0.161637973731 0)
(9.99179039593 0.182068195376 0)
(9.9853906736 0.20536883512 0)
(10.0022992053 0.0185805477255 0)
(10.009078413 0.032689626078 0)
(10.016780238 0.0419851234486 0)
(10.0227016786 0.0491133728822 0)
(10.0267905104 0.0556358830794 0)
(10.0296816206 0.0619056091688 0)
(10.0315328842 0.0681268281329 0)
(10.032279106 0.0745966967798 0)
(10.031905649 0.0815932527355 0)
(10.0304555142 0.0893503577903 0)
(10.0279810057 0.0980969603729 0)
(10.0245478595 0.108081643836 0)
(10.0202668256 0.119574205565 0)
(10.0153230555 0.132856623096 0)
(10.0099992364 0.14820369743 0)
(10.0046915942 0.165845535631 0)
(9.99992142384 0.185910514278 0)
(9.99612230535 0.208320026453 0)
(10.0016818107 0.0165154487637 0)
(10.0070704888 0.029887087218 0)
(10.0136131509 0.0395090807072 0)
(10.0190681977 0.0471037705656 0)
(10.0230782345 0.0540175374488 0)
(10.0260326152 0.0607077111283 0)
(10.0280753357 0.0674055600816 0)
(10.029171449 0.0743845553135 0)
(10.0293111502 0.0819118481237 0)
(10.0285420264 0.0902178330394 0)
(10.0269358274 0.099518757576 0)
(10.0245863978 0.110036318711 0)
(10.0216319482 0.121997621182 0)
(10.0182765201 0.135623435028 0)
(10.0148025856 0.151107065681 0)
(10.0115732691 0.168582969451 0)
(10.00902096 0.188088167663 0)
(10.0075745832 0.209495003834 0)
(10.0012751772 0.0149292159671 0)
(10.0056964819 0.0275769349097 0)
(10.0113393503 0.0373065190854 0)
(10.0163775591 0.045229780673 0)
(10.0203171884 0.0524580128798 0)
(10.0233639954 0.0594875667311 0)
(10.0256282474 0.0665724912805 0)
(10.0270942815 0.0739675713477 0)
(10.0277596591 0.0819239156382 0)
(10.0276754089 0.0906620091842 0)
(10.026925108 0.10038216496 0)
(10.0256194151 0.111277857148 0)
(10.0239102426 0.123535630231 0)
(10.0220048428 0.137322268309 0)
(10.0201709865 0.152766206953 0)
(10.0187326519 0.16993288646 0)
(10.0180472367 0.188800491458 0)
(10.0185527726 0.209214802412 0)
(10.0009761372 0.0136139738 0)
(10.0046495438 0.0255244538848 0)
(10.0095423851 0.0351865891692 0)
(10.0141986155 0.0433170395864 0)
(10.0180755281 0.0507956123877 0)
(10.0212385945 0.0581061514544 0)
(10.0237571472 0.0655150502934 0)
(10.0256273379 0.0732610159529 0)
(10.0268552083 0.0815749772997 0)
(10.0274952007 0.0906611624247 0)
(10.0276382792 0.100699335619 0)
(10.0274055388 0.111853440965 0)
(10.0269549471 0.12427014042 0)
(10.026488748 0.138067908651 0)
(10.0262531743 0.153321432264 0)
(10.0265298934 0.170044184238 0)
(10.0276043684 0.18817384925 0)
(10.029928069 0.207540571171 0)
(10.0007338938 0.0123256864733 0)
(10.003783222 0.0234083958122 0)
(10.0080143798 0.0328489138631 0)
(10.0123173459 0.0410820331884 0)
(10.0161613168 0.0487586238089 0)
(10.0195048717 0.0563125854738 0)
(10.0223709293 0.0640081635593 0)
(10.0247594079 0.0720651269082 0)
(10.0266834525 0.0806881656264 0)
(10.0281987578 0.0900569762219 0)
(10.0293983802 0.100324243148 0)
(10.0304054658 0.111619530768 0)
(10.0313739258 0.124046979936 0)
(10.0324898538 0.137677544005 0)
(10.0339670351 0.152537684291 0)
(10.0360375906 0.168599183747 0)
(10.0389144287 0.185773326352 0)
(10.0430722193 0.203891380126 0)
(10.0005521552 0.011057803326 0)
(10.0031265696 0.0212290455681 0)
(10.0068333888 0.0302717186575 0)
(10.0108595367 0.0384448606184 0)
(10.0147304733 0.0462031665425 0)
(10.0183388185 0.053905024565 0)
(10.0216641296 0.0617931518181 0)
(10.0247022659 0.0700617819965 0)
(10.0274694763 0.0788833829126 0)
(10.0300195816 0.0884053708611 0)
(10.0324408113 0.0987472470264 0)
(10.0348486252 0.110000463214 0)
(10.0373820401 0.122227199215 0)
(10.0402004217 0.135454872687 0)
(10.0434767855 0.149670447047 0)
(10.0473895936 0.164815877281 0)
(10.0520816059 0.180787989521 0)
(10.0580566223 0.197426912236 0)
(10.0004330759 0.00977137099854 0)
(10.0026988019 0.0189259321233 0)
(10.0060670895 0.0273684468287 0)
(10.0099547269 0.0352662302807 0)
(10.0139620546 0.0429230270717 0)
(10.017952637 0.050610111867 0)
(10.0218723815 0.0585292529697 0)
(10.0257070743 0.0668398487739 0)
(10.029470044 0.0756761248872 0)
(10.0332077019 0.0851473504061 0)
(10.0369955778 0.0953351019027 0)
(10.0409314048 0.106292496707 0)
(10.0451288614 0.118043046433 0)
(10.0497120186 0.130578672711 0)
(10.0548083381 0.143857865177 0)
(10.0605426109 0.157805537694 0)
(10.066993149 0.172315921798 0)
(10.0746965535 0.18724539734 0)
(10.0003770913 0.00838268399832 0)
(10.002511478 0.0163553662924 0)
(10.0057689838 0.023946482332 0)
(10.0097196456 0.0312853417531 0)
(10.0140302997 0.0385679382068 0)
(10.0185592139 0.0459796663327 0)
(10.0232304234 0.0536677063965 0)
(10.0280164361 0.0617476865861 0)
(10.0329206719 0.0703110285218 0)
(10.037975268 0.0794257692114 0)
(10.0432354063 0.089134997131 0)
(10.0487723248 0.0994563476348 0)
(10.054666641 0.110381810992 0)
(10.0610024636 0.121878080466 0)
(10.0678610427 0.133887427085 0)
(10.0753177395 0.146329707891 0)
(10.0833953243 0.159106606864 0)
(10.0926648314 0.172096796303 0)
(10.0003830608 0.00674479628075 0)
(10.0025721609 0.01325726162 0)
(10.0059808731 0.0196650028205 0)
(10.0102514834 0.0260837208312 0)
(10.0150855459 0.0326307652061 0)
(10.020342279 0.0394117496518 0)
(10.0259323281 0.0465126477102 0)
(10.0318137739 0.0539992685065 0)
(10.0379741755 0.0619180577947 0)
(10.0444252882 0.0702961985729 0)
(10.0511962428 0.079141310265 0)
(10.0583269706 0.088441541916 0)
(10.0658621469 0.0981663199364 0)
(10.0738462392 0.108267590022 0)
(10.0823186366 0.118681887376 0)
(10.0913133 0.129332908401 0)
(10.1008096352 0.140135281998 0)
(10.11141116 0.150991286482 0)
(10.0004669646 0.00458225188981 0)
(10.0029366214 0.00912442111098 0)
(10.006821547 0.0138454738301 0)
(10.0117402356 0.0188466789558 0)
(10.0173785471 0.0241670025691 0)
(10.0235896198 0.0298297924913 0)
(10.0302760206 0.0358565017245 0)
(10.0373821715 0.0422614529128 0)
(10.0448766971 0.0490474175512 0)
(10.0527481775 0.0562046781616 0)
(10.0609985426 0.0637120058612 0)
(10.0696369056 0.0715366486483 0)
(10.0786743095 0.0796353917615 0)
(10.0881202063 0.0879553902789 0)
(10.097979058 0.096436500835 0)
(10.1082519119 0.105013035622 0)
(10.1188848345 0.113616757077 0)
(10.1305058521 0.122174337389 0)
(10.0006307265 0.00218674371902 0)
(10.0035848379 0.00455309241376 0)
(10.0082153729 0.00742152978397 0)
(10.0139898339 0.0108581902704 0)
(10.0205234515 0.0148004419051 0)
(10.0276657709 0.0191861918891 0)
(10.0353274176 0.0239810630953 0)
(10.0434485343 0.0291587183157 0)
(10.0519850823 0.034688649525 0)
(10.0609109421 0.0405360965326 0)
(10.0702119884 0.0466627006565 0)
(10.0798794195 0.0530262787413 0)
(10.0899049936 0.0595799541101 0)
(10.100279042 0.0662732768426 0)
(10.1109882015 0.0730530870321 0)
(10.1220180456 0.0798658465682 0)
(10.1333006446 0.0866586647907 0)
(10.1454701652 0.0933786225142 0)
(10.0008321911 -0.000160621645709 0)
(10.0043805357 0.000157895739579 0)
(10.009864679 0.00140321463579 0)
(10.0165086637 0.00353627066098 0)
(10.023844312 0.00633739851315 0)
(10.0317486278 0.00965738032084 0)
(10.0401632744 0.013421891607 0)
(10.0490333165 0.0175752079759 0)
(10.0583101526 0.0220618748643 0)
(10.0679632833 0.0268303044996 0)
(10.0779733732 0.0318331943716 0)
(10.0883234474 0.0370248934179 0)
(10.0989954089 0.0423587084747 0)
(10.109969517 0.0477874529902 0)
(10.1212238483 0.0532634856849 0)
(10.1327371653 0.058740388998 0)
(10.1444363675 0.0641730688881 0)
(10.156970594 0.0695170978422 0)
(10.0011293769 -0.00271430117836 0)
(10.0055205229 -0.00445767160941 0)
(10.0120883358 -0.00464606575271 0)
(10.0196827482 -0.00358979480897 0)
(10.0277808641 -0.00174419669996 0)
(10.0363525488 0.000668698437105 0)
(10.0453922474 0.00355810259383 0)
(10.0548508081 0.00684624715937 0)
(10.064679296 0.0104571688601 0)
(10.0748509402 0.0143286476507 0)
(10.0853483821 0.0184096967332 0)
(10.0961520796 0.0226534886262 0)
(10.1072388855 0.0270147824975 0)
(10.11858348 0.0314491219598 0)
(10.1301582572 0.0359141914891 0)
(10.1419363539 0.0403689517194 0)
(10.1538385978 0.0447756467346 0)
(10.1665081724 0.049098030033 0)
(10.001600344 -0.00561726490017 0)
(10.0071991384 -0.00940956210168 0)
(10.0151151641 -0.0107362457138 0)
(10.0236919611 -0.010483364121 0)
(10.0324762685 -0.00941355380066 0)
(10.0416308572 -0.00777308953368 0)
(10.0512132315 -0.00565165494432 0)
(10.0611694635 -0.00314834237494 0)
(10.0714517831 -0.000353227602514 0)
(10.0820431719 0.00267055840736 0)
(10.0929308057 0.0058764590325 0)
(10.1040957293 0.00922005596658 0)
(10.1155117123 0.0126609044997 0)
(10.1271510406 0.0161604925468 0)
(10.1389839408 0.0196824073204 0)
(10.150982691 0.0231916400694 0)
(10.1630697346 0.0266539111789 0)
(10.1759075993 0.0300350825036 0)
(10.0023268645 -0.00906053084078 0)
(10.0096615757 -0.014764330145 0)
(10.0191981941 -0.0167755991001 0)
(10.0287055489 -0.0170219671826 0)
(10.0380478258 -0.0165268502464 0)
(10.0476716403 -0.0154452126936 0)
(10.0576704461 -0.0138476708311 0)
(10.0679775498 -0.011869063793 0)
(10.0785621269 -0.00962022462991 0)
(10.0894276745 -0.00716671280225 0)
(10.100568401 -0.00455325857643 0)
(10.1119604425 -0.0018171687469 0)
(10.1235757662 0.00100351802923 0)
(10.1353847749 0.00387413523605 0)
(10.1473548938 0.00676186186574 0)
(10.1594542491 0.0096319082459 0)
(10.1715968241 0.0124500345159 0)
(10.1844212237 0.0151825217535 0)
(10.0035629097 -0.013330631737 0)
(10.0133583346 -0.0205486432574 0)
(10.0247230753 -0.0226639348483 0)
(10.035014174 -0.0232080178925 0)
(10.0448129132 -0.0232680140269 0)
(10.0548853584 -0.0227961653721 0)
(10.0652890815 -0.0218387158152 0)
(10.0759262759 -0.0205433848016 0)
(10.0867891627 -0.0190092278082 0)
(10.0979036056 -0.0172855694551 0)
(10.1092702851 -0.015407782116 0)
(10.12086741 -0.0134095754966 0)
(10.1326668117 -0.0113216887883 0)
(10.1446386962 -0.00917107251239 0)
(10.1567483548 -0.0069833683583 0)
(10.1689567405 -0.00478451664521 0)
(10.1811760824 -0.00261107064535 0)
(10.1940720602 -0.000514043452988 0)
(10.0054259324 -0.0187851161972 0)
(10.0186016729 -0.0266304373308 0)
(10.0318060642 -0.0281375944912 0)
(10.0425476663 -0.0285841575145 0)
(10.0525821277 -0.0286859604492 0)
(10.0629430429 -0.0282295796091 0)
(10.0735955166 -0.0273471213335 0)
(10.0844248781 -0.0262228052423 0)
(10.0954548044 -0.0249384507185 0)
(10.1067266119 -0.0235261001667 0)
(10.1182412567 -0.0220129334696 0)
(10.1299759415 -0.0204246857735 0)
(10.1419033542 -0.0187805970122 0)
(10.153993446 -0.0170933415962 0)
(10.1662068796 -0.0153734474729 0)
(10.1784935569 -0.0136354640899 0)
(10.1907388586 -0.0119087489252 0)
(10.2035370174 -0.0102571731905 0)
(10.0086024477 -0.0259167011643 0)
(10.0262643682 -0.0328628960292 0)
(10.0411727153 -0.033874632859 0)
(10.0522062849 -0.03511922911 0)
(10.0625271155 -0.036063959675 0)
(10.0731928596 -0.0362768208856 0)
(10.0840389041 -0.0360042836477 0)
(10.09497881 -0.0354616562622 0)
(10.1060834487 -0.0347204659077 0)
(10.1174073091 -0.033813997915 0)
(10.1289520638 -0.0327802897286 0)
(10.1406988266 -0.0316542134537 0)
(10.152626784 -0.0304583969077 0)
(10.164711226 -0.0292036724437 0)
(10.1769146228 -0.0278928572902 0)
(10.1891816165 -0.026524556926 0)
(10.2013759737 -0.0251069812807 0)
(10.2140458537 -0.0237036941717 0)
(10.0129003671 -0.0352075963676 0)
(10.0357927911 -0.0372696842281 0)
(10.0511493207 -0.0353565791497 0)
(10.0615659356 -0.0357209748623 0)
(10.0715457674 -0.0363147205514 0)
(10.0818005052 -0.03645839864 0)
(10.0919940282 -0.0363620367606 0)
(10.1020915804 -0.0361565181079 0)
(10.1122140491 -0.0358435217735 0)
(10.1224309301 -0.035417608766 0)
(10.1327542849 -0.0348947869171 0)
(10.143182897 -0.0342952495433 0)
(10.1537174988 -0.0336304818278 0)
(10.164354904 -0.0329017835213 0)
(10.1750787391 -0.0320990791428 0)
(10.1858499611 -0.0311924922128 0)
(10.1965201038 -0.0301217991446 0)
(10.2073795008 -0.0287902714557 0)
(10.0163959316 -0.049258494309 0)
(10.0401686713 -0.0506513334562 0)
(10.0467896234 -0.0484554803694 0)
(10.0458582754 -0.0483721485486 0)
(10.0435043866 -0.0483357295863 0)
(10.0403262525 -0.0479257636182 0)
(10.0361363845 -0.0473774240496 0)
(10.0311872258 -0.0467980001687 0)
(10.0258309023 -0.046186143428 0)
(10.0203060129 -0.0455357757272 0)
(10.0147633304 -0.0448557236144 0)
(10.0093229248 -0.0441567269273 0)
(10.0040900262 -0.0434428653282 0)
(9.99915132856 -0.0427105853489 0)
(9.99457539621 -0.0419459170721 0)
(9.99042414378 -0.0411062582568 0)
(9.98671009375 -0.040078184844 0)
(9.98349482818 -0.0381789095238 0)
(9.8528642693 -0.0291885976533 0)
(9.72398127006 -0.0314775500031 0)
(9.58020711395 -0.0315336357614 0)
(9.43800620418 -0.0320710435868 0)
(9.3037530888 -0.0323217582136 0)
(9.17701361433 -0.0322299811677 0)
(9.05686350377 -0.0319606555381 0)
(8.94301935171 -0.0315985285745 0)
(8.83534416028 -0.031171360815 0)
(8.73360788721 -0.0306964910968 0)
(8.63752636812 -0.0301911840303 0)
(8.54682428695 -0.0296693840183 0)
(8.46124778601 -0.0291394849997 0)
(8.38055510713 -0.0286049596453 0)
(8.30451659471 -0.0280636459238 0)
(8.2329320526 -0.0274971445596 0)
(8.16587052365 -0.0268394022956 0)
(8.10180172608 -0.0254367271734 0)
(0.0211440962098 -0.119760084942 1.29807051347e-19)
(0.0599362880843 -0.116953885004 0)
(0.0938163337736 -0.121066274109 0)
(0.078840466775 -0.065321181835 0)
(-0.0652358870514 0.117477925266 0)
(-0.227880154569 0.187005808967 -6.56918945076e-20)
(-0.370526381114 0.195159402658 0)
(-0.525939847042 0.199961486298 0)
(-0.69044255806 0.204540307551 2.64460401376e-20)
(-0.862654235096 0.208520592934 0)
(-1.04162382977 0.211772188636 -2.01145029471e-20)
(-1.22653946179 0.214289673888 0)
(-1.41666701383 0.216107512347 -1.73543787388e-20)
(-1.61133169545 0.217271657723 -1.66436661327e-20)
(-1.80990364687 0.217828530662 0)
(-2.01179083393 0.217821688151 1.5997157589e-20)
(-2.21643152913 0.217290031474 1.59386582592e-20)
(-2.42328907921 0.216268138572 1.60034955532e-20)
(-2.63184696607 0.214785844249 0)
(-2.84160449984 0.212869303757 0)
(-3.05207288833 0.210540749697 0)
(-3.26277156705 0.207819643454 0)
(-3.47322549586 0.204722493759 0)
(-3.682962478 0.20126420031 0)
(-3.89151140668 0.197457825095 -1.82709874646e-20)
(-4.09840095713 0.193316032265 -1.87206523424e-20)
(-4.30315915079 0.188851003766 0)
(-4.50531365466 0.184075910707 1.96496665027e-20)
(-4.70439337809 0.179004779982 2.01209726469e-20)
(-4.89993080674 0.173653982292 2.05922655272e-20)
(-5.0914653814 0.168042072869 0)
(-5.27854768435 0.162191103274 0)
(-5.46074487697 0.156126125499 -2.19787292153e-20)
(-5.63764653206 0.149876232923 0)
(-5.80887085887 0.14347371956 0)
(-5.97407083745 0.13695458431 -2.32787438642e-20)
(-6.13294052751 0.130357090653 0)
(-6.28522028812 0.123721886698 0)
(-6.43070107627 0.117090081498 0)
(-6.56922730441 0.110502952705 0)
(-6.70069806655 0.103999758023 0)
(-6.8250664237 0.0976173360558 5.09314426481e-20)
(-6.94233675466 0.0913879917475 0)
(-7.05256029612 0.0853393807906 0)
(-7.15582912192 0.079492818084 5.26205254979e-20)
(-7.2522688764 0.0738636709844 5.31041766443e-20)
(-7.34203085078 0.0684602271792 0)
(-7.42528363188 0.0632847444916 0)
(-7.50220482228 0.0583328503996 5.43102279418e-20)
(-7.57297295714 0.0535950427539 0)
(-7.63776011635 0.0490565525636 -5.4906131306e-20)
(-7.69672503797 0.04469932467 0)
(-7.75000715123 0.0405020043879 5.53318881984e-20)
(-7.79772207571 0.0364418229977 0)
(-7.83995831841 0.0324942439662 5.55841119495e-20)
(-7.87677620999 0.0286345184962 5.56440261172e-20)
(-7.90820902641 0.0248371259694 0)
(-7.93426471179 0.0210778576033 0)
(-7.95492959878 0.017333900421 0)
(-7.9701704664 0.0135882853798 5.54321115364e-20)
(-7.97994512649 0.00983868687687 0)
(-7.9842323423 0.00611722724761 0)
(-7.98308163266 0.0024807395949 0)
(-7.97663521983 -0.00101744344056 0)
(-7.96510559653 -0.0043332665897 0)
(-7.94876614118 -0.00741365568625 0)
(-7.92795132293 -0.0102089566807 0)
(-7.90305502575 -0.0126831662338 -5.2655670267e-20)
(-7.87451912969 -0.0148111702356 0)
(-7.84281924662 -0.0165778189734 -5.16047721915e-20)
(-7.80844999406 -0.0179806796381 -5.10437483481e-20)
(-7.77190862467 -0.019028254845 0)
(-7.73367842212 -0.019741811603 4.98641227055e-20)
(-7.69421261898 -0.0201519264018 0)
(-7.65392035656 -0.0202990347558 -4.86231224446e-20)
(-7.61315515623 -0.0202287745946 0)
(-7.57220711761 -0.0199925994663 4.73352200399e-20)
(-7.53129893144 -0.0196429037853 -4.66766481314e-20)
(-7.49058466807 -0.0192340472294 0)
(-7.4501510468 -0.0188189249704 0)
(-7.4100193073 -0.0184527225099 0)
(-7.37014284603 -0.0181911263187 0)
(-7.33039413114 -0.0180958483453 -4.32352781412e-20)
(-7.29053489837 -0.0182350624312 4.25045719197e-20)
(-7.25016944888 -0.018691611374 -8.34966575016e-20)
(-7.20868374425 -0.0195623985679 -8.19116015771e-20)
(-7.16517641725 -0.0209632134034 -8.02228695765e-20)
(-7.11839027679 -0.0230228506482 0)
(-7.06665594052 -0.0258821840083 0)
(-7.00787215463 -0.0296806879836 0)
(-6.9395292978 -0.0345473483652 -7.13578574125e-20)
(-6.85879949156 -0.0405871579772 0)
(-6.76266734657 -0.0478712247123 0)
(-6.64810432032 -0.0564235183631 -6.017681056e-20)
(-6.51228154937 -0.0662141322952 0)
(-6.35280425694 -0.0771497909066 4.90475388803e-20)
(-6.16793265298 -0.0890649151993 0)
(-5.95676847959 -0.101705640209 -3.40921843179e-20)
(-5.71935612313 -0.114720256994 0)
(-5.45670599978 -0.12765108687 0)
(-5.17072478018 -0.139931677447 0)
(-4.86407889791 -0.150914745706 9.7660829899e-21)
(-4.53998420328 -0.159929011392 0)
(-4.20204172536 -0.166375064637 4.02184087121e-20)
(-3.85403956676 -0.169876771123 5.81758555785e-20)
(-3.49984327856 -0.170425291972 0)
(-3.14332110609 -0.168422132933 0)
(-2.78826613313 -0.164611638443 0)
(-2.43845564217 -0.159861615472 1.57981329998e-19)
(-2.09706772381 -0.154898934612 0)
(-1.76678344849 -0.149747985334 0)
(-1.44883651656 -0.144927313056 2.92047924285e-19)
(-1.14384528406 -0.142806884581 3.61728971937e-19)
(-0.853000849181 -0.144660699653 0)
(-0.57468159252 -0.152963876888 -5.84220749449e-19)
(-0.31082018813 -0.161680771219 -7.76477895348e-19)
(-0.0387856179676 -0.173829541142 1.06296868719e-18)
(0.216480467371 -0.20042600145 0)
(0.513641078628 -0.219409085764 0)
(0.670926022877 -0.198839592386 0)
(0.808441757366 -0.168462312683 -7.89172311192e-19)
(0.951471923696 -0.140524231284 0)
(1.09395402918 -0.117283260554 -5.41318324417e-19)
(1.23026850387 -0.0981604196738 0)
(1.35774831784 -0.082359610279 0)
(1.47513371117 -0.0691741881354 0)
(1.58195734564 -0.0580678248852 3.72177239315e-19)
(1.67819486658 -0.0486122082727 3.50912059058e-19)
(1.7640914832 -0.0404976797541 0)
(1.84003429132 -0.0334738994654 0)
(1.90650101609 -0.0273633815129 0)
(1.964002312 -0.0220182861704 0)
(2.01306912027 -0.0173357789011 0)
(2.05422451055 -0.0132182899439 0)
(2.08799551386 -0.00959428865722 5.59320002529e-19)
(2.11489135888 -0.00640511100656 0)
(2.13540707922 -0.00362797510244 0)
(2.15002527948 -0.00123465192958 0)
(2.15929314967 0.000788271162396 -5.37525581457e-19)
(2.16423687158 0.00243639930138 -5.35149042079e-19)
(2.16574465642 0.0037512081341 5.33341834805e-19)
(2.16408410902 0.00481954051241 5.32497242127e-19)
(2.15952743811 0.00570463132951 0)
(2.15232635689 0.0064409187382 0)
(2.14272723945 0.00704876370665 0)
(2.13097180744 0.00754548074714 5.37255419044e-19)
(2.11729189682 0.00794508552575 0)
(2.10190496955 0.00826048237552 0)
(2.08501268344 0.00850186235595 -5.4769155796e-19)
(2.06680021516 0.00867851945539 0)
(2.04743719779 0.00879794346483 -5.57202019289e-19)
(2.02707916347 0.00886754471083 0)
(2.00586873537 0.00889320346569 -5.68434679644e-19)
(1.98393642132 0.0088803813349 0)
(1.96140148681 0.00883329633832 0)
(1.93837262668 0.00875648290474 0)
(1.91494924636 0.00865408730568 0)
(1.89122263998 0.00852990440381 0)
(1.86727557722 0.00838591162839 0)
(1.84318166364 0.00822497972147 0)
(1.81900701561 0.00805067114494 0)
(1.79481165885 0.00786662028202 -6.35243013869e-19)
(1.77064739017 0.007674565848 0)
(1.74655638548 0.00747700131084 0)
(1.722572309 0.00727689083052 -6.61999915188e-19)
(1.69871978201 0.00707763679883 0)
(1.67501159752 0.00688201718726 0)
(1.65144454278 0.00669456968393 -6.90561416797e-19)
(1.62799710428 0.00652213784544 0)
(1.60462541545 0.00637197768988 0)
(1.58125388901 0.00625139128455 -7.21150818799e-19)
(1.5577621311 0.00617252805015 7.31973229899e-19)
(1.53396942491 0.00615430431126 -7.43250892072e-19)
(1.5096106879 0.00622427756773 0)
(1.48429255624 0.00642130490161 0)
(1.45741578281 0.00680780013106 -1.56363426344e-18)
(1.42806968501 0.00749102738543 0)
(1.39448175566 0.00870854831815 1.63199306958e-18)
(1.35687681571 0.0107574362864 1.67794477485e-18)
(1.26523054737 0.0183477859508 0)
(-0.0383552998987 -0.101976610156 -3.96138610938e-19)
(-0.133321700636 0.0693806002621 0)
(-0.24562824583 0.203248321763 1.07017939251e-19)
(-0.354469132456 0.280595018775 -7.17885862811e-20)
(-0.471793382246 0.349894696862 -5.41999578141e-20)
(-0.601402485891 0.40104471054 2.23445794942e-20)
(-0.738333230587 0.435251063128 3.92281748351e-20)
(-0.888580524804 0.462357730381 0)
(-1.0496596309 0.48466846157 -1.54492623518e-20)
(-1.21953539343 0.503217549093 2.93877497005e-20)
(-1.39674482174 0.518650301869 4.1318846029e-20)
(-1.58017333024 0.531407277803 -2.67829655947e-20)
(-1.76890655579 0.541808567846 3.88542493169e-20)
(-1.9621593497 0.550099355264 1.25436125177e-20)
(-2.15923431763 0.556473987593 0)
(-2.3594975669 0.561090699358 -1.26491518522e-20)
(-2.56236190937 0.564079563822 -1.28441488053e-20)
(-2.76727542423 0.565548566847 -1.31108121457e-20)
(-2.97371259526 0.565586651576 2.76480587354e-20)
(-3.18116740352 0.564267196506 0)
(-3.38914765622 0.561649511479 2.91973883391e-20)
(-3.59717001167 0.557781533694 0)
(-3.80475600561 0.552700906843 -3.09997884967e-20)
(-4.01142884345 0.546437762956 0)
(-4.21671092913 0.539015908684 4.90861045568e-20)
(-4.42012207493 0.530455875867 -1.73400008335e-20)
(-4.62117872708 0.520776460273 -3.50115765735e-20)
(-4.81939432886 0.509998062066 -5.3738937072e-20)
(-5.01428079397 0.498144409138 -1.82137768836e-20)
(-5.20535104762 0.485246045745 -1.8739634243e-20)
(-5.39212277682 0.471341963125 0)
(-5.57412347288 0.456482680025 -4.01900173572e-20)
(-5.75089651701 0.440731114081 2.02876011113e-20)
(-5.92200796808 0.424164731766 0)
(-6.08705393562 0.406875065226 0)
(-6.2456680903 0.388968157294 2.17534107613e-20)
(-6.3975288373 0.370562154415 0)
(-6.54236564947 0.351785958172 0)
(-6.67996411758 0.332774953964 0)
(-6.81016935592 0.313668084348 0)
(-6.93288733077 0.294602335396 0)
(-7.04808387101 0.275709134652 4.95310687881e-20)
(-7.1557814448 0.257108836321 9.9545550858e-20)
(-7.25605352121 0.238907840759 0)
(-7.34901738838 0.22119437337 5.14766567683e-20)
(-7.43482557493 0.204037301859 -5.12819653571e-20)
(-7.51365603446 0.18748385446 0)
(-7.58570359396 0.171560593014 0)
(-7.65116922857 0.156273013725 -1.59274373565e-19)
(-7.71025139504 0.141608284676 -1.07262356188e-19)
(-7.76313761839 0.127536618339 5.37245961797e-20)
(-7.80999415912 0.114015736278 1.08737210988e-19)
(-7.85096935793 0.100993010679 5.49448040171e-20)
(-7.88618015448 0.0884096907659 0)
(-7.91571328311 0.0762026434734 -1.65233622464e-19)
(-7.93962500903 0.0643092964295 -5.50998275554e-20)
(-7.95791780502 0.0526709052227 0)
(-7.97062032128 0.0412368656601 1.11137796569e-19)
(-7.97770884848 0.0299664699126 -1.1123472094e-19)
(-7.97912806235 0.018848153148 -5.5409505711e-20)
(-7.97478253993 0.00793955567279 0)
(-7.96533809775 -0.00263290259282 0)
(-7.95097969989 -0.0127582823741 0)
(-7.93187132571 -0.0223511674341 1.09521608487e-19)
(-7.90822846258 -0.031309605761 0)
(-7.88031667273 -0.0395229388093 -1.08070799948e-19)
(-7.84848180749 -0.046902639541 0)
(-7.81312308241 -0.0533760265158 -5.3271188802e-20)
(-7.77466341664 -0.058894763163 0)
(-7.73353971319 -0.0634378738816 -5.22515660543e-20)
(-7.6901870694 -0.067017016304 -5.17070955702e-20)
(-7.64502367793 -0.0696733424042 0)
(-7.59843750068 -0.0714771595142 -5.04798711387e-20)
(-7.55077596951 -0.0725194339048 0)
(-7.50233964744 -0.0729080662328 4.93251638435e-20)