/*--------------------------------*- C++ -*----------------------------------*\
| =========                 |                                                 |
| \\      /  F ield         | OpenFOAM: The Open Source CFD Toolbox           |
|  \\    /   O peration     | Version:  v1806                                 |
|   \\  /    A nd           | Web:      www.OpenFOAM.com                      |
|    \\/     M anipulation  |                                                 |
\*---------------------------------------------------------------------------*/
FoamFile
{
    version     2.0;
    format      ascii;
    class       volScalarField;
    location    "21";
    object      p;
}
// * * * * * * * * * * * * * * * * * * * * * * * * * * * * * * * * * * * * * //

dimensions      [0 2 -2 0 0 0 0];


internalField   nonuniform List<scalar> 
12225
(
-4.10587897073
-4.85602476865
-5.09621237582
-5.1597549748
-5.21053011684
-5.25471349878
-5.27951396584
-5.2833682902
-5.26821223557
-5.23419487728
-5.17980471177
-5.1027615063
-5.00015823004
-4.86791851219
-4.70000250548
-4.4871731145
-4.21310302856
-3.85014038469
-4.27964295049
-4.86663449399
-5.10162192824
-5.16888274315
-5.21801273094
-5.26057941344
-5.28470258165
-5.28829261375
-5.27305285554
-5.2391428027
-5.18508909619
-5.10864855954
-5.00698072687
-4.87616442533
-4.7105023622
-4.50168494773
-4.23703682217
-3.92619403069
-4.42233958539
-4.85354781667
-5.08889302789
-5.16877960646
-5.21971493335
-5.2623875369
-5.28743489109
-5.29220664703
-5.27816286526
-5.24564311167
-5.19339501367
-5.11938524373
-5.02106854582
-4.89507386379
-4.73682226093
-4.54054247067
-4.30019161237
-4.03121420062
-4.5469976027
-4.86598951488
-5.09298552743
-5.1822237205
-5.23311444731
-5.27400332948
-5.29867810709
-5.30387168427
-5.29062309152
-5.25941994223
-5.20926109008
-5.13837118888
-5.04459237592
-4.92528385464
-4.77726659276
-4.59743976531
-4.38473195788
-4.15385725027
-4.65798468188
-4.89329313045
-5.09924711049
-5.19254599621
-5.24328824219
-5.28255182511
-5.30715066354
-5.31338582995
-5.30176199442
-5.27284320822
-5.22590032714
-5.15947585571
-5.07188490014
-4.96131637511
-4.82602531469
-4.66521814446
-4.48106492047
-4.28669832957
-4.75750211429
-4.93094733935
-5.11130668732
-5.20616832135
-5.25807916131
-5.29655003183
-5.32134832876
-5.32894011634
-5.31938834016
-5.29330256824
-5.25026125877
-5.18919807777
-5.10896854349
-5.00861381651
-4.88770170385
-4.74723714146
-4.59131674289
-4.4317349065
-4.84760310143
-4.97586157068
-5.12976114672
-5.22274310637
-5.27532228562
-5.3128139309
-5.33747204625
-5.34636462587
-5.33917667435
-5.31646697757
-5.27809545021
-5.22341218977
-5.15182700404
-5.06317566815
-4.9581197966
-4.83893228194
-4.71066117566
-4.5837100866
-4.93010159931
-5.02562341066
-5.1545136903
-5.24283289218
-5.29561730063
-5.33258802949
-5.3575109397
-5.36821168582
-5.36409546224
-5.34562055445
-5.31290812097
-5.26574010377
-5.20406959215
-5.12842770597
-5.04031505771
-4.94279561224
-4.84120713667
-4.74451344188
-5.00653609511
-5.07849077491
-5.1851376702
-5.26691374947
-5.31924997542
-5.35600104124
-5.38144133724
-5.39418639465
-5.39354352414
-5.37989251132
-5.35359213862
-5.31483739782
-5.26407184142
-5.20238569669
-5.13185341401
-5.05592896559
-4.97979237645
-4.91093527353
-5.078198746
-5.13326648497
-5.22100492411
-5.29528709114
-5.34652532117
-5.38331575755
-5.40965745666
-5.42485299373
-5.4282618249
-5.42020777973
-5.4012320458
-5.37187779571
-5.33299117379
-5.28606706129
-5.23351021108
-5.17885564686
-5.1268727898
-5.08366329471
-5.14614871619
-5.18914956321
-5.26137996526
-5.32804520983
-5.37771313455
-5.41478159422
-5.44247158783
-5.46057051406
-5.46857908934
-5.46679663111
-5.45589606055
-5.43669560436
-5.4103483587
-5.37860864418
-5.34400776925
-5.30994114679
-5.28062272312
-5.26087610677
-5.20588119471
-5.24104767364
-5.30193929888
-5.36203598762
-5.41004287268
-5.44758043885
-5.47694329875
-5.49815973496
-5.51089247025
-5.51544925006
-5.51258274472
-5.50328681211
-5.48889614465
-5.47127675108
-5.45292346099
-5.43697147664
-5.42709096621
-5.42711390113
-5.26335578176
-5.29277489497
-5.34464394578
-5.39892262931
-5.44530492139
-5.48350885249
-5.51490647035
-5.53961332316
-5.55744386328
-5.56872999663
-5.57427164127
-5.57516507935
-5.57285035261
-5.5692013737
-5.5665868505
-5.56780631863
-5.57597485614
-5.59398804808
-5.32703056844
-5.35183076935
-5.39598919688
-5.44486803641
-5.48971990893
-5.52901595255
-5.56323587268
-5.5924536806
-5.61661117769
-5.63607160204
-5.65164335215
-5.66446865337
-5.67599162884
-5.68800420235
-5.70262756544
-5.72224017617
-5.74935521722
-5.78597668652
-5.39704702945
-5.41845001557
-5.45664314317
-5.50114609935
-5.54499203109
-5.58606797187
-5.62412685763
-5.65910421515
-5.69100943796
-5.7202169081
-5.74750252502
-5.77395605904
-5.80092714449
-5.8300041118
-5.86296615763
-5.90169680299
-5.94809795245
-6.00334111741
-5.47319899496
-5.4924414504
-5.52673647853
-5.56852661456
-5.61249478432
-5.65643868393
-5.69963290271
-5.74182713735
-5.78302544332
-5.82356389446
-5.86412089402
-5.90563764713
-5.94925887489
-5.99626415523
-6.0480197258
-6.10588533155
-6.17117812754
-6.24432378369
-5.55439290617
-5.57269655481
-5.60539080606
-5.64672730914
-5.69261014951
-5.74099771589
-5.79091191134
-5.84193090745
-5.89397474939
-5.94727632206
-6.00233944692
-6.05987430628
-6.1207214211
-6.18579102107
-6.25599891114
-6.33220222326
-6.41519683438
-6.5047782964
-5.63747174625
-5.65604394891
-5.68961697004
-5.73325202556
-5.78344868529
-5.83830603134
-5.89673469954
-5.9581701769
-6.02239445455
-6.08946758658
-6.15965985137
-6.23338919901
-6.31115122433
-6.39346475154
-6.48081986543
-6.57363226633
-6.67227703949
-6.77606593654
-5.7148499817
-5.73515385945
-5.77260927769
-5.82200217729
-5.87960963455
-5.94346283244
-6.01242446476
-6.08582723312
-6.16328758812
-6.24465329699
-6.32993864253
-6.41926319473
-6.51278862224
-6.61067379322
-6.71304211939
-6.81994743473
-6.93143584632
-7.04644630739
-5.75681664228
-5.78017804973
-5.82420789245
-5.88195351933
-5.94846930117
-6.02157342176
-6.10027297005
-6.1839233542
-6.27203579352
-6.36430598725
-6.46059735007
-6.56084733478
-6.66502546165
-6.77307852814
-6.88493817241
-7.00047127798
-7.11957822718
-7.24104061166
-5.76737459995
-5.79454454466
-5.84654109665
-5.91336513231
-5.98827842098
-6.06917079058
-6.15552318821
-6.2468426734
-6.34258804308
-6.44240888523
-6.54611876328
-6.65359116858
-6.764686074
-6.87925079815
-6.99710351312
-7.11804088298
-7.24188680884
-7.36738466364
-5.75561726268
-5.78856206537
-5.85149872272
-5.92901334134
-6.01227980788
-6.10013621213
-6.19298955843
-6.29050119329
-6.39207995867
-6.49739783048
-6.60631293606
-6.71868703414
-6.83433216614
-6.95303322528
-7.07454937003
-7.19861219201
-7.32498738634
-7.45234344158
-5.7251416044
-5.76706526557
-5.8449628005
-5.93447575291
-6.02545965783
-6.11935472131
-6.21785219954
-6.32061095477
-6.42697903934
-6.53673739862
-6.64983001203
-6.76611927503
-6.88538731333
-7.00738131595
-7.13184327273
-7.25847277734
-7.38704360824
-7.51624345855
-5.67816493186
-5.73451960204
-5.83247562549
-5.93435903474
-6.03160649376
-6.1303456013
-6.23334780857
-6.33994076276
-6.44951409154
-6.56211691388
-6.67783265978
-6.79652918276
-6.91796047784
-7.04185937845
-7.16793845116
-7.29586268105
-7.42531682082
-7.55489328601
-5.6157898955
-5.69550008523
-5.81901633663
-5.93201572772
-6.03381294678
-6.13701540728
-6.24446649119
-6.35471547656
-6.46727703745
-6.58252678093
-6.70067038806
-6.82157772156
-6.94499313835
-7.07065177555
-7.19825644339
-7.32743747191
-7.45784196087
-7.58806984028
-5.53782570732
-5.65517871363
-5.80841542076
-5.928534974
-6.03187343045
-6.13775238562
-6.24786709045
-6.36005720466
-6.47418656333
-6.59091557825
-6.71048243982
-6.83272999754
-6.95740570052
-7.08425399925
-7.2129596157
-7.3430735677
-7.47405405771
-7.60413790171
-5.44351579291
-5.61998215001
-5.80398237259
-5.92783737805
-6.03330839338
-6.14288954783
-6.25574924416
-6.36958802839
-6.48495744974
-6.60278864119
-6.72331740994
-6.84639645538
-6.97182805686
-7.0994167708
-7.22887916615
-7.35975375225
-7.49138636456
-7.62167008409
-5.33100242398
-5.59637547847
-5.79966551231
-5.91784346773
-6.02364710756
-6.13646281438
-6.25159983073
-6.36691400449
-6.48361377044
-6.60272953578
-6.72440737638
-6.84848298157
-6.97481683333
-7.10328325858
-7.23366639569
-7.36557406479
-7.49831182666
-7.62920633905
-5.19917038526
-5.60416010428
-5.81854520078
-5.92530561647
-6.02889769644
-6.14231620911
-6.25741974651
-6.37242014196
-6.48900732028
-6.6081988411
-6.73001777027
-6.85425667127
-6.98079723093
-7.10955708482
-7.24039715302
-7.37312675373
-7.5075239804
-7.64196619167
-5.02837551686
-5.58623718559
-5.8133272698
-5.91700543785
-6.02229728139
-6.13790965144
-6.25425299603
-6.369999229
-6.48718898815
-6.60689611638
-6.72913185077
-6.85370185972
-6.9805217578
-7.1095434549
-7.24067265015
-7.37386550181
-7.50932829594
-7.65125498037
-2.23094603614
-2.23961481257
-2.24907368193
-2.25320627582
-2.2590558189
-2.27837294075
-2.32112000975
-2.38903485473
-2.48489010232
-2.61129503517
-2.77052105217
-2.96448005772
-3.1947297448
-3.46246592843
-3.76853964317
-4.11345067853
-4.49737216747
-4.9201390063
-5.38127960603
-5.87999626179
-6.41520132559
-6.98549004894
-7.5891827665
-8.22429056718
-8.88856317679
-9.57945271759
-10.2941678637
-11.0296409415
-11.7825940686
-12.5495127618
-13.3267250005
-14.1103862133
-14.8965763235
-15.6812944741
-16.4605677234
-17.2304529112
-17.9871547051
-18.7270220578
-19.4466617372
-20.1429224376
-20.8129916544
-21.4543565422
-22.0648754941
-22.6427121592
-23.1863822557
-23.6946643888
-24.1666310657
-24.6015455536
-24.9988859558
-25.3582380471
-25.6793215763
-25.9618825257
-26.2057274438
-26.4106283808
-26.5763762768
-26.7027112305
-26.7894001624
-26.8361718799
-26.8427945337
-26.8090145756
-26.7347393811
-26.6202427699
-26.4664755483
-26.2749379796
-26.0476026226
-25.7867439132
-25.4950513013
-25.1754515583
-24.8311044915
-24.4652128735
-24.0810485818
-23.6817559873
-23.2703894125
-22.8497143806
-22.4222612391
-21.9901260538
-21.5550475342
-21.1182207147
-20.6803922098
-20.2416909698
-19.8017431353
-19.3594574577
-18.9130331034
-18.4595538801
-17.9948276567
-17.5128397218
-17.0055558704
-16.462437146
-15.870492018
-15.2143456693
-14.4769892371
-13.6408116934
-12.688943031
-11.6068621226
-10.3842268403
-9.01658505917
-7.50678029516
-5.86567583728
-4.11209247634
-2.27188043281
-0.376238003549
1.54053544114
3.443420774
5.29879093611
7.07592527378
8.74843266599
10.2946405011
11.6986109902
12.9500340559
14.0455894902
14.9871042888
15.7865663363
16.4488840615
16.9874202728
17.4176687265
17.7546665916
18.0222092978
18.2195277799
18.3546933396
18.4490867487
18.5068761563
18.5173567918
18.4829088853
18.4125394673
18.3155189181
18.19995352
18.072385941
17.9380898983
17.8011098246
17.6646340043
17.5309935103
17.4019771237
17.278784742
17.1622962301
17.0529768988
16.9510849224
16.8566058983
16.7694665098
16.6894217624
16.6161898286
16.5494770407
16.4889229065
16.434070296
16.3844891923
16.3397452732
16.2993961588
16.2629924979
16.230101343
16.2003092392
16.1732334652
16.1485200506
16.1258465931
16.1049166687
16.085462977
16.0672424207
16.0500386239
16.033657048
16.0179250764
16.0026869264
15.9878101574
15.9731806649
15.9587007254
15.9442845954
15.9298701575
15.9154108048
15.9008785993
15.8862613395
15.8715740398
15.856859636
15.8421941075
15.8276917482
15.8135276761
15.7999526317
15.7873210554
15.776127723
15.7670900721
15.7612700177
15.7602080812
15.7672750704
15.7775518284
-2.19867138982
-2.20967295315
-2.23045816457
-2.25509536996
-2.26982124872
-2.28670477862
-2.32598816295
-2.39215872123
-2.48769498739
-2.61486346894
-2.77572469863
-2.97204123835
-3.20525347212
-3.47646314593
-3.78643983316
-4.13561542868
-4.52410103266
-4.9516809925
-5.41783486902
-5.92172714963
-6.46223175506
-7.03791535323
-7.64706443332
-8.28766574673
-8.95743506827
-9.6537967101
-10.3739182751
-11.1146961033
-11.8727990328
-12.6446629458
-13.4265484536
-14.2145508884
-15.0046734834
-15.7928507591
-16.5750358355
-17.3472335464
-18.1055926966
-18.8464377196
-19.5663542661
-20.2622075227
-20.9312076896
-21.5709030075
-22.1792147848
-22.7544019198
-23.2950687014
-23.8001060315
-24.2686798906
-24.7001609787
-25.0941072609
-25.4501899411
-25.7681775123
-26.0478674675
-26.2890817153
-26.491618665
-26.6552694855
-26.7797990007
-26.8649584625
-26.9104633159
-26.9159829876
-26.8809978248
-26.8048354545
-26.6874960411
-26.530207116
-26.3346979734
-26.1028031964
-25.8368923691
-25.5399210722
-25.2149832808
-24.8653527046
-24.4943690788
-24.1053910235
-23.7016791565
-23.2863510251
-22.8622662037
-22.4319959345
-21.9977203336
-21.5612082846
-21.1237263265
-20.6860492599
-20.2483981282
-19.8104524386
-19.3712438408
-18.9290754162
-18.4812322642
-18.023681822
-17.5506134196
-17.0540886563
-16.5236481192
-15.9461789848
-15.3060892232
-14.5859982865
-13.767858754
-12.8342590139
-11.7701264412
-10.5645350671
-9.21242142226
-7.71587942672
-6.08489678623
-4.33730209131
-2.4979992464
-0.597564447102
1.32964587546
3.24762444409
5.12071237362
6.91552897704
8.60342108193
10.1614006912
11.5737674814
12.8315370031
13.9347579471
14.8818147068
15.6826900889
16.3465408328
16.8862796319
17.3269032794
17.6690194287
17.9363050566
18.1474661187
18.2971321977
18.3958051432
18.4518094796
18.4628777447
18.4321316227
18.3668829189
18.2752995322
18.1648787533
18.0419671178
17.9117362733
17.7782898191
17.6448320212
17.5137977286
17.3870082318
17.2657570704
17.1509235679
17.043036236
16.9423860554
16.8490597614
16.7629629846
16.6838801345
16.6115595176
16.5456517191
16.4857206228
16.4313365593
16.3821305946
16.3377073982
16.2976349752
16.261473158
16.22879122
16.1991825296
16.1722662731
16.1476931449
16.1251408548
16.1043170147
16.0849553575
16.0668160583
16.0496820973
16.033360241
16.0176787642
16.0024861607
15.987648157
15.9730496647
15.9585929455
15.9441963436
15.9297963218
15.915345775
15.9008160774
15.8861965454
15.8714992208
15.8567635937
15.8420652654
15.8275190677
15.813292882
15.7996280365
15.7868672533
15.7754909591
15.7661864249
15.7599588641
15.7581994712
15.764060136
15.7684504345
-2.13882315729
-2.16032803187
-2.18912570795
-2.22605690183
-2.27058710566
-2.32521432073
-2.39635817394
-2.48909212591
-2.60780579087
-2.7559051001
-2.9360470981
-3.15031596397
-3.40032845493
-3.68728541509
-4.01201446052
-4.37498564178
-4.77633863791
-5.21588433415
-5.69312833218
-6.20726345781
-6.7571920417
-7.34151125329
-7.95853512488
-8.60627543476
-9.28246543745
-9.98453996695
-10.7096642339
-11.4547202314
-12.2163457912
-12.990932862
-13.7746822866
-14.5636200159
-15.3536704145
-16.1406910774
-16.920561955
-17.6892320983
-18.4428144831
-19.1776308734
-19.8902966269
-20.5777499701
-21.2373107402
-21.8666774437
-22.4639480671
-23.0275830496
-23.5563957388
-24.0494905795
-24.5062335086
-24.9261818361
-25.3090501288
-25.6546385798
-25.9627972035
-26.2333740326
-26.4662059575
-26.6610798672
-26.8177465812
-26.9358619938
-27.0150594227
-27.0549034008
-27.054650737
-27.0129819507
-26.9291239112
-26.8037807662
-26.638413715
-26.4343603927
-26.1935146592
-25.9185998884
-25.6125243334
-25.2785000257
-24.9199507019
-24.5403901028
-24.1433284898
-23.7321675293
-23.3101275308
-22.8801618455
-22.444904767
-22.0066110214
-21.5671145595
-21.1277741584
-20.6894664299
-20.2525676983
-19.8169323057
-19.3818120204
-18.9457343497
-18.5062448268
-18.0595341461
-17.5999819004
-17.1197459513
-16.6083891671
-16.0526899606
-15.4367994623
-14.7429686533
-13.9525829613
-13.047439914
-12.0113663915
-10.8320677114
-9.50284263217
-8.02400858594
-6.40385603763
-4.65908811217
-2.81434531761
-0.90112655015
1.04423293669
2.98310402753
4.87700083645
6.68983683018
8.39218516079
9.96195674416
11.3851509386
12.6512755058
13.758609243
14.710275743
15.5150070846
16.1906459797
16.7378661184
17.1826124958
17.5472209889
17.8329339318
18.0505130457
18.2072022403
18.311487807
18.3698346391
18.3842422663
18.3587333853
18.2997913048
18.2147840737
18.1106819291
17.9936161759
17.8686529847
17.7399216705
17.6106406339
17.4833231843
17.3598165511
17.2414869901
17.1292438841
17.0236925981
16.9251355131
16.8336947253
16.7493071736
16.6717959723
16.6008845395
16.5362359081
16.4774889713
16.424165826
16.3758498616
16.3322096139
16.2928351757
16.2572940863
16.225166747
16.1960519753
16.1695778374
16.1453977062
16.1231974307
16.102686315
16.0836037818
16.0657115178
16.0487982194
16.0326719196
16.0171633932
16.0021207557
15.9874136879
15.9729271013
15.9585661045
15.9442482691
15.9299099111
15.9155023334
15.9009936666
15.8863698784
15.8716433328
15.8568494902
15.8420524841
15.8273543477
15.8129087997
15.7989312582
15.7857241897
15.7737034132
15.7634405554
15.7557179866
15.7514619087
15.752350051
15.7474071891
-2.1237036717
-2.15505831222
-2.20108021004
-2.25918193117
-2.33028809141
-2.41610555287
-2.51942391576
-2.64349718851
-2.79176786259
-2.96734452597
-3.17289784789
-3.41063129178
-3.68229966114
-3.98923033672
-4.33235952615
-4.71224953672
-5.12912041687
-5.58285568746
-6.07302845099
-6.59889617352
-7.15942293008
-7.75326442777
-8.37878809024
-9.03405187579
-9.71682452995
-10.4245630826
-11.1544383681
-11.9033186862
-12.6678072322
-13.4442403606
-14.2287439296
-15.0172535674
-15.8055942553
-16.5895237627
-17.3648327389
-18.1274035322
-18.8733151708
-19.5988996396
-20.3008330185
-20.9761695568
-21.6223989346
-22.2374384322
-22.819641443
-23.3677481335
-23.8808606031
-24.3583695667
-24.799909833
-25.2052790798
-25.5743906867
-25.9071943536
-26.203637335
-26.4636150349
-26.6869614221
-26.8734139554
-27.0225773592
-27.133950965
-27.206973722
-27.2408561895
-27.2341758693
-27.1850113424
-27.0927858399
-26.9586492137
-26.7837078653
-26.569128006
-26.3171628063
-26.0307192928
-25.7129209898
-25.3672387729
-24.9973345791
-24.6069363025
-24.1997266894
-23.7792398708
-23.3487884425
-22.9113964441
-22.4697636416
-22.026241646
-21.5828147649
-21.1410634602
-20.7021434608
-20.2667608063
-19.8351108583
-19.406759242
-18.980477251
-18.5539754509
-18.1235300502
-17.6835692709
-17.2263109597
-16.7414461012
-16.215898431
-15.6338725766
-14.9773858856
-14.2271206996
-13.3634489262
-12.3679585687
-11.2254630752
-9.92619559104
-8.467703545
-6.85636218255
-5.10869476472
-3.25088228065
-1.31743897451
0.651279746587
2.61332039089
4.528513287
6.36026708997
8.07978534075
9.66574773073
11.100236188
12.3762414755
13.4934272084
14.4599242379
15.2778202203
15.9633704235
16.5378094773
17.0081494499
17.3863635134
17.6840074778
17.9113817338
18.076715462
18.1878604693
18.2512080942
18.2710472245
18.2522807881
18.2011029616
18.1242792949
18.0283176384
17.9190369522
17.8013613554
17.6793459987
17.5562117563
17.4344832866
17.3160551662
17.202325092
17.094252516
16.9924771508
16.8973470892
16.8090104875
16.7274387419
16.6524765869
16.5838760485
16.5213152558
16.464430166
16.4127902737
16.3659893173
16.3236818355
16.2854746251
16.2509555173
16.2197228276
16.1913919694
16.1656059392
16.1420296144
16.1203590303
16.1003132876
16.0816402581
16.0641084697
16.0475107044
16.0316590958
16.0163898318
16.0015548165
15.9870264221
15.9726911925
15.9584544637
15.9442352482
15.9299683361
15.9156034205
15.9011103184
15.8864738878
15.8716969581
15.8568032171
15.8418485253
15.8269186613
15.8121395155
15.7976858436
15.7837963755
15.7707875275
15.7590596516
15.7490697229
15.7411090722
15.7354408075
15.7205614712
-2.22988075547
-2.26708222858
-2.32245386933
-2.39513322464
-2.4853136028
-2.5939069778
-2.72268749602
-2.87383103855
-3.04969652109
-3.25257639295
-3.48458732132
-3.74757882943
-4.04309284866
-4.37233747997
-4.73619176414
-5.13520181657
-5.56959990144
-6.03930179306
-6.54392765642
-7.08279242868
-7.65492422836
-8.25904595795
-8.8935909119
-9.55667715673
-10.2461230905
-10.9594198972
-11.6937525076
-12.445978926
-13.2126653277
-13.9900831377
-14.7742678176
-15.561043224
-16.3461100827
-17.1251011924
-17.8936957456
-18.6476940167
-19.3831387613
-20.0963843089
-20.7841969671
-21.4437935547
-22.0728958131
-22.6697135392
-23.2329368362
-23.761668095
-24.2553767892
-24.7138093833
-25.1369271401
-25.5248075647
-25.8775843117
-26.1953466349
-26.4781139226
-26.7257972424
-26.9381747517
-27.114863235
-27.2552340383
-27.3585358558
-27.4239403725
-27.4501042536
-27.4346564179
-27.3758789126
-27.2739909557
-27.1297908975
-26.9436801381
-26.7170212681
-26.452529247
-26.1531134405
-25.8221312309
-25.4632805529
-25.0804453515
-24.6775519969
-24.2584412324
-23.826761353
-23.385910296
-22.939000658
-22.4888576272
-22.038038222
-21.588840947
-21.1432524527
-20.7028639852
-20.2687825437
-19.8415015199
-19.4207402571
-19.0052874785
-18.5927894249
-18.1794977075
-17.7599876705
-17.3268921185
-16.8706479192
-16.379087499
-15.8370149495
-15.2262706408
-14.5262259569
-13.7147502687
-12.7698267924
-11.6721430102
-10.4082111288
-8.97302045558
-7.37186742215
-5.62237624165
-3.75376080452
-1.80374791244
0.183342506158
2.16416775711
4.09838557695
5.94989474121
7.68436927305
9.28319738517
10.7309529514
12.0235885031
13.1583059303
14.1397124127
14.9849617287
15.7010393787
16.2970987725
16.7859294933
17.1803987856
17.4920694869
17.731250708
17.9067796363
18.02665707
18.0976411165
18.1253214547
18.1152500675
18.0735765466
18.0066358521
17.9205673868
17.8208569143
17.7122777916
17.5987533918
17.4834993212
17.3690058829
17.2572206918
17.1495443128
17.0470016938
16.9502458164
16.8596926126
16.7755119102
16.6977121698
16.6261673909
16.5606624302
16.5008967326
16.446513954
16.3971340536
16.3523901733
16.3119104884
16.2753072114
16.2421946534
16.2121948837
16.1849477294
16.1601125597
16.1373747571
16.1164415623
16.0970469576
16.0789449622
16.0619143098
16.0457550313
16.0302885944
16.0153540177
16.0008091288
15.9865280286
15.9724023903
15.9583386775
15.9442574642
15.9300942943
15.9158017413
15.9013443023
15.8866971292
15.8718547488
15.8568355699
15.8416791878
15.8264466954
15.8112289707
15.7961517576
15.7813805134
15.7671090813
15.7535343643
15.740764411
15.728469283
15.7158196115
15.6909929004
-2.46108326823
-2.49769042979
-2.55510920442
-2.63445429977
-2.73558767764
-2.8589265989
-3.00549599128
-3.17666085827
-3.37396797169
-3.59898832238
-3.85323043757
-4.13805728337
-4.45464037419
-4.80391762912
-5.18658166342
-5.60305894876
-6.05351567361
-6.53784317687
-7.05566955914
-7.60634197763
-8.18893788874
-8.80223973461
-9.44474389177
-10.1146282373
-10.8097607448
-11.5276649536
-12.2655346624
-13.020207441
-13.7881962459
-14.565684815
-15.348588984
-16.1325871243
-16.9132200698
-17.6859607411
-18.4463487741
-19.1900859581
-19.9131777839
-20.612019609
-21.2835071046
-21.9250762387
-22.5347509635
-23.1111108626
-23.6532599606
-24.1607321144
-24.6334197194
-25.0714620102
-25.4751612142
-25.8448671079
-26.1809098718
-26.4835098957
-26.7527479696
-26.9885220204
-27.1904951152
-27.3580565
-27.4903397287
-27.5862411482
-27.6445146363
-27.663421366
-27.6403275096
-27.5735450434
-27.4634722838
-27.3099506098
-27.1130111574
-26.874764557
-26.5979562706
-26.2855650584
-25.9411944052
-25.5687880613
-25.1724747074
-24.7564040284
-24.3246074805
-23.8808980544
-23.4288347976
-22.9717265897
-22.5126485447
-22.0544616135
-21.5998170362
-21.1510558401
-20.7100465493
-20.2780418146
-19.8555161409
-19.4420653561
-19.0363688621
-18.6361467873
-18.2380333048
-17.8373383385
-17.4277032988
-17.0007828086
-16.5455422752
-16.0472743003
-15.486981758
-14.8417548682
-14.0860162082
-13.1937486474
-12.141558853
-10.9130671867
-9.50226497348
-7.91460011565
-6.16902356159
-4.29740966247
-2.33804363032
-0.338377734481
1.65727806277
3.60590870006
5.47010973065
7.21631673169
8.83110599995
10.2975606612
11.6069491069
12.768204119
13.7822049978
14.6535918552
15.392155946
16.0093595402
16.5176005553
16.9292823494
17.2560359665
17.5083996794
17.6956959627
17.8262242021
17.9072186724
17.9450140385
17.9456600609
17.915288707
17.8599900246
17.7855558437
17.6972142419
17.5995219816
17.4962978198
17.3906767208
17.2851402159
17.1816239119
17.0815651694
16.9860087858
16.8956544362
16.8109502739
16.7321100685
16.6591627769
16.5920304314
16.530526296
16.4743796089
16.4232436747
16.3768055082
16.3347352073
16.2966307252
16.2621196904
16.2308457888
16.2024601623
16.176631771
16.153043472
16.1314019049
16.1114310766
16.0928797269
16.0755157054
16.0591324979
16.0435393875
16.0285661856
16.014058129
15.9998806781
15.9859135617
15.9720538768
15.9582091308
15.9443033821
15.9302739596
15.9160701049
15.9016473734
15.8869774277
15.8720516026
15.8568759383
15.8414685389
15.8258639629
15.8101163293
15.7942978196
15.7784859649
15.7627440076
15.7470618323
15.7312035452
15.7143036744
15.6947551537
15.6605273769
-2.77642111998
-2.81040757225
-2.86714072039
-2.94877051439
-3.05517592058
-3.18677969081
-3.34426996971
-3.52852764486
-3.74055804989
-3.98139891359
-4.25206343454
-4.55347654652
-4.88644030365
-5.25159272494
-5.64939413827
-6.0800995375
-6.54375772074
-7.04018823786
-7.56898554867
-8.12949308582
-8.72080695228
-9.34174273339
-9.9908366033
-10.6663046804
-11.366043426
-12.0875868469
-12.8281137242
-13.5844143113
-14.3529179757
-15.129686946
-15.91048141
-16.6907975459
-17.465982089
-18.2313216323
-18.9822009788
-19.7142241751
-20.4233811413
-21.1061511239
-21.7596214057
-22.381523509
-22.9702654131
-23.5248748888
-24.0449372933
-24.530466869
-24.9818045578
-25.3994840323
-25.7841350875
-26.1363630248
-26.4566810944
-26.7454194875
-27.0026786811
-27.2282635961
-27.4216437406
-27.5818132325
-27.7075024775
-27.7973875077
-27.849799471
-27.8625732672
-27.833641552
-27.7616001104
-27.6453828962
-27.4839082562
-27.277759813
-27.0291784321
-26.740749457
-26.4157613966
-26.0581289872
-25.6721210149
-25.2621692635
-24.8326990954
-24.3880023539
-23.9321504028
-23.468964085
-23.0020059006
-22.5345556333
-22.0695978833
-21.6098345501
-21.1576184853
-20.714831494
-20.2827482965
-19.8619317168
-19.4522223043
-19.0527835734
-18.6621396653
-18.2779919563
-17.896739992
-17.5127047719
-17.1177629765
-16.7007569781
-16.246428766
-15.7343620271
-15.1392652699
-14.4327799658
-13.5864642678
-12.5750804936
-11.3809656183
-9.99823260621
-8.43235193377
-6.70149097652
-4.83859396472
-2.88040225397
-0.87846164112
1.11728604967
3.06924787062
4.94412294206
6.70251061607
8.32946234266
9.81963460189
11.1597798477
12.3471492954
13.3847701294
14.2791380677
15.0396921126
15.6775809057
16.2049695776
16.6340990237
16.9766936722
17.2434833561
17.4441517673
17.5872871298
17.6805420746
17.7307004222
17.7441499216
17.7269995415
17.6851775763
17.6241741409
17.5489983665
17.4639764674
17.3728228373
17.278557818
17.1836527358
17.0900010606
16.9990779022
16.9119307483
16.8293119337
16.7516930751
16.6793290289
16.6122768644
16.5505073749
16.4938726551
16.4421355904
16.3949687319
16.3521217465
16.3132894545
16.2780614702
16.2460909439
16.2170524929
16.1906358889
16.1665379013
16.1444724346
16.1241670458
16.1053701713
16.0878473757
16.0713880956
16.0557960989
16.0408943974
16.0265206651
16.0125329494
15.9988028371
15.9852197378
15.9716825077
15.9581042445
15.9444109207
15.9305414826
15.9164388005
15.9020564164
15.8873652206
15.8723480081
15.8569928457
15.8412971909
15.8252666056
15.8089161585
15.7922544205
15.7752690905
15.7578923983
15.7399095481
15.7207783947
15.6992067262
15.6730789305
15.6303686369
-3.12900386612
-3.16021598109
-3.21565965897
-3.29759039906
-3.40606035399
-3.54170250517
-3.70514352123
-3.89706364624
-4.11817596354
-4.36918339572
-4.65075506767
-4.96348583518
-5.3078783746
-5.68431007306
-6.09302469581
-6.53410447413
-7.0074681966
-7.51284379446
-8.04976812415
-8.61755489135
-9.21529221475
-9.8418023782
-10.4956355011
-11.1750209652
-11.87785983
-12.6016737247
-13.3436045834
-14.1003749609
-14.8683116974
-15.6433389145
-16.4210473224
-17.196742263
-17.9655745629
-18.7226509032
-19.4632191538
-20.1828167743
-20.8774605037
-21.5437669972
-22.179074763
-22.7814687283
-23.34978756
-23.8835353809
-24.382784314
-24.8480118966
-25.2799698966
-25.6795366843
-26.0476159614
-26.3850163997
-26.6923724016
-26.9700519791
-27.2180846719
-27.4360793102
-27.6232336033
-27.7783888096
-27.9002317914
-27.9873313446
-28.0378773422
-28.0497188454
-28.0206007656
-27.9479778735
-27.8288590508
-27.6617023423
-27.447794686
-27.1894875621
-26.8896602674
-26.5521308031
-26.1812607535
-25.7817238283
-25.3582964708
-24.9157154996
-24.4585610708
-23.9911630623
-23.5175351249
-23.0412963096
-22.5656448678
-22.0933791942
-21.6270025326
-21.1688179888
-20.7209153516
-20.2850211519
-19.8623774432
-19.4536955057
-19.0591574976
-18.6783272427
-18.3097795407
-17.9501548841
-17.5928347991
-17.2278102914
-16.8418158332
-16.4185685421
-15.9378936421
-15.3746807905
-14.7008076809
-13.8885341962
-12.9128822405
-11.7553897096
-10.4093135382
-8.87762816245
-7.17582711375
-5.33897589465
-3.40523668385
-1.41983327519
0.567438158848
2.51494472427
4.39217023639
6.16685777892
7.81573877964
9.32529456004
10.685748189
11.8940426054
12.9524869388
13.8673182872
14.6477122499
15.3047039924
15.8502950576
16.2966566663
16.6555110002
16.9377363142
17.1532056496
17.3107647834
17.4183148234
17.4829492416
17.5112016263
17.5091838317
17.482638014
17.4368435457
17.3765609662
17.3059417646
17.2285404007
17.147297228
17.0646151157
16.9823767282
16.902045023
16.824695001
16.7511035224
16.6817872447
16.6170082038
16.5568902764
16.5014319198
16.4505388723
16.4040021155
16.3615365764
16.3229463289
16.2879208413
16.2560748542
16.2270983745
16.2007054507
16.1766228146
16.1545808167
16.1343256539
16.1156121752
16.0982142361
16.0819203035
16.0665383579
16.0518871776
16.0378049728
16.0241432619
16.0107722176
15.9975732857
15.9844430943
15.9712861798
15.958022234
15.9445796607
15.9308963496
15.916914021
15.9025871657
15.8878805176
15.8727638394
15.8572087604
15.8411904853
15.8246863997
15.8076650369
15.7900708622
15.7718049644
15.7526694152
15.7322618621
15.7097812147
15.6836254989
15.6513913607
15.6012747607
-3.47532145379
-3.50419671492
-3.55840850179
-3.63980031293
-3.74868105219
-3.88589393625
-4.05209938252
-4.24792637089
-4.47395891721
-4.73072102949
-5.01867619423
-5.33820488164
-5.68960234948
-6.07305457151
-6.48863760271
-6.93629226385
-7.41582421709