/*--------------------------------*- C++ -*----------------------------------*\
| =========                 |                                                 |
| \\      /  F ield         | OpenFOAM: The Open Source CFD Toolbox           |
|  \\    /   O peration     | Version:  v1806                                 |
|   \\  /    A nd           | Web:      www.OpenFOAM.com                      |
|    \\/     M anipulation  |                                                 |
\*---------------------------------------------------------------------------*/
FoamFile
{
    version     2.0;
    format      ascii;
    class       surfaceScalarField;
    location    "21";
    object      phia;
}
// * * * * * * * * * * * * * * * * * * * * * * * * * * * * * * * * * * * * * //

dimensions      [0 3 -1 0 0 0 0];
oriented        oriented;


internalField   nonuniform List<scalar> 
24170
(
2.10381023195e-07
1.12689498238e-07
2.82654305697e-07
-6.8651330136e-08
2.68043273263e-07
1.56520109923e-08
2.777971394e-07
-1.12943972848e-08
2.83514133461e-07
-7.30789192157e-09
2.91905508284e-07
-9.77352329376e-09
3.0113221554e-07
-1.08351267344e-08
3.12499680538e-07
-1.17835648664e-08
3.24874183935e-07
-1.28575286908e-08
3.39002729547e-07
-1.35637010971e-08
3.54454901234e-07
-1.49569589663e-08
3.73753725407e-07
-1.84338220412e-08
4.02304269035e-07
-2.77756115666e-08
4.4714944973e-07
-4.40283459389e-08
5.0535721391e-07
-5.75025383882e-08
5.5259531756e-07
-4.66082096269e-08
6.11430321497e-07
-5.83427419642e-08
-5.44878507954e-07
1.15662469603e-06
7.63296397799e-07
-2.98325540239e-07
3.77939262479e-07
3.23128679902e-07
4.46130913824e-07
-5.03889223578e-08
4.532488368e-07
-1.92897264564e-08
4.68952880012e-07
-2.45826369174e-08
4.84250033255e-07
-2.67603902218e-08
5.01401484239e-07
-2.97508662383e-08
5.20485449335e-07
-3.16165874139e-08
5.40818060942e-07
-3.35425223907e-08
5.62882620317e-07
-3.50136181993e-08
5.86634698876e-07
-3.78908098786e-08
6.14341975558e-07
-4.5084266505e-08
6.48692614449e-07
-6.11492427739e-08
6.90046855423e-07
-8.44764413895e-08
7.29944528745e-07
-9.66175791648e-08
7.63596316964e-07
-7.95904015633e-08
8.52413389973e-07
-1.46622057984e-07
-6.63347048035e-07
9.71311303914e-07
-1.24484868092e-07
1.91611540628e-07
4.40555602303e-07
-2.42457954813e-07
3.62564290987e-07
2.6675526955e-08
3.71225454351e-07
-2.9951495603e-08
3.69642146007e-07
-2.47663176211e-08
3.73704295534e-07
-3.21709749938e-08
3.77207219708e-07
-3.45243782848e-08
3.82884773906e-07
-3.77850664448e-08
3.89680621803e-07
-4.07762444936e-08
3.98647907535e-07
-4.38940933394e-08
4.10359332674e-07
-4.95295498976e-08
4.27241746551e-07
-6.16986184638e-08
4.51044016154e-07
-8.46807235966e-08
4.80365747276e-07
-1.13479514133e-07
5.11817177051e-07
-1.27774469282e-07
5.63588445189e-07
-1.31085524391e-07
6.7801289342e-07
-2.60805590771e-07
-6.85053521045e-07
6.99916680313e-07
8.1764938417e-07
-2.28432876221e-07
3.4100950109e-07
2.36512250802e-07
4.50883565391e-07
-8.34072774726e-08
4.37914510689e-07
-1.8977687563e-08
4.50659910151e-07
-3.98628103651e-08
4.55972431383e-07
-3.96650346927e-08
4.64229860193e-07
-4.46696803767e-08
4.72650024781e-07
-4.72900344147e-08
4.81708807781e-07
-5.04322558255e-08
4.91659093316e-07
-5.38323760994e-08
5.03029723841e-07
-6.06551612292e-08
5.16936767599e-07
-7.51727872106e-08
5.32692520154e-07
-9.99663121072e-08
5.4680429627e-07
-1.27116595282e-07
5.6087859403e-07
-1.41410557791e-07
5.98390095239e-07
-1.6820493173e-07
6.60767202845e-07
-3.22828525552e-07
-6.31210466222e-07
6.07268059729e-07
1.86294235971e-08
1.69469295611e-07
5.0266771339e-07
-2.50256481903e-07
4.13090643376e-07
4.08901525321e-09
4.30479789416e-07
-3.83714748573e-08
4.31851512142e-07
-4.29034511964e-08
4.400124398e-07
-4.90047586616e-08
4.47689563048e-07
-5.33405525995e-08
4.57403829502e-07
-5.75028946656e-08
4.68533561944e-07
-6.196730592e-08
4.82044491954e-07
-6.74875484783e-08
4.98591973905e-07
-7.73100222107e-08
5.18510060813e-07
-9.5069959276e-08
5.39622465147e-07
-1.21003687482e-07
5.58747009671e-07
-1.46109788215e-07
5.81182230466e-07
-1.63695431847e-07
6.21909372068e-07
-2.08763476074e-07
6.53124881862e-07
-3.5386701115e-07
-5.61305429591e-07
5.83368108247e-07
8.05992529833e-07
-1.86120948533e-07
4.23728406179e-07
1.30781688892e-07
4.69254896841e-07
-4.3159166644e-08
4.7752545552e-07
-4.88991358634e-08
4.82488374152e-07
-5.00275945671e-08
4.88312810271e-07
-5.67201313172e-08
4.94500301248e-07
-6.0994857491e-08
5.01681041964e-07
-6.56559828192e-08
5.09878687843e-07
-7.07439150559e-08
5.20013965009e-07
-7.78890371702e-08
5.32785578725e-07
-9.01436356943e-08
5.47985273194e-07
-1.10191993967e-07
5.63446829108e-07
-1.36297096815e-07
5.78439118056e-07
-1.60890737524e-07
6.0014951673e-07
-1.85175206008e-07
6.33026001352e-07
-2.41413071539e-07
6.42309022184e-07
-3.62917371596e-07
-4.99010880424e-07
5.80295916627e-07
2.43865846693e-07
4.81512465775e-08
5.05426951047e-07
-1.34536994101e-07
4.94895133741e-07
-3.50725391906e-08
4.97945719888e-07
-5.37372596969e-08
5.05061508483e-07
-5.83788235509e-08
5.12304516158e-07
-6.4822652394e-08
5.20308234625e-07
-6.96009933484e-08
5.29188796995e-07
-7.49210994011e-08
5.39114615138e-07
-8.09501030297e-08
5.5066541131e-07
-8.96362794296e-08
5.63986950506e-07
-1.03596269124e-07
5.78077655338e-07
-1.24343105937e-07
5.91021473648e-07
-1.49238724275e-07
6.03820827613e-07
-1.73639100909e-07
6.22259718421e-07
-2.03528019149e-07
6.42978953599e-07
-2.62010703873e-07
6.37497163727e-07
-3.57269402829e-07
-4.47568742291e-07
5.86090856974e-07
6.18398984479e-07
-5.66662973914e-08
5.16931885288e-07
-3.6445966476e-08
5.2735427744e-07
-4.80013629919e-08
5.34956239834e-07
-6.33523575579e-08
5.40181722662e-07
-6.52474169699e-08
5.46695071975e-07
-7.2591615508e-08
5.53747302047e-07
-7.76012279797e-08
5.61912268389e-07
-8.37092047619e-08
5.71352993572e-07
-9.08236355307e-08
5.82476561647e-07
-1.01001883848e-07
5.94944391332e-07
-1.16201532758e-07
6.07395494275e-07
-1.36820203089e-07
6.18497594927e-07
-1.60301560903e-07
6.29801628332e-07
-1.84850648808e-07
6.43996429832e-07
-2.17602530302e-07
6.53859950982e-07
-2.71727135527e-07
6.40260474631e-07
-3.43564870231e-07
-4.04660907928e-07
5.97541672878e-07
5.2512316661e-07
-3.1359682089e-08
5.61557221121e-07
-7.64499254685e-08
5.65421494043e-07
-5.41862500069e-08
5.70820671633e-07
-7.02074088825e-08
5.76645800603e-07
-7.19629869472e-08
5.82905443272e-07
-7.93910070875e-08
5.89761337228e-07
-8.4793880806e-08
5.97518058258e-07
-9.16871658204e-08
6.06447351686e-07
-9.99146874554e-08
6.16688345117e-07
-1.11371897558e-07
6.27636722903e-07
-1.27224092095e-07
6.38000745583e-07
-1.47227074034e-07
6.4714204456e-07
-1.6943916895e-07
6.56323932275e-07
-1.93997770047e-07
6.65510263812e-07
-2.26721801002e-07
6.67058156811e-07
-2.73183570597e-07
6.49811558334e-07
-3.2617051448e-07
-3.68398716944e-07
6.13526059388e-07
6.00091108193e-07
-4.18337963961e-08
5.98316851874e-07
-7.8655889473e-08
6.04898910914e-07
-6.34221234801e-08
6.09882312498e-07
-7.70676538392e-08
6.1550295285e-07
-7.88813854665e-08
6.21403826603e-07
-8.62499478915e-08
6.27917913441e-07
-9.19534084536e-08
6.35206858227e-07
-9.94435353904e-08
6.43481616655e-07
-1.08486660689e-07
6.52608446931e-07
-1.20674028918e-07
6.61818504953e-07
-1.36536479855e-07
6.70083832615e-07
-1.55528330797e-07
6.77170763969e-07
-1.76488143745e-07
6.83609847231e-07
-2.00375915296e-07
6.87768151406e-07
-2.30778604005e-07
6.83445681132e-07
-2.68741738089e-07
6.64792927716e-07
-3.074704404e-07
-3.36807749874e-07
6.33361528537e-07
6.39707097165e-07
-4.7790942431e-08
6.42083813096e-07
-8.41837935606e-08
6.47389767331e-07
-7.09534589513e-08
6.51906092452e-07
-8.29709461619e-08
6.5710580243e-07
-8.49941733972e-08
6.62523252711e-07
-9.21982138418e-08
6.68510956556e-07
-9.83179731179e-08
6.75153205487e-07
-1.06312084993e-07
6.82512138107e-07
-1.16013699246e-07
6.90260011507e-07
-1.28520446225e-07
6.97602869416e-07
-1.43939750182e-07
7.03795120278e-07
-1.61703277131e-07
7.0868375587e-07
-1.81354945786e-07
7.12070121541e-07
-2.03681742063e-07
7.11766046552e-07
-2.30392772154e-07
7.03471617862e-07
-2.60341744092e-07
6.84553529739e-07
-2.8839073465e-07
-3.08917709192e-07
6.56666280931e-07
5.75908065298e-07
-5.45085849924e-08
5.77448043185e-07
-8.93063441842e-08
5.81338220885e-07
-7.73436068057e-08
5.84659883927e-07
-8.79365797876e-08
5.88635133465e-07
-9.01029095368e-08
5.92725450418e-07
-9.70192761357e-08
5.97256188126e-07
-1.03368996579e-07
6.0220368673e-07
-1.11601072135e-07
6.07523294123e-07
-1.21575194731e-07
6.12846243012e-07
-1.33987787469e-07
6.17563470098e-07
-1.48741966463e-07
6.21176827038e-07
-1.65464804829e-07
6.23558718669e-07
-1.83676027042e-07
6.24074074357e-07
-2.0425048846e-07
6.2107645498e-07
-2.27332705222e-07
6.12177304274e-07
-2.51429695762e-07
5.96412097752e-07
-2.7266684118e-07
-2.87566958662e-07
5.75109605949e-07
7.02517655906e-07
-5.97246634185e-08
7.03310870589e-07
-9.251570155e-08
7.07123614737e-07
-8.29766047284e-08
7.10324027267e-07
-9.25395808991e-08
7.14299979823e-07
-9.50084840125e-08
7.18332101329e-07
-1.01776429108e-07
7.22789751069e-07
-1.08302952683e-07
7.27528896739e-07
-1.1672393883e-07
7.32422248976e-07
-1.26712208599e-07
7.36990451954e-07
-1.38743325746e-07
7.40585163478e-07
-1.52614013631e-07
7.42893177883e-07
-1.67825364048e-07
7.43430787017e-07
-1.84393382201e-07
7.41526615517e-07
-2.02313539577e-07
7.35477978649e-07
-2.21393444533e-07
7.23812097455e-07
-2.39793639666e-07
7.06176471862e-07
-2.55082847824e-07
-2.65245073752e-07
6.83805177511e-07
8.55454953781e-07
-6.49471705809e-08
8.5616213971e-07
-9.54093690729e-08
8.59612196196e-07
-8.80301421318e-08
8.62451728422e-07
-9.61687953104e-08
8.65997845082e-07
-9.93752483267e-08
8.69627502336e-07
-1.05735819062e-07
8.73500069264e-07
-1.12599054184e-07
8.7750009554e-07
-1.20879736549e-07
8.81293292435e-07
-1.30723346581e-07
8.84357422113e-07
-1.41997577479e-07
8.86152573972e-07
-1.54636626168e-07
8.86251211384e-07
-1.68134427418e-07
8.84221152919e-07
-1.82436274967e-07
8.79090506005e-07
-1.9729671276e-07
8.69725229587e-07
-2.12062334034e-07
8.55207685611e-07
-2.25364108708e-07
8.35726869761e-07
-2.35675768651e-07
-2.41956836688e-07
8.12363824087e-07
1.04115830261e-06
-6.80894389498e-08
1.04162979929e-06
-9.76145255535e-08
1.04442144559e-06
-9.19505252121e-08
1.04614540735e-06
-9.88608111326e-08
1.04887032361e-06
-1.02253258104e-07
1.0512788053e-06
-1.08560531578e-07
1.05399746166e-06
-1.15202542674e-07
1.05632852915e-06
-1.23389355296e-07
1.05823304966e-06
-1.32508220516e-07
1.05883541046e-06
-1.42870722289e-07
1.0579680819e-06
-1.53812818494e-07
1.05495740767e-06
-1.65355568972e-07
1.04950366851e-06
-1.76962186696e-07
1.04064058019e-06
-1.88511084543e-07
1.02774989295e-06
-1.9915326756e-07
1.01042810651e-06
-2.08083523407e-07
9.89125250945e-07
-2.1438532578e-07
-2.17605062574e-07
9.64773584215e-07
1.2692607489e-06
-7.13245038747e-08
1.26761694919e-06
-9.74968237574e-08
1.26883582538e-06
-9.41479016855e-08
1.26894325069e-06
-9.9326447902e-08
1.26960268618e-06
-1.03254187752e-07
1.27016433157e-06
-1.08942044459e-07
1.27038433101e-06
-1.15486448813e-07
1.27024104495e-06
-1.22917285654e-07
1.26887755934e-06
-1.31241357696e-07
1.26624904312e-06
-1.40046843366e-07
1.26146831415e-06
-1.49264918271e-07
1.25465281172e-06
-1.58377398804e-07
1.24490062182e-06
-1.67298280003e-07
1.23205941365e-06
-1.75509187078e-07
1.2155157131e-06
-1.82613276016e-07
1.19552167147e-06
-1.87985748448e-07
1.17243461135e-06
-1.91292224214e-07
-1.92412917978e-07
1.1472787261e-06
1.55264247032e-06
-7.94676170377e-08
1.54181182104e-06
-8.72478707241e-08
1.53979628915e-06
-9.26633152523e-08
1.53711013808e-06
-9.68760956409e-08
1.53459284489e-06
-1.00760491478e-07
1.53169708403e-06
-1.05949400411e-07
1.52835414347e-06
-1.11914308872e-07
1.52408146199e-06
-1.18460673256e-07
1.51853448251e-06
-1.2545031384e-07
1.51114438074e-06
-1.32615893009e-07
1.50177412248e-06
-1.39733474433e-07
1.48994872232e-06
-1.46516943186e-07
1.47554327174e-06
-1.52730604457e-07
1.45818036438e-06
-1.58093674177e-07
1.43798149231e-06
-1.6228339913e-07
1.41506653674e-06
-1.65029083534e-07
1.38993667969e-06
-1.66100520824e-07
-1.65201334119e-07
1.36272853826e-06
1.83549840169e-06
-3.23279665009e-08
1.87148927883e-06
-1.23926433554e-07
1.86984562579e-06
-9.17339434871e-08
1.86242239991e-06
-8.9507684606e-08
1.85492445218e-06
-9.31739228849e-08
1.84723522004e-06
-9.80060272695e-08
1.839029269e-06
-1.03355203316e-07
1.82964332131e-06
-1.08809623373e-07
1.81889155078e-06
-1.14351243062e-07
1.8062087362e-06
-1.19763870875e-07
1.79159814291e-06
-1.24881660895e-07
1.77469742952e-06
-1.29502179165e-07
1.75555685507e-06
-1.33442236325e-07
1.73409034366e-06
-1.36550369801e-07
1.71050759248e-06
-1.38645828252e-07
1.68514958315e-06
-1.39649327783e-07
1.65862576604e-06
-1.39630038786e-07
-1.39226485347e-07
1.63260872372e-06
2.5151560445e-06
-2.52948996187e-07
2.31540035621e-06
7.32018548857e-08
2.266727937e-06
-4.3413549368e-08
2.24548947185e-06
-6.91926664442e-08
2.23053587886e-06
-7.78806316544e-08
2.21603319306e-06
-8.34110235497e-08
2.20131907585e-06
-8.78719850926e-08
2.18506047603e-06
-9.21734898114e-08
2.16740512596e-06
-9.60683162605e-08
2.1477919705e-06
-9.98263883192e-08
2.12639585583e-06
-1.03099024134e-07
2.10313225834e-06
-1.05999943085e-07
2.0781223698e-06
-1.08252092808e-07
2.0516501426e-06
-1.09924788561e-07
2.02384073079e-06
-1.10834831693e-07
1.99538557425e-06
-1.11121758117e-07
1.96607729162e-06
-1.10495804355e-07
-1.07752365063e-07
1.93459482055e-06
1.20511149114e-06
2.17008201547e-07
1.59703173263e-06
-3.21760877327e-07
1.64280972275e-06
-9.35413080449e-08
1.64028351169e-06
-6.7902479e-08
1.63087735602e-06
-6.96810164853e-08
1.62057631282e-06
-7.26769858803e-08
1.60849258991e-06
-7.60606328739e-08
1.59588168798e-06
-7.88063885322e-08
1.58145288961e-06
-8.1702926828e-08
1.56644747179e-06
-8.41118322385e-08
1.54969523821e-06
-8.641751815e-08
1.53236348702e-06
-8.80486933047e-08
1.51328669412e-06
-8.93308039838e-08
1.4937546066e-06
-8.986141159e-08
1.47255717295e-06
-8.98456577277e-08
1.45063257863e-06
-8.87604686853e-08
1.4269315634e-06
-8.70666371842e-08
-8.68326086984e-08
1.40633363188e-06
2.22383593332e-06
-5.44799109226e-07
1.49836959804e-06
3.99939552171e-07
1.42677905872e-06
-2.17390489329e-08
1.41875319532e-06
-6.22958410222e-08
1.41187153201e-06
-6.33181424256e-08
1.40264346021e-06
-6.48596512646e-08
1.39287194379e-06
-6.58840886484e-08
1.38130077366e-06
-6.77335550733e-08
1.36935935785e-06
-6.9397644533e-08
1.35631768603e-06
-7.12462033787e-08
1.3431428702e-06
-7.28795637353e-08
1.32928111279e-06
-7.43214136977e-08
1.31568733584e-06
-7.53631982192e-08
1.30174213977e-06
-7.60646350463e-08
1.28865105459e-06
-7.64123527376e-08
1.27657840096e-06
-7.69003420175e-08
1.2673014872e-06
-7.75189433024e-08
-7.52298009042e-08
1.25537240241e-06
7.66092127984e-08
6.50912877134e-07
1.21030123189e-06
-7.32842576842e-07
1.26168030465e-06
-7.56357570388e-08
1.24549441231e-06
-4.58241303655e-08
1.23259337487e-06
-5.09652815992e-08
1.22050104314e-06
-5.19535904689e-08
1.20716464449e-06
-5.2937821325e-08
1.19297941467e-06
-5.36065313711e-08
1.17795729117e-06
-5.44629183098e-08
1.16205848278e-06
-5.53929167062e-08
1.14545600111e-06
-5.61343068855e-08
1.12802219254e-06
-5.68515702118e-08
1.11009254908e-06
-5.724113094e-08
1.0914971691e-06
-5.74184983752e-08
1.07227465924e-06
-5.70203319619e-08
1.05118052354e-06
-5.57980063563e-08
1.0269301485e-06
-5.32351108051e-08
-5.4087679454e-08
1.00582043629e-06
2.72734155906e-06
-9.63153351176e-07
1.08575698789e-06
9.10858473442e-07
1.078664806e-06
-6.48243264421e-08
1.09429618162e-06
-6.03726954785e-08
1.09599830906e-06
-5.13724961211e-08
1.09264084092e-06
-4.85169755069e-08
1.08827154358e-06
-4.81010353185e-08
1.083490104e-06
-4.85865228708e-08
1.07840634151e-06
-4.93192474214e-08
1.07338340598e-06
-5.00515825323e-08
1.06800953442e-06
-5.07450160762e-08
1.06257452635e-06
-5.10770242107e-08
1.0565879702e-06
-5.12456836571e-08
1.05057780241e-06
-5.09718188093e-08
1.04402052609e-06
-5.05392552961e-08
1.03875943863e-06
-5.01859617069e-08
1.03588511635e-06
-5.05252787135e-08
-4.4560966374e-08
1.02665441068e-06
-1.14836010002e-06
1.15480413802e-06
1.04634684094e-06
-1.27970151822e-06
9.70631548804e-07
1.25286962312e-08
9.40512648048e-07
-2.74669230994e-08
9.21758046196e-07
-3.08874038509e-08
9.08848132737e-07
-3.3868540416e-08
8.94286788626e-07
-3.28423592508e-08
8.78873588584e-07
-3.27421974868e-08
8.62841413677e-07
-3.29604069708e-08
8.46437825283e-07
-3.3470536224e-08
8.30011091584e-07
-3.40698161497e-08
8.13719800636e-07
-3.45840707889e-08
7.97855815997e-07
-3.50183937185e-08
7.82578384999e-07
-3.55164220815e-08
7.68193756381e-07
-3.58878498641e-08
7.53536073214e-07
-3.53959545655e-08
7.36300764146e-07
-3.31574443624e-08
-3.8948202214e-08
7.30820054466e-07
3.23114400943e-06
-1.22848612459e-06
6.60789992151e-07
1.29607647003e-06
8.52739059106e-07
-1.74663096602e-07
8.61050509417e-07
-3.24816414699e-08
8.7264575115e-07
-4.05241819768e-08
8.68801028098e-07
-2.90088706687e-08
8.67332944471e-07
-3.02810652997e-08
8.64767575073e-07
-2.95534909621e-08
8.61897865296e-07
-2.97373980211e-08
8.58636975174e-07
-2.99152912974e-08
8.54952439617e-07
-3.01220426863e-08
8.50837283757e-07
-3.02245380394e-08
8.46278093945e-07
-3.0212289173e-08
8.41029200297e-07
-3.00065709861e-08
8.3499756421e-07
-2.96319645317e-08
8.29627286627e-07
-2.99043180119e-08
8.28913810096e-07
-3.21213306394e-08
-2.30565902652e-08
8.13058643685e-07
-1.44231152543e-06
9.52579645204e-07
1.04591714202e-06
-1.18661826093e-06
6.86749301365e-07
1.88305112829e-07
7.1224493719e-07
-5.46698343172e-08
6.79416157174e-07
-4.90365651733e-09
6.7472075967e-07
-2.25528065508e-08
6.62190565823e-07
-1.67803538034e-08
6.5146720444e-07
-1.82481749986e-08
6.40034792412e-07
-1.79617480527e-08
6.28751315076e-07
-1.8374516001e-08
6.17489370081e-07
-1.86379736556e-08
6.06184064673e-07
-1.86390212922e-08
5.94974894563e-07
-1.87415798119e-08
5.83942469158e-07
-1.87588191946e-08
5.73160735933e-07
-1.86720874936e-08
5.61148567595e-07
-1.77226160504e-08
5.43274489559e-07
-1.40423323644e-08
-2.39621351356e-08
5.44469355213e-07
2.36356964474e-06
-7.67075286525e-07
3.4049312403e-07
8.41839466973e-07
7.41529821219e-07
-2.08829827617e-07
6.77738005258e-07
1.51920036379e-08
7.01667322915e-07
-2.85584404481e-08
6.89680367125e-07
-9.34184208742e-09
6.88890848681e-07
-1.49578803404e-08
6.84246235586e-07
-1.2997511133e-08
6.80259971884e-07
-1.36159240624e-08
6.75743664794e-07
-1.35930655329e-08
6.71259503112e-07
-1.36229063473e-08
6.66391559431e-07
-1.37328079733e-08
6.61639493453e-07
-1.38129754248e-08
6.57020373756e-07
-1.39457184286e-08
6.5254474594e-07
-1.40486656766e-08
6.49921575392e-07
-1.49643527585e-08
6.55696837244e-07
-1.96506316186e-08
-8.84471809628e-09
6.40902156492e-07
-8.164867959e-07
6.11459970134e-07
7.86753155014e-07
-7.55826216644e-07
4.86182171208e-07
9.6936981745e-08
5.31594928042e-07
-2.43204264571e-08
5.0471946756e-07
1.37913514606e-10
5.04237088409e-07
-7.70663783402e-09
4.95574706267e-07
-5.19554233001e-09
4.89370015278e-07
-6.14124303517e-09
4.82273631726e-07
-6.14691004533e-09
4.75659989329e-07
-6.48260978463e-09
4.69158296893e-07
-6.70798574014e-09
4.62707556265e-07
-7.06508556648e-09
4.56491616654e-07
-7.46668914956e-09
4.50575460601e-07
-7.85381149884e-09
4.44811768241e-07
-8.15269018144e-09
4.37450578149e-07
-7.50758521964e-09
4.19613444107e-07
-1.56594613268e-09
-1.46023822036e-08
4.25572616934e-07
1.32834633316e-06
-2.25813042945e-07
4.62106441655e-07
1.16844598977e-07
6.06047667135e-07
-4.09002076708e-08
5.80482030386e-07
8.00077586207e-09
5.86931363527e-07
-3.96199877179e-09
5.81501756585e-07
-8.64544618465e-10
5.79672835149e-07
-2.13242503786e-09
5.7625032889e-07
-1.95417167713e-09
5.72824488447e-07
-2.21018549739e-09
5.69080696926e-07
-2.16165617894e-09
5.65068942353e-07
-2.14643076636e-09
5.60503363825e-07
-2.25062700778e-09
5.55490905781e-07
-2.28336020202e-09
5.49924648182e-07
-2.09736216232e-09
5.43419346578e-07
-1.50555399567e-09
5.3771893477e-07
-1.65114644354e-09
5.42973269919e-07
-6.60697009334e-09
1.20554417323e-08
5.16605932085e-07
1.94946611189e-07
3.12272882875e-07
2.72015234007e-07
2.80252918554e-07
2.76437894155e-07
2.75718277453e-07
2.73684125698e-07
2.71796199405e-07
2.6966591188e-07
2.67595872661e-07
2.65494378412e-07
2.63272082819e-07
2.6102577027e-07
2.58959525944e-07
2.57482721005e-07
2.5587982702e-07
2.49345830877e-07
2.61431948444e-07
3.16839614902e-08
-4.10142222614e-08
9.2100907659e-09
1.35588512543e-08
-2.4584515007e-08
2.60426259841e-08
-5.96519453866e-08
2.92952964086e-08
-1.01784047784e-07
3.64222219179e-08
-1.39281402821e-07
3.63114109815e-08
-1.7132466979e-07
2.90163447494e-08
-1.9391177018e-07
2.24186452556e-08
-2.13213088392e-07
1.66783285777e-08
-2.25943969523e-07
1.21653621869e-08
-2.37151722583e-07
8.74427209672e-09
-2.44663362668e-07
6.43972542171e-09
-2.51878754751e-07
4.97157541725e-09
-2.57408004031e-07
4.21833517458e-09
-2.6324587569e-07
3.89282396177e-09
-2.68392553188e-07
3.85743715762e-09
-2.73979301721e-07
3.9201065134e-09
-2.79135538683e-07
4.02057628174e-09
-2.84606477571e-07
4.06361487707e-09
-2.89695585855e-07
4.05631941018e-09
-2.94966290969e-07
3.98301267287e-09
-2.99814105428e-07
3.86878903787e-09
-3.04798512574e-07
3.70680428676e-09
-3.09355655217e-07
3.54343702067e-09
-3.13965133629e-07
3.36064219581e-09
-3.18239520847e-07
3.17971740784e-09
-3.22515607165e-07
2.99485384497e-09
-3.26492783953e-07
2.82004227477e-09
-3.30359917524e-07
2.64022783462e-09
-3.33990857094e-07
2.45649321903e-09
-3.37377938693e-07
2.26322538716e-09
-3.40551550734e-07
2.05155828687e-09
-3.43336379295e-07
1.821919705e-09
-3.45909244605e-07
1.56131295597e-09
-3.47948993811e-07
1.28477569065e-09
-3.497525304e-07
9.62211853707e-10
-3.50946228782e-07
6.2334260437e-10
-3.5183108304e-07
2.42210350103e-10
-3.52061993401e-07
-1.52763423071e-10
-3.51910189105e-07
-5.86740328939e-10
-3.51111152399e-07
-1.02730199421e-09
-3.49840757399e-07
-1.49621581163e-09
-3.47988763555e-07
-1.9686397879e-09
-3.45574675629e-07
-2.4557689089e-09
-3.42700470056e-07
-2.94915033987e-09
-3.39183949743e-07
-3.44005832322e-09
-3.3533019799e-07
-3.94637165091e-09
-3.30820510907e-07
-4.4394002299e-09
-3.26077842165e-07
-4.94568483056e-09
-3.20693658342e-07
-5.42782984649e-09
-3.15155817139e-07
-5.93060147951e-09
-3.09020895907e-07
-6.38817541753e-09
-3.02721764481e-07
-6.85704831275e-09
-2.95943178242e-07
-7.2900296038e-09
-2.88992596418e-07
-7.72090306811e-09
-2.81632279877e-07
-8.10411100881e-09
-2.74051799257e-07
-8.47315510823e-09
-2.66155490526e-07
-8.79885060584e-09
-2.57989901151e-07
-9.10033615411e-09
-2.49560572522e-07
-9.38622570522e-09
-2.40728453597e-07
-9.70996429115e-09
-2.31623948109e-07
-9.98808948595e-09
-2.22114498e-07
-1.02331331619e-08
-2.12388010262e-07
-1.04255013275e-08
-2.02400730768e-07
-1.05476196024e-08
-1.92250380628e-07
-1.06288597108e-08
-1.81961200485e-07
-1.0701696475e-08
-1.7148852522e-07
-1.07726740632e-08
-1.60966909504e-07
-1.08692021527e-08
-1.50232809527e-07
-1.09615252994e-08
-1.39523325384e-07
-1.10936731702e-08
-1.28588487692e-07
-1.12116099794e-08
-1.17734172866e-07
-1.1375744512e-08
-1.06666723127e-07
-1.15017749127e-08
-9.56790065793e-08
-1.16622740231e-08
-8.4522603962e-08
-1.17778165329e-08
-7.34416962946e-08
-1.19037195624e-08
-6.22493675585e-08
-1.19759718618e-08
-5.11649717734e-08
-1.20472721183e-08
-4.00118433898e-08
-1.20525776284e-08
-2.90018288465e-08
-1.20489355435e-08
-1.7975448666e-08
-1.19882506968e-08
-7.14204118621e-09
-1.19374132916e-08
3.71297465991e-09
-1.18551865277e-08
1.441016676e-08
-1.18355516525e-08
2.51970204384e-08
-1.18689851181e-08
3.59974255425e-08
-1.20642335539e-08
4.70136227819e-08
-1.24556641717e-08
5.82670142722e-08
-1.30397153639e-08
6.96096759638e-08
-1.40727953366e-08
8.18030911984e-08
-1.52458649463e-08
9.50721667823e-08
-1.67759139707e-08
1.0991327213e-07
-1.85469929301e-08
1.26436594613e-07
-2.06554433293e-08
1.45103398545e-07
-2.29951326748e-08
1.65980108528e-07
-2.56325973003e-08
1.89453848207e-07
-2.84185528361e-08
2.15482578281e-07
-3.14152665607e-08
2.44495878605e-07
-3.45942239398e-08
2.7692786916e-07
-3.84869978082e-08
3.14539285825e-07
-4.37813403096e-08
3.59454304312e-07
-5.10353680762e-08
4.13766251619e-07
-6.02462029212e-08
4.79650901426e-07
-7.1148140071e-08
5.56129794017e-07
-8.18761627346e-08
6.36978968344e-07
-8.57247969397e-08
7.11442837265e-07
-8.01896763285e-08
7.72452518435e-07
-6.65978076561e-08
8.06019110256e-07
-4.08916910242e-08
8.25939149675e-07
-2.80046616243e-08
8.71682658889e-07
-5.74086148086e-08
9.56014728596e-07
-9.79886742426e-08
1.02366777042e-06
-8.82535441627e-08
1.03996770257e-06
-4.5001237478e-08
9.35786614736e-07
6.54342320011e-08
7.86646778372e-07
1.01883547534e-07
5.03940038538e-07
2.42156106636e-07
3.4370182206e-07
1.33975231942e-07
2.43009467276e-07
7.79873757992e-08
1.78335792663e-07
4.65147886113e-08
1.34959777108e-07
2.81734224168e-08
1.06377297703e-07
1.80799576636e-08
8.50062648504e-08
1.16798900583e-08
6.88647360646e-08
8.48132066644e-09
5.35933086684e-08
5.76200702429e-09
4.06779542419e-08
4.78421964025e-09
2.73431221761e-08
3.41908070607e-09
1.59386755813e-08
3.42982273767e-09
3.82460122657e-09
2.69481542088e-09
-6.30067091764e-09
3.2020054144e-09
-1.68585269537e-08
2.78070378108e-09
-2.46598262663e-08
3.5959336409e-09
-3.19353216525e-08
3.35751381888e-09
-3.49596678477e-08
4.48943003321e-09
-3.65183743568e-08
4.38657200823e-09
-3.25837529676e-08
6.31232994083e-09
-2.92371113865e-08
6.57205997838e-09
-2.67182007666e-08
9.42724232213e-09
-3.57561582924e-08
8.49386861604e-09
-5.06907496325e-08
8.91292932866e-09
-7.10596188915e-08
5.60829284629e-09
-8.61624046118e-08
4.19441597576e-09
-9.93087159512e-08
1.05676686095e-09
-1.06975672299e-07
1.20254014125e-09
-1.1797055426e-07
-1.47808939491e-09
-1.27426863613e-07
-4.40271496445e-10
-1.46014217334e-07
-3.2051391252e-09
-1.67896936429e-07
-1.45286038537e-09
-2.07370999807e-07
-4.56749183188e-09
-2.5757105214e-07
-1.902120622e-09
-3.37319946443e-07
-5.51608990583e-09
-4.37130688091e-07
-1.50702361356e-09
-5.8178355446e-07
-5.70475771282e-09
-7.57682995539e-07
3.60599592935e-10
-9.98668924982e-07
-4.27780449945e-09
-1.28614305891e-06
4.9938456468e-09
-1.66753262745e-06
4.01621086106e-10
-2.11798299222e-06
1.44617289776e-08
-2.70303074838e-06
1.05049227116e-08
-3.38803043686e-06
3.08132940476e-08
-4.26011441618e-06
2.76165944484e-08
-5.26867531056e-06
5.50813981738e-08
-6.52596567098e-06
5.23017850014e-08
-7.95898372667e-06
8.74451762338e-08
-9.71116693927e-06
8.50269919853e-08
-1.16850208418e-05
1.29895309837e-07
-1.40624887964e-05
1.29006517779e-07
-1.67169391178e-05
1.80902070682e-07
-1.98681845433e-05
1.73636938997e-07
-2.33489319677e-05
2.13610386612e-07
-2.74083151062e-05
1.75019333842e-07
-3.18376440819e-05
1.71240002723e-07
-3.68994828521e-05
6.42464068164e-08
-4.24300460554e-05
6.01962915014e-08
-4.88244689527e-05
6.59098123363e-08
-5.60686097979e-05
3.3632720211e-07
-6.48336319592e-05
8.95649506381e-07
-7.5116504071e-05
1.8084183925e-06
-8.74625200485e-05
3.00135892616e-06
3.88827958847e-06
-0.000101049309511
1.4819097108e-08
-6.33421205201e-08
-5.32016322158e-09
2.88559570937e-08
-4.46764012871e-08
6.28931708759e-08
-6.77899217011e-08
5.14204651823e-08
-6.53349629674e-08
3.31718131683e-08
-4.78988039658e-08
1.89918607743e-08
-2.91123237107e-08
9.58373716728e-09
-1.04197022283e-08
3.86534324067e-09
4.35430032104e-09
1.01157184043e-09
1.60146405914e-08
1.94490944758e-10
2.29015806526e-08
6.65727510997e-10
2.67162174159e-08
1.89103748422e-09
2.6903897472e-08
3.47041118895e-09
2.50174376819e-08
5.14842039875e-09
2.09005388855e-08
6.72617712138e-09
1.56840832755e-08
8.08557879127e-09
9.2867115836e-09
9.14292369953e-09
2.49854102456e-09
9.87284313062e-09
-4.77890617635e-09
1.02744029668e-08
-1.1930233225e-08
1.03773390423e-08
-1.91508098384e-08
1.02006512286e-08
-2.59219452705e-08
9.80900156325e-09
-3.241459572e-08
9.23062504941e-09
-3.82252347544e-08
8.50817683659e-09
-4.35308315293e-08
7.66909298758e-09
-4.79892892343e-08
6.7520384919e-09
-5.17571422307e-08
5.7649050853e-09
-5.45960171693e-08
4.7349275219e-09
-5.65933770535e-08
3.6689629286e-09
-5.76391624088e-08
2.57965567805e-09
-5.77459704508e-08
1.47133173346e-09
-5.69331036526e-08
3.48582188038e-10
-5.51200331522e-08
-7.79065677699e-10
-5.24276674851e-08
-1.91864899328e-09
-4.87398983685e-08
-3.06372210536e-09
-4.42246719923e-08
-4.21542638517e-09
-3.87433564907e-08
-5.37159625315e-09
-3.24822819856e-08
-6.53691121608e-09
-2.53092483709e-08
-7.70402364757e-09
-1.73737754709e-08
-8.87632881889e-09
-8.59672125429e-09
-1.00518752333e-08
9.43039551831e-10
-1.12289808349e-08
1.12431076139e-08
-1.24098462967e-08
2.2315713979e-08
-1.35878712146e-08
3.4055850015e-08
-1.47705911106e-08
4.65683248602e-08
-1.59454823968e-08
5.96619233579e-08
-1.71220560113e-08
7.35116615537e-08
-1.82842648298e-08
8.78511284684e-08
-1.94485367016e-08
1.02882542282e-07
-2.05832831171e-08
1.18365122662e-07
-2.16991690648e-08
1.34465852052e-07
-2.27787465674e-08
1.50972227726e-07
-2.38221297481e-08
1.68001047199e-07
-2.48083024998e-08
1.8539792882e-07
-2.5740814499e-08
2.03221239845e-07
-2.65990114347e-08
2.21384255451e-07
-2.73797472924e-08
2.39862518459e-07
-2.80687389156e-08
2.58609075213e-07
-2.86464663429e-08
2.77443681434e-07
-2.90527334546e-08
2.96395912989e-07
-2.94307620015e-08
3.15461440591e-07
-2.98133979883e-08
3.34589987418e-07
-3.00281060138e-08
3.536850078e-07
-3.0142464981e-08
3.72782428525e-07
-3.01677892159e-08
3.91777023624e-07
-3.00932457323e-08
4.10579622648e-07
-2.990768597e-08
4.29089472425e-07
-2.9630555246e-08
4.47161633247e-07
-2.92808126249e-08
4.64751523609e-07
-2.8861962421e-08
4.8168015516e-07
-2.83877736407e-08
4.97935793532e-07
-2.78446461769e-08
5.13344900087e-07
-2.72428267881e-08
5.27900326225e-07
-2.65724111426e-08
5.41466272772e-07
-2.58325943154e-08
5.5404595548e-07
-2.50140013252e-08
5.65529976444e-07
-2.41280772992e-08
5.75917640363e-07
-2.31692142287e-08
5.85149579336e-07
-2.21443086577e-08
5.93246489821e-07
-2.10550901737e-08
6.0016187969e-07