/*--------------------------------*- C++ -*----------------------------------*\
| =========                 |                                                 |
| \\      /  F ield         | OpenFOAM: The Open Source CFD Toolbox           |
|  \\    /   O peration     | Version:  v1806                                 |
|   \\  /    A nd           | Web:      www.OpenFOAM.com                      |
|    \\/     M anipulation  |                                                 |
\*---------------------------------------------------------------------------*/
FoamFile
{
    version     2.0;
    format      ascii;
    class       volScalarField;
    location    "21";
    object      rho;
}
// * * * * * * * * * * * * * * * * * * * * * * * * * * * * * * * * * * * * * //

dimensions      [0 0 0 0 0 0 0];


internalField   nonuniform List<scalar> 
12225
(
0.585374114487
0.649866253759
0.629025401591
0.629307342318
0.617275254655
0.612984659404
0.607014925274
0.602999453268
0.600900560595
0.601904878916
0.607478131659
0.616225360228
0.623269760911
0.635148661002
0.658768335726
0.689936842899
0.730703223019
0.764988156096
0.761084245405
0.699202850637
0.666649514345
0.671339713539
0.662232978052
0.659898235198
0.656212609209
0.65397377304
0.652811455144
0.653408125962
0.657118165592
0.663685916486
0.670525536877
0.680591019064
0.698531035369
0.722007417182
0.748063787534
0.750790184192
0.605370702133
0.680873808776
0.661729918992
0.663710341219
0.653863356058
0.650560821673
0.646059960237
0.643089414214
0.641094215643
0.640581746528
0.642236719931
0.646176686351
0.651885269522
0.660993409734
0.675977399847
0.69501455125
0.712832514663
0.708086183367
0.674455195485
0.692755765926
0.666227848654
0.672067451829
0.663267196996
0.661572283222
0.658429910322
0.656593107055
0.655408393876
0.655287770293
0.656546516122
0.659339177378
0.663794523197
0.670874962131
0.681572100556
0.693886248882
0.701995044759
0.692422493726
0.638337454905
0.692583183172
0.667378064187
0.674464354384
0.666470563509
0.665730331872
0.66347952145
0.66256420604
0.662321569473
0.663072693599
0.664939785678
0.668001829337
0.672478696605
0.678832969451
0.687057737009
0.694879412993
0.697169235462
0.686658817956
0.652937684097
0.696365277914
0.670749119808
0.679145632079
0.671740209057
0.671724401985
0.670023720282
0.669608379429
0.669798231076
0.670854761058
0.672818943778
0.675722851569
0.679724480286
0.6849463277
0.690833952792
0.695138866953
0.694035107226
0.684079855676
0.648894927284
0.697746030439
0.673285357204
0.682567525285
0.675845814228
0.676495044667
0.675321661242
0.675358492735
0.675905279369
0.677172387657
0.679149720577
0.681826131595
0.68523420741
0.689259355916
0.693097500304
0.694796669104
0.691802794939
0.682710810226
0.651333957527
0.699261690279
0.675506019274
0.685548646644
0.679388603616
0.680572978487
0.679794416048
0.680146121171
0.680882379987
0.682195332046
0.684051696287
0.686398237406
0.689145881597
0.692025392564
0.694164991269
0.694029738796
0.690035294803
0.681823130895
0.652277520443
0.700022036097
0.677315031048
0.687871243354
0.68225123139
0.683891397897
0.683441364152
0.684010641085
0.684819608205
0.686067561686
0.687711235682
0.689648967015
0.691701399314
0.693518080279
0.694298333985
0.69289335313
0.688418895086
0.680956258499
0.653186747208
0.700355311881
0.67855525882
0.689488202931
0.684319648916
0.686333797043
0.686123678617
0.686817144372
0.687626829696
0.688759949233
0.690139396258
0.691615806709
0.692958877937
0.693815174542
0.69352034459
0.691267008792
0.686612252465
0.67984773925
0.653147107557
0.700426515549
0.678940838005
0.690211651734
0.685302877834
0.687528649754
0.687398040002
0.688112242302
0.688862756623
0.689828722644
0.690897152732
0.69191431688
0.692646735071
0.692781883906
0.691796298078
0.689150281026
0.684670926094
0.678676496237
0.649135444823
0.700301512058
0.677453875868
0.689298708422
0.684329524192
0.686649057617
0.686532433949
0.687240429009
0.687888460448
0.688685518258
0.689577346559
0.690389199841
0.690875928267
0.69073858558
0.689576138816
0.687019907234
0.682999717264
0.677825620137
0.64583673713
0.699612341285
0.675953129161
0.688202585434
0.683411575543
0.685899832499
0.685881010773
0.686661733407
0.687394676179
0.68826689954
0.689164708344
0.689908218918
0.690217454051
0.689875066365
0.688552953368
0.686032086865
0.682343630388
0.677760587204
0.641815590743
0.698751654709
0.674237378052
0.687019146772
0.68244156168
0.68528259806
0.685568723138
0.686566826274
0.687405774309
0.688275653
0.689056042589
0.689551938664
0.689519700905
0.688808098533
0.687243691409
0.684695834717
0.681309560375
0.677238787429
0.636566824091
0.697808322479
0.67207679253
0.685580628711
0.68122107762
0.684479151244
0.68511146326
0.686367225944
0.687330340405
0.688155855502
0.688758297129
0.688933435982
0.688500742436
0.687436121816
0.685654788635
0.683130250023
0.680022090797
0.676475760279
0.631034301941
0.696799253506
0.669603159728
0.683821131965
0.679571077997
0.683186318451
0.684073464331
0.685516317487
0.686528224573
0.687298827234
0.687698815292
0.687611501607
0.686874205804
0.685591984145
0.683720974086
0.6813132129
0.678507327133
0.675404250718
0.626012555725
0.695874729842
0.667084552583
0.681882016632
0.677588564466
0.681413702888
0.682402510001
0.683897929292
0.684876737718
0.685523877353
0.68576922602
0.685485480264
0.684589070544
0.683214049823
0.681389216894
0.67914575735
0.676655853717
0.673916799334
0.621250675573
0.695161056911
0.664672660594
0.679941574361
0.675458510442
0.6793454439
0.680287655949
0.681736418572
0.682619370456
0.683143565959
0.683258127031
0.682855129261
0.681886502962
0.680519160867
0.678794257853
0.676738495852
0.67451843861
0.672099048265
0.61865301764
0.695069600893
0.663379841714
0.678829157704
0.67404280919
0.677778434134
0.678486736049
0.679723890434
0.680385462932
0.680700076341
0.680632661533
0.680098108856
0.679062790957
0.677708744143
0.676070381729
0.674162277131
0.672139217248
0.669957142315
0.6239430186
0.695682721495
0.664978496992
0.679562419088
0.674293097793
0.677348976482
0.677409743566
0.677985063482
0.67805089819
0.677836055647
0.677336485168
0.67648445264
0.675242321997
0.673778179971
0.67212153405
0.670276779384
0.668383015994
0.666405550025
0.62875118073
0.696878092261
0.666878679213
0.68082695103
0.675180316507
0.677695411548
0.677243864017
0.677339585092
0.676948799234
0.67635752306
0.675553628067
0.674493877463
0.673106785485
0.671584496177
0.669916901969
0.668127934875
0.666312590836
0.664464206242
0.630463671419
0.697695495855
0.668784957823
0.682200108714
0.676275439831
0.678314298275
0.677447196403
0.677125775214
0.67638005765
0.675489262725
0.674442763255
0.673219628882
0.67173492887
0.67015769874
0.668490324608
0.666731920456
0.664983586183
0.663198340416
0.638757452556
0.699531775342
0.670560045622
0.683462803164
0.677235109499
0.678826457388
0.677562750646
0.67686683459
0.675794786488
0.674617376647
0.673367003085
0.671979301925
0.670388311169
0.668741108433
0.667063235521
0.665304519003
0.663588456963
0.661869623436
0.631713833324
0.699956676255
0.672806070291
0.685163457458
0.678659150629
0.679785341363
0.678136075464
0.677057730288
0.675669272069
0.674233874396
0.672762771325
0.671214772557
0.669502934021
0.667779248193
0.666025719692
0.664230942558
0.662483416491
0.660770589032
0.659140280211
0.702297832027
0.674431658064
0.685940192441
0.679224774084
0.679915088145
0.677927607411
0.676562825666
0.67492821308
0.673289112034
0.671658827154
0.670016980649
0.66824300924
0.666483194208
0.664728278993
0.66292094215
0.661142780191
0.659410243437
0.615616233348
0.702464037281
0.677505004202
0.688688335711
0.681690987651
0.681994096237
0.679733935433
0.678074520054
0.676180936886
0.674289788806
0.67244538967
0.670620254329
0.668702703795
0.666801422215
0.664914229228
0.663004592143
0.661149688369
0.659486569197
0.711691145856
0.705488446819
0.680071762323
0.689001600944
0.682145654035
0.681835187738
0.679253242141
0.677266217569
0.675080281896
0.672899320564
0.670750844937
0.66876856928
0.666771874808
0.664799963236
0.662903156261
0.660986353234
0.659052570484
0.656945056423
0.564199948674
0.701279955795
0.687911980701
0.695207753245
0.68835082285
0.687907570545
0.685413208034
0.683594242173
0.681636554382
0.679692083356
0.67789558723
0.676220452764
0.674473236315
0.672738344086
0.671023953003
0.669178989635
0.667231557423
0.665659742086
0.835215672129
0.720507191205
0.695488637955
0.701777789812
0.695391858635
0.694279793579
0.691227986468
0.688478077846
0.685351674186
0.681973570364
0.678458387089
0.675165850658
0.67183145918
0.668360803962
0.664839287921
0.661252093656
0.657550080234
0.653963783608
0.649342549915
0.683044778725
0.678130374756
0.679829485796
0.672032478083
0.671025124154
0.668367034069
0.666311981222
0.664225275905
0.662392938283
0.660914737813
0.659535019083
0.65809292516
0.656980877528
0.656194446132
0.655534951851
0.655199760958
0.654432137485
0.500150311713
0.499789592506
0.499603080305
0.499621266754
0.499835574257
0.500211675845
0.500646625612
0.501106892715
0.501565821342
0.50200489369
0.502412106246
0.502780487203
0.503106722096
0.503389937979
0.503630991704
0.50383190293
0.503995281035
0.504124450579
0.504222479338
0.504292296602
0.504337128659
0.504359102152
0.504361403805
0.504344638939
0.504310591028
0.50425871511
0.504190516945
0.504105591694
0.504004432905
0.503886104104
0.503750730756
0.503597681836
0.503427232616
0.503238501676
0.503031608156
0.502806617774
0.502564615405
0.502304819663
0.50202838272
0.501735343328
0.501427079222
0.501104337947
0.500768829201
0.500422207326
0.500066624191
0.499704630224
0.499338847514
0.498972416921
0.49860861569
0.498250413547
0.497900679721
0.497560808099
0.497233940258
0.496924310262
0.496637288325
0.496378009141
0.496151869896
0.495964268066
0.495820724603
0.495726502358
0.495685672582
0.49569945176
0.495768788279
0.495896672244
0.496084059878
0.496327844922
0.496625966446
0.49697631818
0.497375598889
0.497821039471
0.498308386942
0.49883379196
0.499392505582
0.499980311436
0.500592560335
0.501225285992
0.501874537855
0.502535774803
0.503205210572
0.50388021991
0.504558766496
0.505237560406
0.505914553914
0.506587045751
0.507255812494
0.507918185838
0.508574071509
0.509229759108
0.509881497458
0.510532851556
0.511184581344
0.511836865296
0.512491871578
0.513123124474
0.513716019681
0.514308555711
0.514932524117
0.515573114189
0.516228438338
0.516892495976
0.517671239528
0.518543421912
0.518685115826
0.518731539928
0.51894864117
0.519390493189
0.520023554486
0.520370030564
0.520775362706
0.52114059129
0.521439319586
0.521696804236
0.521918265943
0.522125490887
0.522311239924
0.522484035857
0.522645934792
0.522801376225
0.522950965937
0.523093629355
0.523226016951
0.523346889762
0.523457521096
0.523558976856
0.523654073556
0.523744057778
0.523829661745
0.523911379513
0.523989567007
0.524064617333
0.524136893504
0.524206605266
0.524273932082
0.524338893182
0.524401552146
0.524461824927
0.524519698137
0.524575510553
0.5246287918
0.524679401316
0.524725600445
0.524768810598
0.524808216928
0.524842295559
0.524869335765
0.52488751282
0.524895705446
0.524893101541
0.524878991177
0.524852823378
0.524813499976
0.524759486397
0.524689050817
0.524600551213
0.524492206689
0.524362191498
0.524208444431
0.524028714333
0.52382002582
0.523578769802
0.523299577964
0.522976737324
0.522602181109
0.522164604568
0.521648558122
0.521037074415
0.520309203072
0.519448352516
0.51844126106
0.517265106106
0.515906925422
0.514370279806
0.512673050283
0.510857145799
0.508982759521
0.506994078184
0.504942239644
0.502904593745
0.50098992592
0.499498553501
0.500048111612
0.499814402804
0.499915833043
0.500203020087
0.500551803152
0.50090870162
0.501252217017
0.501572039752
0.501863648519
0.502124874335
0.502355407007
0.502554658254
0.502723538042
0.502862446528
0.502972773799
0.503055626749
0.503112830934
0.503146173623
0.503158113895
0.503150124704
0.503124726915
0.50308333259
0.50302826136
0.502959695246
0.502879010102
0.502785347303
0.502679548672
0.502560768221
0.502428787194
0.502282287589
0.502121092177
0.501944213462
0.50175106325
0.50154045322
0.501312718324
0.50106714545
0.500804043136
0.500523124786
0.500224903274
0.499909236893
0.499577107135
0.499229274309
0.498867228854
0.498492710666
0.498107984078
0.497715818872
0.497319600723
0.496922955809
0.496530537801
0.496147539221
0.495781570389
0.495437687656
0.495118796376
0.494827876917
0.494568832686
0.494345541473
0.494161817673
0.494023382668
0.493936182022
0.493902318258
0.493923256758
0.494001255596
0.494135927909
0.494323274751
0.494564332081
0.494861719813
0.495215620604
0.49562568975
0.496090988651
0.496610496857
0.497182298586
0.497804281129
0.498473129364
0.499185290301
0.499936665708
0.500722602989
0.501537991084
0.502377500009
0.503235607578
0.504108281017
0.504992415063
0.505884165999
0.506779356429
0.507676129066
0.508576161923
0.509474176977
0.510363466185
0.511253658627
0.512165654035
0.513081018736
0.513969023428
0.514863062807
0.515802975879
0.516758149824
0.51764302353
0.518452260551
0.51929457223
0.51998687748
0.520672831552
0.521390994408
0.522081196035
0.522902641489
0.523510962682
0.52416680104
0.524771571893
0.525354220084
0.525700800355
0.525967082017
0.52620444576
0.526450257213
0.526699540075
0.5269576374
0.52722166526
0.527488068188
0.527748379843
0.528007062645
0.52826390167
0.52852081428
0.528778011414
0.52903266979
0.52928094341
0.529520982889
0.529752680496
0.529977685474
0.530197917103
0.530414316447
0.530627607323
0.530838242386
0.531046724123
0.531253245787
0.531457901244
0.531660722812
0.531861856358
0.53206143492
0.5322598636
0.532457521975
0.532655044148
0.532853217172
0.533052769632
0.53325343453
0.533455043594
0.533658883786
0.533865365669
0.534074193068
0.534284481862
0.534495795136
0.534708531174
0.534923685337
0.535142490522
0.535365970887
0.535595249734
0.53583154729
0.536076089823
0.536329576238
0.53659187245
0.536862146699
0.537138398798
0.537418003386
0.537697348778
0.537973122957
0.538240284765
0.538493238224
0.538726534547
0.538936091333
0.539118173993
0.539269776161
0.539394478433
0.539484468935
0.539540514804
0.539564209132
0.539553887163
0.539502620408
0.539400723893
0.539245446
0.538967262875
0.538658589462
0.538295919923
0.537887076523
0.53747442749
0.537041312815
0.500417721876
0.500342311413
0.500377088361
0.500492428569
0.500614335896
0.500714592562
0.500802396718
0.500884232605
0.500963839889
0.501041354583
0.501116225733
0.501186850553
0.501251583316
0.501308519145
0.501356249481
0.501393542754
0.501419889723
0.501434948615
0.501439110958
0.501432815617
0.501416960033
0.501391549684
0.501358114388
0.501316271193
0.501266379893
0.501207676395
0.501140321157
0.501063031071
0.500975341266
0.500875877923
0.500764043993
0.50063837034
0.500498472822
0.500343307164
0.500172529973
0.4999856119
0.49978300745
0.499564140139
0.499329575022
0.499079585277
0.498815094677
0.498537119119
0.49824723971
0.497947353148
0.497639831285
0.497327411722
0.497013402433
0.496701411893
0.496395498255
0.49610001584
0.495821149708
0.495565323922
0.495339461537
0.495148089183
0.494994723472
0.49488218872
0.494812830822
0.494786582441
0.494802561904
0.494862287753
0.494968439895
0.495123185653
0.495331923966
0.495598411208
0.495920894082
0.496300128728
0.496737255603
0.497232372289
0.497783890679
0.498389318683
0.499044861585
0.49974602404
0.500487669482
0.501264387463
0.50207069111
0.502901113847
0.503750413284
0.504613383687
0.505485140026
0.506360989162
0.507238825482
0.508115735877
0.50898731693
0.509850802668
0.510710040861
0.511566690245
0.512406549997
0.513226808456
0.514051505014
0.514890575647
0.515710308398
0.516483057711
0.517284483414
0.518090631261
0.518865671852
0.519610858556
0.520299280264
0.520832320845
0.521439313286
0.522234987194
0.523099833323
0.523718607532
0.524049583133
0.524393930916
0.524585319989
0.524825395748
0.525221193411
0.525789513957
0.526332181042
0.526804770354
0.527242594887
0.527648491696
0.528023649946
0.528370970039
0.528694892773
0.52900329902
0.529299544841
0.529586979394
0.529866858157
0.530137388081
0.530396461904
0.530643643742
0.530880300622
0.531108659458
0.531329850683
0.531544609068
0.531753434558
0.531956730685
0.532154847374
0.532348287182
0.53253775334
0.532723960494
0.532907382272
0.533088321245
0.533267034609
0.533443844838
0.53361931467
0.533793824521
0.533967528396
0.534139305764
0.534309099731
0.534477929702
0.53464699918
0.53481596588
0.534983311339
0.535147860498
0.535309102253
0.535467039074
0.535621550289
0.535772474799
0.53591962336
0.536063013988
0.536202523546
0.53633817873
0.536470233862
0.536599210771
0.536725841468
0.536851290971
0.536976761141
0.537103967446
0.537234629595
0.537370471998
0.537513245307
0.537664856866
0.537826703784
0.538000429684
0.538188688259
0.53839188107
0.538606738642
0.538830187422
0.539057069858
0.539277340003
0.539478647798
0.53963640615
0.539724154391
0.539724741751
0.539619347428
0.539401266627
0.539115882422
0.538916831476
0.500887199511
0.500768086437
0.500506078016
0.500365151661
0.500288298631
0.500228569759
0.500191826929
0.500177729687
0.500184062784
0.500207743139
0.500245601619
0.500293713975
0.500348794536
0.500407341385
0.50046660739
0.500524074659
0.50057800545
0.500627014558
0.500670576495
0.500707662927
0.500738612158
0.500763101605
0.500781276696
0.500792482855
0.500797080422
0.500793658395
0.500781874752
0.500760403132
0.500728433336
0.500684304067
0.500627111655
0.50055550968
0.500468630176
0.500365113248
0.500245019732
0.500107420693
0.499952385668
0.49977979079
0.499590238366
0.499384026367
0.49916237466
0.498926573404
0.498678579016
0.498420721584
0.498155816759
0.497887132163
0.497618502153
0.497353827568
0.497097628271
0.496854757147
0.496629883141
0.496426572395
0.496250532865
0.496106619456
0.495999305053
0.495932335985
0.49590913444
0.495931344453
0.495997548617
0.49610501564
0.49625307538
0.496442812734
0.496676929414
0.496960794212
0.497300933428
0.497701370261
0.498164199659
0.498690531938
0.499280116097
0.499931089239
0.500640054764
0.501401949427
0.502210265328
0.50305807127
0.503937988833
0.504841712056
0.505761851729
0.50669277838
0.507627330048
0.508558729733
0.509484716217
0.510405969604
0.511314419016
0.512200764533
0.513073315821
0.513939995783
0.514786687798
0.515580036663
0.516366362239
0.517156111998
0.517915087939
0.518626488483
0.519302559324
0.51996435591
0.520580545148
0.521201161201
0.521885976918
0.522627047636
0.523471493616
0.524274731822
0.524840621644
0.525095219257
0.525279122323
0.525501743792
0.525691757702
0.526013811434
0.526543609123
0.527215441245
0.527867861023
0.528455415922
0.528984564843
0.529453502596
0.529869639587
0.53024314657
0.530584146449
0.530901704216
0.531200945835
0.531485965645
0.531758082904
0.532016429895
0.532260016278
0.532489897542
0.532709060343
0.532919771158
0.533123193876
0.533320022225
0.53351091207
0.533696520549
0.533877547849
0.534054660418
0.534228758456
0.534400424117
0.53456987236
0.534737425134
0.534903481076
0.535068741871
0.535233784578
0.535398761014
0.535562905887
0.535724932896
0.535884573069
0.536043511814
0.536203651852
0.536364944477
0.536526216066
0.536686506369
0.536845523744
0.537003400738
0.537160354977
0.537316633897
0.537472407743
0.537627855193
0.53778282847
0.537937189043
0.53809080779
0.538243537037
0.538395087913
0.538544936686
0.538692424372
0.538836846204
0.538977807866
0.539114883735
0.539247741431
0.539376678556
0.539502446189
0.539626537745
0.539752416874
0.539882285109
0.540017941571
0.540162303839
0.540316875436
0.540479971596
0.540647978664
0.540813229324
0.540957522573
0.541074634187
0.541153541037
0.541193678912
0.541247663614
0.541444280661
0.501430201221
0.500764741078
0.500108300283
0.499867399459
0.499781797593
0.499725748509
0.499692195499
0.499678009734
0.499683539059
0.499707371633
0.499748398935
0.499804149488
0.499871971865
0.499948525058
0.500031086191
0.500116737992
0.500203554037
0.500289333619
0.500372973749
0.500453387149
0.500530071322
0.500601829692
0.50066899578
0.500730386139
0.500785530301
0.500833367189
0.500873279023
0.500903572243
0.500923307038
0.500930828451
0.50092511038
0.500904396884
0.500868041758
0.500814883026
0.500744375415
0.500655808116
0.500549535922
0.500425052982
0.500283013697
0.500123879721
0.499948847583
0.499759197991
0.499556915917
0.499344247106
0.499124007257
0.498899237554
0.498673616213
0.498450991792
0.498235465533
0.498031704386
0.49784589161
0.497682378424
0.497546489434
0.497443355675
0.497377005802
0.497350914632
0.497368885596
0.497433425874
0.497544966583
0.497704934094
0.497914454056
0.498174069972
0.498483944993
0.498843158706
0.499252625814
0.499714906096
0.500232378623
0.500806753521
0.501437991674
0.502124945892
0.502864846503
0.503653387836
0.504483742905
0.505350155342
0.506245980353
0.507162679905
0.508091578335
0.50902927112
0.50997203139
0.510907062454
0.511828092069
0.512745277185
0.513652329171
0.514531006561
0.51539305806
0.516252857827
0.517090172711
0.517885402808
0.518630207176
0.519359533869
0.520090523182
0.520770996856
0.521439864823
0.522080464504
0.522746773953
0.523524502566
0.524362297806
0.525180941437
0.525894530319
0.526366286702
0.526580898437
0.526666093493
0.526814462127
0.527034484864
0.527303257559
0.527706631368
0.52824383379
0.528842879883
0.529427713052
0.529973926914
0.530467824839
0.530903756129
0.53128830358
0.531631159741
0.531941866249
0.532228453199
0.532496463779
0.532749932677
0.532990361907
0.533217577363
0.533431660507
0.533634830918
0.533830319149
0.534020002859
0.534204500803
0.534383976424
0.53455859069
0.534728601283
0.534894390386
0.535056358321
0.535214789584
0.53536998479
0.535522396922
0.535672439552
0.535820681003
0.535967778531
0.536114068192
0.536259161497
0.536401475187
0.536539679818
0.536673622387
0.536805859336
0.536938720749
0.53707260154
0.537206736431
0.537340244493
0.537472813734
0.537604462394
0.537735378362
0.537865797716
0.537995857911
0.538125673797
0.538255387687
0.538385096777
0.538514874534
0.538644663518
0.538774446333
0.538904235727
0.539033920516
0.53916336622
0.539292738051
0.539422201581
0.539552029215
0.539682900452
0.539815492468
0.539950952862
0.540091645809
0.540238612565
0.540392069945
0.540553232814
0.540721271524
0.540893165512
0.541065759149
0.541233465898
0.541386071774
0.541521918303
0.541644740843
0.54177113858
0.541964881447
0.542338753545
0.501920717825
0.500079656791
0.499218464644
0.499222918134
0.499327588143
0.499375909444
0.499397754633
0.499412873712
0.499435083256
0.499470702572
0.499522733886
0.499589941926
0.499670939257
0.499762621566
0.499862755597
0.499968380117
0.500077623962
0.500188281725
0.500299266457
0.500408662973
0.500516168873
0.500620694167
0.500721576686
0.500817736314
0.500908967204
0.500993536211
0.5010706493
0.501138721676
0.501196620416
0.501242531788
0.501275293773
0.501293409045
0.501295890455
0.501281365782
0.501249761989
0.501200200778
0.501132772524
0.501047447686
0.500945005266
0.500825948254
0.500691784174
0.500543949473
0.500384679735
0.500216339722
0.500041861778
0.499864273872
0.499687219752
0.499514135018
0.499349007493
0.499196371398
0.499062133591
0.498950536922
0.498867333602
0.498817728066
0.498806371224
0.498837374219
0.498914493833
0.499037024471
0.49920338303
0.499412582851
0.499664540307
0.499959363432
0.500298989503
0.500685275283
0.501123210623
0.501616337618
0.502168237954
0.502781112254
0.503454606761
0.504185782071
0.504972156349
0.505807799339
0.506683692641
0.507591212025
0.508526264158
0.509478986049
0.510435612902
0.511390643655
0.512347890056
0.51329798514
0.514216359679
0.515138548337
0.516048023879
0.516931555685
0.517777961568
0.518583292656
0.519370236046
0.520132746783
0.520871208599
0.521603988274
0.522289231345
0.522971218509
0.523725790126
0.524493157047
0.52527952042
0.526051976977
0.526743327673
0.527309240063
0.527725146099
0.527957113801
0.528072109353
0.528195004372
0.52839783187
0.528658827026
0.528988212069
0.529417449148
0.529916136201
0.530438169144
0.530950542614
0.531436714869
0.531881499896
0.532280279747
0.53263726038
0.532959271157
0.533253334079
0.533525599307
0.533780775506
0.534021816523
0.534249669018
0.534463881239
0.534664777977
0.534854802349
0.535036590078
0.535211567149
0.535380094924
0.535542224319
0.535698069795
0.535847948654
0.535992363231
0.536131949641
0.536267441439
0.536399777757
0.53652971927
0.53665791485
0.536785095946
0.536912009375
0.537038873632
0.537164648433
0.537287431047
0.537405454849
0.537519000737
0.537630732236
0.537742956233
0.537856324739
0.537970243789
0.538084040494
0.538197382166
0.538310233279
0.538422696643
0.538534735724
0.538646401267
0.538757737446
0.538868809603
0.538979770105
0.53909070907
0.539201738979
0.539312922761
0.539424361464
0.53953607335
0.539648129095
0.539760832774
0.539874495902
0.539989616598
0.5401070729
0.540227901286
0.540353469791
0.540486084512
0.540626934091
0.540776575462
0.540936319862
0.541105207675
0.541280428665
0.541459542435
0.541638573991
0.541809115473
0.541971105894
0.542131686719
0.542313265209
0.542577264885
0.543011542856
0.502172298593
0.498666427475
0.498097824375
0.498682318681
0.499027923661
0.499178661111
0.499254273926
0.499308135541
0.499365893668
0.499435350178
0.49952043081
0.499619917665
0.49973280163
0.499856054415
0.499987963826
0.500125641456
0.500267692974
0.500411688005
0.500556694747
0.500701307655
0.500844788281
0.500985613768
0.501123793625
0.501257850693
0.501387071263
0.501510264595
0.501626590174
0.501734268616
0.501832275768
0.501918893133
0.501993037223
0.502052986663
0.502098061953
0.502127170793
0.502139796806
0.502135381661
0.50211432783
0.502076391045
0.502022479432
0.501953326306
0.501870474124
0.501775406466
0.501670352922
0.501557521432
0.501439629218
0.501319156679
0.501199224478
0.501082639076
0.500972319654
0.500871723947
0.500787454099
0.500723061814
0.500684911835
0.500680234311
0.500715427387
0.500796365803
0.500926282416
0.501101883425
0.501321384524
0.501582836697
0.501885198393
0.502225735678
0.502604154467
0.503022989508
0.503489491336
0.504007681027
0.504583121587
0.50522015253
0.505918437184
0.506673891879
0.507483394415
0.508344092774
0.509243161133
0.510166452809
0.511110972053
0.512070784531
0.513030819825
0.513985183628
0.514943463707
0.515888422226
0.516811358761
0.517698251957
0.518545748826
0.519380273751
0.520192453515
0.520971744821
0.521717461572
0.522430608786
0.523148678469
0.523895991569
0.524629291128
0.525382042431
0.526143324106
0.526867532248
0.527550694652
0.528146752568
0.528628157684
0.528989971984
0.529252040009
0.52942786256
0.529585023015
0.529781120256
0.530027527523
0.530317005805
0.530668568456
0.531085081287
0.531536028005
0.531994479803
0.532442720427
0.532868402357
0.533261204049
0.533618579341
0.533942684777
0.534237516575
0.53450748531
0.534756943061
0.53498932761
0.53520680142
0.535409938417
0.535598672752
0.535774144939
0.535939038137
0.536096085546
0.53624685033
0.536392005415
0.536531845719
0.536666660486
0.536796830183
0.536922870543
0.537045385658
0.537164964296
0.537282078511
0.537397102744
0.537510541058
0.537623101615
0.537735470281
0.537847595598
0.537958044216
0.538064696428
0.538165852474
0.538262291959
0.538356624137
0.538451136831
0.538546467406
0.538642202021
0.538737885408
0.53883332492
0.538928612324
0.539023735456
0.539118743993
0.539213620894
0.539308413244
0.53940317352
0.539497950329
0.539592860013
0.539688052895
0.539783632969
0.539879713585
0.539976349609
0.54007371098
0.540172181202
0.540272189855
0.540374293693
0.54047953153
0.540589069539
0.540704309191
0.540827401009
0.54095956974
0.541101538344
0.541254661455
0.541418274003
0.541590061262
0.541768641048
0.541951888998
0.54213374566
0.542315979512
0.542507950993
0.542734929957
0.543052253437
0.543525353627
0.502055432267
0.496737209367
0.497091211169
0.498376494745
0.498858984618
0.499075661393
0.499206973323
0.499320810561
0.499438820095
0.499566120978
0.499706134674
0.499856573497
0.500017451969
0.50018589209
0.500361142219
0.500540588437
0.500723397118
0.500907492613
0.501092400454
0.501276227869
0.501458821852
0.501638861301
0.501815722232
0.501988349279
0.502156548092
0.502318649234
0.502474043153
0.502621300098
0.502759496298
0.502887031639
0.503003011728
0.5031061771
0.503195775365
0.503270757912
0.503331170354
0.503376389662
0.503406685997
0.503422256699
0.503424007661
0.503412607908
0.503389656575
0.503356523823
0.503315206143
0.503267528448
0.503215536453
0.503160916405
0.50310538728
0.503050353099
0.50299736409
0.502948168183
0.502907985149
0.50288287297
0.502880800348
0.502913304973
0.502991981617
0.503127009621
0.503318777894
0.503560466055
0.503847832524
0.504175655817
0.504537059746
0.504924475514
0.505333018314
0.50577299472
0.506252750903
0.506780062547
0.507362466244
0.508008564395
0.508721299565
0.509492167924
0.510313274063
0.511185154904
0.512097297912
0.513023045502
0.513976890404
0.514944719561
0.515903772189
0.516846184256
0.517760242828
0.518641085812
0.519510019493
0.520355293331
0.521165619346
0.521942473734
0.522683741647
0.523395525145
0.524101295067
0.524821816462
0.525560178044
0.526300634859
0.527011345498
0.527713139119
0.528367999694
0.528962519966
0.529494631292
0.529942115361
0.530300182007
0.530576184779
0.530797091327
0.530985030052
0.531182349783
0.531407504363
0.531663937282
0.531960155446
0.532307156703
0.532693603588
0.533095580226
0.533496838005
0.53388632434
0.534255759387
0.534599298316
0.534915532548
0.535205340799
0.535470845906
0.535714876688
0.535940609292
0.536150679135
0.536346739137
0.536529226614
0.536698335179
0.536855450126
0.537003018033
0.537143276419
0.537277511529
0.537406253381
0.537529676012
0.537647918407
0.537761214568
0.537869953458
0.537974645278
0.538075846358
0.538174090795
0.538270005627
0.538364344641
0.538458086948
0.538551961426
0.538645676092
0.538737577636
0.538825385152
0.538907770024
0.53898571544
0.539061681532
0.539137699045
0.53921432863
0.539291324169
0.539368363024
0.539445424609
0.539522563959
0.539599847082
0.539677279993
0.539754816809
0.539832479898
0.53991030954
0.539988402269
0.540066895712