/*--------------------------------*- C++ -*----------------------------------*\
| =========                 |                                                 |
| \\      /  F ield         | OpenFOAM: The Open Source CFD Toolbox           |
|  \\    /   O peration     | Version:  v1806                                 |
|   \\  /    A nd           | Web:      www.OpenFOAM.com                      |
|    \\/     M anipulation  |                                                 |
\*---------------------------------------------------------------------------*/
FoamFile
{
    version     2.0;
    format      ascii;
    class       volVectorField;
    location    "21";
    object      Ua;
}
// * * * * * * * * * * * * * * * * * * * * * * * * * * * * * * * * * * * * * //

dimensions      [0 1 -1 0 0 0 0];


internalField   nonuniform List<vector> 
12225
(
(0.246788300535 56.9636019284 0)
(1.02934235063 13.4371669577 0)
(0.788971142663 13.1052343604 0)
(0.903425557997 12.8376178781 0)
(0.891419631327 12.5132828195 0)
(0.922436857743 12.2128259937 0)
(0.930847418911 11.9149704757 0)
(0.943533964385 11.6642105458 0)
(0.959355732736 11.4644918706 0)
(0.992144171105 11.30414293 0)
(1.04989417428 11.1357386543 0)
(1.12969109937 10.8882493222 0)
(1.20659831831 10.4972283157 0)
(1.25682704393 9.97738124962 0)
(1.33870161195 9.43418185523 0)
(1.68582387666 8.84650321072 0)
(2.51795327771 7.54016847043 0)
(3.13315720948 3.98321663463 0)
(2.9991973568 -50.0849383023 0)
(1.075985411 -8.69283229938 0)
(1.34405295051 -8.49455192283 0)
(1.30423373753 -8.3334943152 0)
(1.35789068646 -8.16664710927 0)
(1.38754097689 -8.0204309217 0)
(1.42396515351 -7.86530677508 0)
(1.46428114486 -7.69370656076 0)
(1.51584361681 -7.48600253712 0)
(1.58357981597 -7.22857997763 0)
(1.66895707315 -6.91305881018 0)
(1.76201932941 -6.54148533483 0)
(1.84129755659 -6.12574130872 0)
(1.89856341168 -5.67617118012 0)
(1.99480526065 -5.17297612747 0)
(2.27952463859 -4.55396384966 0)
(2.7708914146 -3.80856826772 0)
(2.85081610746 -3.14553921585 0)
(-1.05363603346 37.9995031971 0)
(1.2294106318 4.47571005494 0)
(0.936509654323 4.43123490981 0)
(1.04132088831 4.26009127245 0)
(1.00211863904 4.12458494751 0)
(1.00926270806 3.94993944737 0)
(1.00102685578 3.75604168965 0)
(1.00433338041 3.53838120745 0)
(1.01769526846 3.29947034687 0)
(1.04865630662 3.04023767062 0)
(1.09622321281 2.75765666562 0)
(1.15010969717 2.44450227968 0)
(1.19220028615 2.09393004447 0)
(1.22228159324 1.7109005522 0)
(1.30117676706 1.31447551509 0)
(1.53980239147 0.889980121853 0)
(1.90407400372 0.283801325548 0)
(1.97546563845 -0.690329807501 0)
(2.80968783735 -26.4708461809 0)
(0.835146730769 -2.32080998778 0)
(1.199809013 -2.21549509221 0)
(1.10467390331 -2.09087299847 0)
(1.14567651911 -1.94612564087 0)
(1.1424227405 -1.79647684027 0)
(1.1507213671 -1.63226757494 0)
(1.16034877145 -1.459191747 0)
(1.18054475862 -1.27758297085 0)
(1.21371727634 -1.09279198321 0)
(1.25791005359 -0.912031499549 0)
(1.30148139904 -0.744216697137 0)
(1.32901356641 -0.59202439176 0)
(1.34352542604 -0.442788280084 0)
(1.39286920477 -0.280972559888 0)
(1.53641937838 -0.155263978933 0)
(1.70396739704 -0.25050758448 0)
(1.6488260323 -0.704090854653 0)
(-0.80687014111 18.0393269106 0)
(1.27846998207 1.31742790758 0)
(0.912734870851 0.795434590831 0)
(1.05031166679 0.821147895514 0)
(1.01527182795 0.679227453888 0)
(1.03330684007 0.593829154676 0)
(1.03569056874 0.497401636183 0)
(1.04933893875 0.411781971343 0)
(1.0717725577 0.328278998334 0)
(1.10818208953 0.244335507563 0)
(1.15549591007 0.152601442616 0)
(1.20446491361 0.0486286125412 0)
(1.2453522147 -0.0617202230328 0)
(1.28570072878 -0.155500574134 0)
(1.35923277761 -0.210474154678 0)
(1.48220721266 -0.260993653768 0)
(1.57000591384 -0.419707062819 0)
(1.48276725139 -0.716337472694 0)
(2.19878430929 -11.4487288006 0)
(0.972247039791 -0.774448027869 0)
(1.07199451793 -0.296840167496 0)
(1.05473610853 -0.390628523772 0)
(1.06538696346 -0.319504343904 0)
(1.06969340088 -0.2895905515 0)
(1.07435750212 -0.24177090232 0)
(1.08397418711 -0.193191503947 0)
(1.10071522539 -0.14329658698 0)
(1.12667199459 -0.100858064647 0)
(1.15882357159 -0.0759658074077 0)
(1.19039667228 -0.0771535464638 0)
(1.21774265628 -0.103351511239 0)
(1.25221614124 -0.141712823855 0)
(1.31674443856 -0.185270154433 0)
(1.4054101876 -0.265266206593 0)
(1.44581249057 -0.433399941973 0)
(1.3643197441 -0.652366169714 0)
(0.415706003329 5.61052388331 0)
(1.02987965149 0.253708980752 0)
(1.00177285228 0.0502494070246 0)
(1.03331959978 0.0512799152644 0)
(1.0327456054 0.00182095911127 0)
(1.04471652719 -0.0290650623211 0)
(1.05370616948 -0.055087402281 0)
(1.06898062386 -0.0717769867549 0)
(1.08993684122 -0.081305518512 0)
(1.11726087115 -0.0880141334612 0)
(1.14704774722 -0.0985327469007 0)
(1.17399919657 -0.117859178674 0)
(1.19751526185 -0.144805519025 0)
(1.22813845408 -0.174380531812 0)
(1.27829277584 -0.213057323896 0)
(1.33331583699 -0.291136801936 0)
(1.34270528615 -0.430962687191 0)
(1.27275385377 -0.587337009102 0)
(1.17014968994 -2.00875569606 0)
(1.04410476249 -0.10135758465 0)
(1.00823443 -0.0555254229988 0)
(1.0321465153 -0.0690893964392 0)
(1.03065128662 -0.0667923151596 0)
(1.0404654594 -0.07082787946 0)
(1.04832305894 -0.0728117094853 0)
(1.06246433391 -0.0753579103481 0)
(1.08168543206 -0.0791082964568 0)
(1.10583853239 -0.0873549539547 0)
(1.1311296087 -0.103374182281 0)
(1.15385147423 -0.128050292496 0)
(1.17483826607 -0.157969142871 0)
(1.20152168112 -0.190211167162 0)
(1.23781110725 -0.23325377292 0)
(1.26751854485 -0.307521287912 0)
(1.25930240713 -0.417778141717 0)
(1.20025926947 -0.528977834317 0)
(0.960639645366 0.463528044468 0)
(1.01839677608 -0.0653126774707 0)
(1.00970838703 -0.0486687905419 0)
(1.02565559168 -0.0680771367462 0)
(1.02681194843 -0.071680213951 0)
(1.03585898903 -0.0790029196062 0)
(1.04409981749 -0.0822227561743 0)
(1.05739815558 -0.085549416762 0)
(1.07462030227 -0.0902206053448 0)
(1.09504482944 -0.0997918443533 0)
(1.11559312583 -0.116702584712 0)
(1.13405627576 -0.140978366234 0)
(1.15179460155 -0.169974652662 0)
(1.17301924369 -0.203168427262 0)
(1.19660114138 -0.247994528003 0)
(1.20877815402 -0.315174754902 0)
(1.19176672237 -0.400987081408 0)
(1.14202122213 -0.481819061182 0)
(0.996970494552 -0.0910001467414 0)
(1.02077352751 -0.0554934129263 0)
(1.00655098403 -0.0539427312064 0)
(1.02193960382 -0.0667982441752 0)
(1.02306012999 -0.0711328391756 0)
(1.0316174555 -0.0782515257642 0)
(1.03968445894 -0.0828097485342 0)
(1.05186007723 -0.0881770223313 0)
(1.06683550572 -0.0954856387236 0)
(1.08363763774 -0.107480390305 0)
(1.09992631503 -0.125587722406 0)
(1.11450555665 -0.149437643814 0)
(1.12851664776 -0.177508097546 0)
(1.14358757736 -0.210714563959 0)
(1.15645433674 -0.254353297789 0)
(1.15709599581 -0.312622398238 0)
(1.13625352949 -0.379379692679 0)
(1.09409485928 -0.439785069127 0)
(0.99344578802 -0.0212289591358 0)
(1.01632784149 -0.0681011729231 0)
(1.00637267102 -0.0599068554113 0)
(1.0184459137 -0.0725068176431 0)
(1.02019478281 -0.0754830185054 0)
(1.02769568001 -0.0821730897141 0)
(1.03525483856 -0.0871303316079 0)
(1.04586766279 -0.0936996724113 0)
(1.05837235998 -0.102668641078 0)
(1.07168573699 -0.116023583521 0)
(1.0841546749 -0.134431025049 0)
(1.09511644898 -0.15742761394 0)
(1.1051638769 -0.184348746709 0)
(1.11424107154 -0.216426503031 0)
(1.11875221643 -0.256695435817 0)
(1.11215009986 -0.305688849916 0)
(1.09011454533 -0.357655638055 0)
(1.05400917942 -0.403564248162 0)
(0.990841712763 -0.0393389588976 0)
(1.01292146685 -0.0708431399815 0)
(1.00475558278 -0.0642232716067 0)
(1.0144491843 -0.0749123484827 0)
(1.01642492016 -0.0779586184303 0)
(1.0228125369 -0.0844414681891 0)
(1.02956952777 -0.0900886223138 0)
(1.03848707637 -0.0976874769417 0)
(1.04862525217 -0.107865500306 0)
(1.05892426106 -0.121966356595 0)
(1.06822197167 -0.140261507347 0)
(1.07603946603 -0.162383867974 0)
(1.08248294075 -0.188111453805 0)
(1.08672777716 -0.218481592788 0)
(1.08570428924 -0.254761441154 0)
(1.07531743851 -0.295898505135 0)
(1.05363703972 -0.337281405234 0)
(1.02220643049 -0.373338982262 0)
(0.992748069679 -0.0397599046468 0)
(1.00957880273 -0.0718157698505 0)
(1.00398164059 -0.0655996062098 0)
(1.01106546533 -0.0752419534197 0)
(1.01318091373 -0.0786206608857 0)
(1.01833749641 -0.085263518344 0)
(1.0241031082 -0.0917153738651 0)
(1.03123046878 -0.100266831775 0)
(1.03904286184 -0.111324215933 0)
(1.04654248574 -0.125784174129 0)
(1.05290850866 -0.143720887584 0)
(1.05773506019 -0.164866357629 0)
(1.0607416708 -0.189178504074 0)
(1.06085633879 -0.217212789078 0)
(1.05576702122 -0.24915682515 0)
(1.04308430828 -0.283472171562 0)
(1.02221714586 -0.316782277447 0)
(0.994567305993 -0.345547709562 0)
(0.994045093566 -0.0545443397442 0)
(1.00578408404 -0.0744899152907 0)
(1.00294690217 -0.0697931893263 0)
(1.00724882025 -0.0781992897996 0)
(1.00927567745 -0.0820695835937 0)
(1.01292320237 -0.0887883605534 0)
(1.01735903602 -0.0959327735832 0)
(1.02239366495 -0.105090431993 0)
(1.02766704321 -0.116574549269 0)
(1.03223700383 -0.130839103211 0)
(1.03556999952 -0.147901695232 0)
(1.03723392252 -0.16751667331 0)
(1.03678518044 -0.189680302542 0)
(1.03322204054 -0.214414790546 0)
(1.02502419795 -0.241321172742 0)
(1.01101632778 -0.268895726271 0)
(0.991305581918 -0.294897108296 0)
(0.96711205977 -0.317220503464 0)
(0.995903302939 -0.0449927281444 0)
(1.00147595908 -0.0729984774476 0)
(1.0016050283 -0.0700217560084 0)
(1.00282687982 -0.0775451553021 0)
(1.00446099034 -0.0821364148081 0)
(1.00629363016 -0.0891429375072 0)
(1.00904415289 -0.0969506773688 0)
(1.01175354161 -0.106596351482 0)
(1.01434717336 -0.118214602069 0)
(1.01597528643 -0.132028559372 0)
(1.01626669926 -0.14792767084 0)
(1.01482648435 -0.1657455337 0)
(1.01119427362 -0.185300494658 0)
(1.00466235198 -0.206371579625 0)
(0.994364865643 -0.228275043585 0)
(0.979859435921 -0.249851658408 0)
(0.96155081622 -0.269681604739 0)
(0.940430219454 -0.286576494846 0)
(1.00211173419 -0.0624906057441 0)
(0.997485790489 -0.0753007719548 0)
(1.00055771891 -0.0745550718266 0)
(0.998494968137 -0.080752247164 0)
(0.999290175008 -0.0857655938682 0)
(0.999055041426 -0.0926818816122 0)
(0.999806018565 -0.100617728121 0)
(1.00002960869 -0.110134715645 0)
(0.999906046098 -0.12123639504 0)
(0.998664969429 -0.133981612057 0)
(0.996074298473 -0.148199396328 0)
(0.991793154003 -0.163684339155 0)
(0.985508441635 -0.180178412471 0)
(0.976808590431 -0.197322715679 0)
(0.965318362107 -0.214491705394 0)
(0.950946455156 -0.230864600329 0)
(0.93418646132 -0.245612783778 0)
(0.915811546371 -0.25809215233 0)
(1.00721618006 -0.0132661884959 0)
(0.994857002911 -0.0539434328434 0)
(0.998140387723 -0.0558262046156 0)
(0.993303851423 -0.0616265576833 0)
(0.992625052314 -0.0675192853047 0)
(0.990186615349 -0.0747318368169 0)
(0.988701159302 -0.0830154882147 0)
(0.986407800259 -0.0924406152872 0)
(0.983642542789 -0.103059128452 0)
(0.979725310545 -0.114736636768 0)
(0.974537182945 -0.127350078227 0)
(0.967853526899 -0.14062452244 0)
(0.959519255194 -0.154310209483 0)
(0.949380580295 -0.168023244884 0)
(0.937313504861 -0.18130774703 0)
(0.923393553695 -0.193644237668 0)
(0.908047297062 -0.204564642046 0)
(0.891851575968 -0.213745536022 0)
(0.996446717493 -0.238349439214 0)
(0.98745866502 -0.135721192639 0)
(0.995994036917 -0.133298205917 0)
(0.988381098391 -0.134782885738 0)
(0.986005172692 -0.137772110251 0)
(0.981433885099 -0.141719633178 0)
(0.977837086633 -0.14668768504 0)
(0.973348104009 -0.152518579899 0)
(0.96837025454 -0.159229217918 0)
(0.962348901075 -0.166663703565 0)
(0.955269436859 -0.174666017337 0)
(0.947010347452 -0.182957938495 0)
(0.937542414149 -0.191337343402 0)
(0.926875045883 -0.199552650723 0)
(0.915000424407 -0.207280619091 0)
(0.90203848236 -0.214233100224 0)
(0.888354650868 -0.22014708341 0)
(0.874310113125 -0.224858873094 0)
(1.07231271792 0.660879811506 0)
(1.00592395596 0.182921850437 0)
(0.992568165112 0.162520181554 0)
(0.979589037859 0.146494475749 0)
(0.974194442785 0.131864695343 0)
(0.967561091844 0.117258640814 0)
(0.961784452776 0.102620108622 0)
(0.955167252516 0.0878361171934 0)
(0.948046997614 0.0729314117467 0)
(0.940019238198 0.0579206837985 0)
(0.931111483242 0.0429678027756 0)
(0.921383306422 0.0281328028599 0)
(0.91088218285 0.0137138055167 0)
(0.899698101024 -0.000155394281596 0)
(0.887849233286 -0.0132497746616 0)
(0.875453766411 -0.0254500181438 0)
(0.86283736039 -0.0365965603388 0)
(0.850744722358 -0.046661388845 0)
(0.795965136274 -1.71742572527 0)
(0.940145033007 -0.468372762435 0)
(0.981406223454 -0.443565769882 0)
(0.978558258353 -0.429565889855 0)
(0.975823733117 -0.416760105688 0)
(0.968998625617 -0.403728453855 0)
(0.962835184151 -0.391545184929 0)
(0.955566406767 -0.380017703133 0)
(0.947751692665 -0.369379468654 0)
(0.939073114349 -0.359485695784 0)
(0.929639332206 -0.350328046951 0)
(0.919432043677 -0.341737923347 0)
(0.908556452908 -0.333782018509 0)
(0.897067001602 -0.326211156547 0)
(0.884989309676 -0.318985755395 0)
(0.872355957391 -0.31197863447 0)
(0.859333004896 -0.305249849661 0)
(0.845167448682 -0.298738239903 0)
(1.48763789344 3.77146665709 0)
(1.04479446141 0.685041915668 0)
(0.995568156174 0.612809249076 0)
(0.973751935638 0.580161686982 0)
(0.968763552795 0.544134621195 0)
(0.962391651401 0.508412387911 0)
(0.955966062687 0.473577777807 0)
(0.948643739043 0.439213603796 0)
(0.940784384056 0.405736428773 0)
(0.932313747864 0.373325236459 0)
(0.923406046702 0.342191719698 0)
(0.914225619356 0.312781349052 0)
(0.904889371404 0.285272219366 0)
(0.895535206892 0.25962952358 0)
(0.886170835815 0.235927999716 0)
(0.876793085495 0.214364278234 0)
(0.867688073982 0.195058602748 0)
(0.860883248901 0.178185000154 0)
(-0.0246585687036 -7.40097985468 0)
(0.922234977465 -1.00705615404 0)
(0.961836522686 -0.869517051289 0)
(0.983895839098 -0.850937746342 0)
(0.974648560354 -0.806222593843 0)
(0.964979940604 -0.76680035501 0)
(0.955410696004 -0.72804375055 0)
(0.944330232717 -0.691139813998 0)
(0.932887576901 -0.656153733529 0)
(0.920563185413 -0.623527516915 0)
(0.907553247575 -0.593275446823 0)
(0.893939898551 -0.565643727093 0)
(0.879851133152 -0.540514863551 0)
(0.865292766858 -0.517604802607 0)
(0.850322993375 -0.496754100984 0)
(0.835115207121 -0.477989208427 0)
(0.819948482214 -0.461213587499 0)
(0.80291494536 -0.446557229439 0)
(2.88668564331 12.8073162623 0)
(0.990735502442 1.14865843686 0)
(1.05931418594 0.867989123036 0)
(0.980096940003 0.884661631727 0)
(0.99572836413 0.824324155239 0)
(0.989539414362 0.784523887297 0)
(0.986898199672 0.741848287995 0)
(0.982782003663 0.701674717765 0)
(0.978533941298 0.663048268814 0)
(0.974062481426 0.626606267747 0)
(0.969399793921 0.592542746463 0)
(0.964419578601 0.560891792953 0)
(0.959195941728 0.531692377899 0)
(0.953769707333 0.504943232652 0)
(0.948020587936 0.480532680123 0)
(0.941661447726 0.458267860892 0)
(0.934524550815 0.43797309407 0)
(0.929147929256 0.419566065173 0)
(-2.10506621936 -21.0590510652 0)
(1.1183123087 -1.5950573998 0)
(0.866164831667 -1.10127893059 0)
(1.00746616397 -1.19038514077 0)
(0.955937880019 -1.10996386341 0)
(0.951961086657 -1.08075229793 0)
(0.93521687176 -1.04189815103 0)
(0.919973597395 -1.00991864109 0)
(0.903671130407 -0.980000858316 0)
(0.886941913266 -0.952641298775 0)
(0.870131201306 -0.926919931215 0)
(0.853472562139 -0.901965857439 0)
(0.837092827753 -0.877497492922 0)
(0.821144311492 -0.853426106796 0)
(0.805762505997 -0.829509335289 0)
(0.79132639155 -0.805387173714 0)
(0.778463875642 -0.780892772224 0)
(0.764594151828 -0.756237190526 0)
(5.57811538388 31.9236090842 0)
(0.634737112281 2.17464795389 0)
(1.24259775106 1.383409839 0)
(0.973384878515 1.56516590346 0)
(1.05754897653 1.45438196987 0)
(1.03321823366 1.43430979888 0)
(1.03744177058 1.39002267213 0)
(1.03240352277 1.35519980514 0)
(1.02928934605 1.31959432428 0)
(1.02527223286 1.28563888037 0)
(1.02113948602 1.25228693359 0)
(1.01663943921 1.2193478317 0)
(1.01168893683 1.18633574575 0)
(1.00601432584 1.15273472753 0)
(0.999422418288 1.11802063664 0)
(0.991610351763 1.0818708688 0)
(0.982377722826 1.04447659032 0)
(0.975500762603 1.00703854222 0)
(-4.58226638658 -42.9625610348 0)
(1.73144720659 -2.80591521523 0)
(0.653630739703 -2.03816489619 0)
(1.05869291826 -2.20554177842 0)
(0.915897957863 -2.07165618593 0)
(0.939786778465 -2.04356830887 0)
(0.913417508336 -1.98666089651 0)
(0.901266004813 -1.94261056889 0)
(0.884804179236 -1.89729336691 0)
(0.869628480744 -1.85451756282 0)
(0.854373469237 -1.81262338955 0)
(0.839300474922 -1.77172976531 0)
(0.824133439457 -1.73161729397 0)
(0.808776215685 -1.69199856752 0)
(0.793249475925 -1.65243438363 0)
(0.778184378915 -1.61214228295 0)
(0.764941195426 -1.57007987507 0)
(0.750001721733 -1.52586277526 0)
(6.21089028657 52.4836108124 0)
(0.177805596482 3.24034880241 0)
(1.42081291625 3.02019837162 0)
(0.987168484016 2.97862284982 0)
(1.13101964248 2.87482127935 0)
(1.07985790035 2.80101763957 0)
(1.0894114458 2.71996196428 0)
(1.07866709024 2.646378079 0)
(1.07370577131 2.57424930374 0)
(1.06657451239 2.50566132448 0)
(1.05991276734 2.43984297174 0)
(1.05277606783 2.3770579909 0)
(1.0454261067 2.3171850532 0)
(1.03793242932 2.26061467415 0)
(1.03063378763 2.207641768 0)
(1.02398340527 2.15824335445 0)
(1.01783161988 2.11154349801 0)
(1.01558654196 2.06554656712 0)
(-3.44557072931 -61.3884692966 0)
(1.65900840562 -4.42618670307 0)
(0.701306605438 -4.60013914222 0)
(1.02185937406 -4.29883266971 0)
(0.903070144574 -4.1946867569 0)
(0.924057810701 -4.04114375307 0)
(0.901195839221 -3.9123853603 0)
(0.891997963613 -3.78367813409 0)
(0.878405260744 -3.66205348971 0)
(0.866475225222 -3.54543055241 0)
(0.854474949305 -3.43449315293 0)
(0.842903176537 -3.32937892137 0)
(0.83162866071 -3.23002628282 0)
(0.820781159264 -3.13651837278 0)
(0.810247603589 -3.0492198284 0)
(0.799886340918 -2.96936753306 0)
(0.789409131128 -2.89915794242 0)
(0.772553449048 -2.84183871604 0)
(4.22784149551 67.8811147627 0)
(0.754511729906 6.97839103528 0)
(1.39351522671 7.26342027864 0)
(1.16883101453 6.79341071502 0)
(1.23333471567 6.57424211563 0)
(1.20633010903 6.29776835881 0)
(1.20763748096 6.05504230736 0)
(1.1992972971 5.81590490592 0)
(1.19303730213 5.58946785895 0)
(1.18528544947 5.37196331267 0)
(1.17720096726 5.16371883544 0)
(1.16824101251 4.96382436291 0)
(1.15859247883 4.7721837304 0)
(1.1481173409 4.58879459642 0)
(1.13633949822 4.41382516489 0)
(1.12236040934 4.24716898738 0)
(1.10440373504 4.08941390935 0)
(1.08798086178 3.94486573558 0)
(-0.0582256226391 -68.0088796734 0)
(0.927944448649 -9.89805252546 0)
(0.597448059175 -9.80451793162 0)
(0.692357131735 -9.25434185903 0)
(0.654727941884 -8.91697538074 0)
(0.662343768269 -8.54305335948 0)
(0.655166001455 -8.19920222989 0)
(0.652033164549 -7.8619865085 0)
(0.647209700993 -7.53835857121 0)
(0.642404900696 -7.22589574547 0)
(0.637247290448 -6.92541290659 0)
(0.631908605726 -6.63629987973 0)
(0.626691837973 -6.35786385158 0)
(0.621917342382 -6.0883156771 0)
(0.617411263267 -5.82525837161 0)
(0.613272757986 -5.56660509532 0)
(0.612461747608 -5.3079634522 0)
(0.616253509065 -5.03096401564 0)
(0.0556490084083 -0.00814214101653 -2.95023226846e-17)
(0.0352622023685 -0.00381350082083 0)
(-0.0323277416852 0.00668745685169 0)
(-0.0723025390525 0.0470888467855 0)
(-0.0993184775775 0.0797808888074 0)
(-0.117411783638 0.101359517201 1.72206715173e-17)
(-0.130786249933 0.110577696236 0)
(-0.138569257653 0.11721562555 0)
(-0.145510594917 0.121537016914 -5.90499201613e-18)
(-0.153775936377 0.124354218488 0)
(-0.164431432545 0.12700460445 3.96504871227e-18)
(-0.177307138453 0.131114849911 0)
(-0.191565844485 0.137994515204 2.93839246965e-18)
(-0.206164863182 0.148596202463 2.59100936166e-18)
(-0.220105861945 0.16322277094 0)
(-0.232743853454 0.181804456929 -2.08480503784e-18)
(-0.243703484261 0.203850293433 -1.89570628361e-18)
(-0.252924797848 0.228766906832 -1.73649468637e-18)
(-0.260505507438 0.255822229547 0)
(-0.266703977943 0.284380250491 0)
(-0.271788845881 0.313832255769 0)
(-0.276046403882 0.343708684546 0)
(-0.279720732284 0.373598240606 0)
(-0.283029039238 0.403223063964 0)
(-0.286105054731 0.432335545567 1.08531808126e-18)
(-0.289084895589 0.460777024966 1.03013792615e-18)
(-0.292029508289 0.488420757303 0)
(-0.294992743247 0.515190929137 -9.3577574133e-19)
(-0.29795970094 0.541019054136 -8.95260304495e-19)
(-0.300945592507 0.565861067703 -8.58481583137e-19)
(-0.303901682368 0.589682051272 0)
(-0.306808967933 0.612447833789 0)
(-0.309604802024 0.634136227798 7.66632110112e-19)
(-0.312251961904 0.654707423283 0)
(-0.314679171177 0.674137310873 0)
(-0.316834030286 0.692362101376 6.96461880821e-19)
(-0.318665053078 0.709346090388 0)
(-0.320114585583 0.725006801377 0)
(-0.321143665004 0.739284730973 0)
(-0.32169922492 0.75207244735 0)
(-0.321763792958 0.763286417024 0)
(-0.3212885409 0.772796907252 -1.20261465027e-18)
(-0.320278594213 0.780492308566 0)
(-0.318696098576 0.786227433536 0)
(-0.316569040115 0.78986488048 -1.14019240637e-18)
(-0.313880105997 0.791259285751 -1.12313840311e-18)
(-0.310662822266 0.790250469095 0)
(-0.306929658658 0.786700369784 0)
(-0.302720447 0.780449500019 -1.08147374338e-18)
(-0.298062477928 0.771373859084 0)
(-0.292991034999 0.759310638871 1.06054583716e-18)
(-0.287547626746 0.744159051519 0)
(-0.281738045166 0.725759528617 -1.0442429296e-18)
(-0.275608550017 0.704002564936 0)
(-0.269174533723 0.678744579694 -1.03196966698e-18)
(-0.262471569536 0.649877664945 -1.02719175836e-18)
(-0.255495445931 0.617253232312 0)
(-0.248277069417 0.580745635092 0)
(-0.240812619476 0.540201747567 0)
(-0.233121387926 0.495467299128 -1.01609426613e-18)
(-0.225182773744 0.446355951529 0)
(-0.217034720143 0.392659319725 0)
(-0.208530965779 0.333867895359 0)
(-0.199747245711 0.270108333151 0)
(-0.190779088027 0.201787986426 0)
(-0.181643443953 0.129355204128 0)
(-0.172341486764 0.0532332081102 0)
(-0.162860146731 -0.0261518446861 1.02311447608e-18)
(-0.153235597491 -0.108349585128 0)
(-0.143486297832 -0.192852179917 1.0302391077e-18)
(-0.133650383505 -0.279143017964 1.03446384694e-18)
(-0.123740853364 -0.366652496247 0)
(-0.11377755738 -0.454841160308 -1.0440703961e-18)
(-0.103769863431 -0.543116850949 0)
(-0.0937120215721 -0.630950217016 1.05504192643e-18)
(-0.083605260466 -0.717769871335 0)
(-0.0734395983583 -0.803057718069 -1.06725561145e-18)
(-0.0632159248471 -0.886253173134 1.07382760846e-18)
(-0.0529441394504 -0.966834023605 0)
(-0.042634322278 -1.04422128804 0)
(-0.0322925622628 -1.11787079732 0)
(-0.0219220813926 -1.18718272448 0)
(-0.0115329745365 -1.25159584887 1.11257517889e-18)
(-0.00110842011009 -1.31051717543 -1.12199779663e-18)
(0.0093984291959 -1.36345672972 2.26451757355e-18)
(0.0200274525651 -1.40993678175 2.28709187402e-18)
(0.0308601836682 -1.44964172947 2.31217892608e-18)
(0.0419060005876 -1.48233464287 0)
(0.0532319698877 -1.50789937094 0)
(0.0647281564632 -1.52644436484 0)
(0.0764455958411 -1.53815724126 2.45072717899e-18)
(0.088780537341 -1.5438337841 0)
(0.10217862177 -1.54462196408 0)
(0.117029849749 -1.54204013663 2.62227516727e-18)
(0.133719733945 -1.53780787774 0)
(0.152684223319 -1.53398463958 -2.79145161393e-18)
(0.174369145833 -1.53285796555 0)
(0.199169802338 -1.53709531797 3.02697255832e-18)
(0.22736764494 -1.54956502923 0)
(0.259287181432 -1.57326410635 0)
(0.295803007074 -1.61106282605 0)
(0.338365355856 -1.66585519652 3.82605620398e-18)
(0.38733268235 -1.73925557671 0)
(0.443082459486 -1.82863616567 4.49890817651e-18)
(0.507877809438 -1.92588399657 4.94431039236e-18)
(0.576648842611 -2.02076657505 0)
(0.639263232734 -2.09524469272 0)
(0.705370907567 -2.12074253344 0)
(0.767498855551 -2.10697843676 8.07310942433e-18)
(0.779994305571 -2.08820630612 0)
(0.805870344541 -2.06610952911 0)
(0.916249009516 -1.98232057616 1.38777695334e-17)
(1.00496502819 -1.825689839 1.75688792742e-17)
(1.04025235939 -1.64763723342 0)
(0.847622847642 -1.36081151498 -3.17922974289e-17)
(0.666126936085 -1.2543312313 -5.23035615991e-17)
(0.235808114193 -0.29889016846 4.89054539545e-17)
(0.148626203899 0.17427989687 0)
(0.101456542986 0.45857368797 0)
(0.066314555369 0.675865456872 0)
(0.0408552649949 0.852035875682 -1.43927088805e-17)
(0.0218683863726 0.997315910287 0)
(0.00659894266347 1.11636139256 -1.17033023987e-17)
(-0.00686102825421 1.21229110371 0)
(-0.0197913772208 1.28684592967 0)
(-0.0327464030171 1.34192364245 0)
(-0.0460928996958 1.37845887399 9.31829165092e-18)
(-0.0600705692472 1.39778883855 8.99908864676e-18)
(-0.075019191837 1.4004886672 0)
(-0.091255678567 1.38767484614 0)
(-0.109256149754 1.35991368775 0)
(-0.129427480294 1.31838471641 0)
(-0.152064954635 1.26359844309 0)
(-0.177225003554 1.19721086163 0)
(-0.204844885098 1.12035688969 1.60700420588e-17)
(-0.234539050934 1.03521653265 0)
(-0.266153459445 0.943096645422 0)
(-0.299756824283 0.846693723003 0)
(-0.335988758639 0.747481071216 -1.59885622045e-17)
(-0.375439049687 0.649043126235 -1.60136615459e-17)
(-0.41700853679 0.551866992982 1.60601207801e-17)
(-0.459142200561 0.456634725116 1.61266501886e-17)
(-0.500684628775 0.362061337793 0)
(-0.541399284332 0.267346661987 0)
(-0.581710206779 0.170497730095 0)
(-0.621826458597 0.0706906612505 1.65645565231e-17)
(-0.662053805836 -0.034391972252 0)
(-0.702418917114 -0.14565109718 0)
(-0.743228502987 -0.265754240205 -1.70430613526e-17)
(-0.784482662433 -0.395562925771 0)
(-0.826535942384 -0.538117735241 -1.74250303835e-17)
(-0.869156139818 -0.694213345022 0)
(-0.912511779947 -0.867451894362 -1.7857577215e-17)
(-0.955824018668 -1.05856568682 0)
(-0.998885992692 -1.27178897577 0)
(-1.04028747742 -1.50746861325 0)
(-1.07962207869 -1.77030264042 0)
(-1.11515222662 -2.05975279123 0)
(-1.14656573573 -2.38067117966 0)
(-1.17189292546 -2.73071866171 0)
(-1.19134368819 -3.11479855339 0)
(-1.20270404575 -3.52966117626 -2.06962265816e-17)
(-1.20562870917 -3.98083010176 0)
(-1.19653034675 -4.46116946952 0)
(-1.174156989 -4.97431546956 -2.22464011997e-17)
(-1.13861535991 -5.50866741939 0)
(-1.08876500272 -6.07176484747 0)
(-1.01780178893 -6.63578810534 -2.44119600716e-17)
(-0.92829831511 -7.18577230773 0)
(-0.826876626889 -7.69334694663 0)
(-0.710489527594 -8.21381793539 -2.75354917691e-17)
(-0.568914873313 -8.73962875826 2.88712406983e-17)
(-0.272551956156 -9.33389503744 -3.03909952845e-17)
(0.0769823421032 -9.92816948 0)
(0.463300003586 -10.9734299602 0)
(0.983851349235 -12.7710455872 -7.27687859676e-17)
(1.86384046516 -15.3060315826 0)
(2.7611147732 -16.5867120828 8.42823539337e-17)
(3.4145396854 -17.0868446665 9.17580659836e-17)
(1.13505722089 -15.2621732552 0)
(-0.0806230657897 0.0800326542288 9.13915504159e-17)
(0.00176595110198 0.213227141953 0)
(-0.0539335225877 0.206204493787 -2.7712778156e-17)
(-0.0908997308604 0.129721964757 1.78994950345e-17)
(-0.0904806300109 0.0556494427315 1.3131728555e-17)
(-0.0656653715533 0.000849526590946 -5.29255156708e-18)
(-0.0332455005256 -0.0354005686142 -8.94531236618e-18)
(-0.00369795207088 -0.0594015722848 0)
(0.0192305654044 -0.0760751208998 3.32876400627e-18)
(0.0345541559573 -0.0886654556618 -5.84741454006e-18)
(0.0425618091373 -0.0993627433751 -7.79364988159e-18)
(0.0444884679941 -0.109379532818 4.66013973367e-18)
(0.0419344122349 -0.119449835091 -6.32544555932e-18)
(0.0364289372475 -0.129872558615 -1.92276589356e-18)
(0.0292483303839 -0.140889830231 0)
(0.0212842526392 -0.152604159091 1.62860372317e-18)
(0.0131447094209 -0.165169222457 1.51116915881e-18)
(0.0051698519098 -0.178644076967 1.40881370967e-18)
(-0.00243927796597 -0.193114165116 -2.63561174512e-18)
(-0.00959214032794 -0.208562911639 0)
(-0.0162475090736 -0.22498000953 -2.33596783482e-18)
(-0.0224011637207 -0.242266407029 0)
(-0.0280288170714 -0.260337743323 2.09726247853e-18)
(-0.0331206415924 -0.279049089243 0)
(-0.0376491608627 -0.298279527482 -2.8566986573e-18)
(-0.0415911388476 -0.317878156978 9.09135218973e-19)
(-0.044900887105 -0.337714611298 1.74464923271e-18)
(-0.0475547663054 -0.357649613478 2.51441673163e-18)
(-0.0495041837087 -0.377560067431 8.07295164831e-19)
(-0.0507298721765 -0.397331050332 7.78415266483e-19)
(-0.0511939407295 -0.41684529584 0)
(-0.050892778191 -0.436009406591 1.45314937583e-18)
(-0.0498041618397 -0.454711876485 -7.05386312561e-19)
(-0.0479269152337 -0.472874449015 0)
(-0.0452564730522 -0.490390085396 0)
(-0.041798000507 -0.507191605244 -6.48891410269e-19)
(-0.0375579689824 -0.52317659669 0)
(-0.0325417590249 -0.53827980084 0)
(-0.0267639694538 -0.552402305659 0)
(-0.0202233459867 -0.565475282825 0)
(-0.0129374358375 -0.577402275714 0)
(-0.00490056642938 -0.588104836676 -1.13953872289e-18)
(0.00386734228249 -0.597490300292 -2.24776528662e-18)
(0.0133716928596 -0.605465450999 0)
(0.0235881013877 -0.611943052683 -1.09027199667e-18)
(0.0345117434673 -0.616810805037 1.08223394094e-18)
(0.0461144108804 -0.619986200081 0)
(0.0583799834236 -0.621341401469 0)
(0.0712755406353 -0.62079351892 3.14818551598e-18)
(0.0847605270542 -0.618201236813 2.08122204624e-18)
(0.0988077577013 -0.613478496712 -1.03643857442e-18)
(0.113378526512 -0.606476610927 -2.05602353084e-18)
(0.128444081425 -0.597100784495 -1.02052867332e-18)
(0.143957917615 -0.585207110961 0)
(0.159890325602 -0.570686941329 3.05133709757e-18)
(0.176194463662 -0.553391794145 1.01666395263e-18)
(0.192845492356 -0.533196590301 0)
(0.209800135017 -0.509948351236 -2.02367317568e-18)
(0.227027129207 -0.483491678917 2.02375714631e-18)
(0.244466959443 -0.453652603514 1.01533037375e-18)
(0.26206961328 -0.42014819918 0)
(0.279826390357 -0.382344825613 0)
(0.297575912929 -0.339973473997 0)
(0.315377858504 -0.293337316195 -2.03391416854e-18)
(0.333221812288 -0.242812406468 0)
(0.35101292083 -0.188786979125 2.04347597343e-18)
(0.368633788207 -0.131699157291 0)
(0.386008968064 -0.0720242779459 1.02627803608e-18)
(0.403050985321 -0.0102718048678 0)
(0.419674403672 0.0530849270491 1.03560526317e-18)
(0.43578115941 0.117551439369 1.04099623939e-18)
(0.451278433499 0.182700025709 0)
(0.466081203325 0.248068619779 1.05821483513e-18)
(0.480110224939 0.313270744555 0)