/*--------------------------------*- C++ -*----------------------------------*\
| =========                 |                                                 |
| \\      /  F ield         | OpenFOAM: The Open Source CFD Toolbox           |
|  \\    /   O peration     | Version:  v1806                                 |
|   \\  /    A nd           | Web:      www.OpenFOAM.com                      |
|    \\/     M anipulation  |                                                 |
\*---------------------------------------------------------------------------*/
FoamFile
{
    version     2.0;
    format      ascii;
    class       volScalarField;
    location    "1";
    object      alpha;
}
// * * * * * * * * * * * * * * * * * * * * * * * * * * * * * * * * * * * * * //

dimensions      [0 0 -1 0 0 0 0];


internalField   nonuniform List<scalar> 
12225
(
0.388163703141
0.394686914176
0.399645692254
0.399017134156
0.407834065782
0.411243708189
0.416146867885
0.420110276602
0.422516936637
0.422551261746
0.419244650061
0.413728033987
0.410959659705
0.407408423889
0.396006483934
0.385104900246
0.373335726625
0.354685223907
0.389858203817
0.373169734399
0.392696488145
0.388444854253
0.394238009419
0.395620803775
0.398267776118
0.40052928752
0.402574954042
0.404315375883
0.404986714549
0.404446203525
0.405492688135
0.406687519927
0.403561207797
0.400138928989
0.395106978195
0.389332628493
0.399270722781
0.376526097143
0.393341792999
0.389093955321
0.395685934974
0.397668962946
0.400765810638
0.40333451862
0.405580915567
0.407496258185
0.408765040073
0.409306277869
0.410137100592
0.410338281327
0.408090943577
0.405744342535
0.403040514289
0.402601712999
0.406409173008
0.377075185867
0.394822117971
0.38945386828
0.395439693871
0.396558093094
0.398773760973
0.400564406046
0.40217915159
0.403606416114
0.404708011679
0.405414789543
0.406015647775
0.405947174888
0.404564193354
0.403192959318
0.402142296871
0.403529402396
0.410819481725
0.377054628354
0.395279274397
0.389144513192
0.394807907588
0.395432714917
0.397155864975
0.398410051832
0.399419656135
0.400210100874
0.40074496521
0.401025502731
0.401108985704
0.40071161362
0.399742719813
0.399056080646
0.399138039596
0.40124357067
0.413708512371
0.376962853903
0.395359469395
0.388593035661
0.393942089775
0.39412938203
0.395454569364
0.396298129178
0.396862145251
0.397199598399
0.397308955616
0.397233179298
0.396983592614
0.396448355519
0.395769087366
0.39558056427
0.396341138799
0.39872523014
0.415465356391
0.376879262545
0.39520987867
0.387941086165
0.392988697771
0.392809622422
0.39382501137
0.394364979105
0.394624499579
0.394670955197
0.394513294129
0.394212975461
0.393806288175
0.393276504841
0.392847165424
0.393013661418
0.394166718216
0.396663405726
0.416449630568
0.376881508515
0.394965973984
0.387315448257
0.392066450824
0.39157282582
0.392335305816
0.39264426415
0.392714864791
0.392606412491
0.392314301192
0.391910621553
0.391467606341
0.391021228216
0.390824290764
0.391262922303
0.39266416132
0.395177516437
0.416943977312
0.377020076926
0.394733045551
0.386810169229
0.391269061986
0.390491330437
0.39103642814
0.391177657636
0.39114861973
0.390978817384
0.390643724528
0.390233348539
0.389847139147
0.389551294588
0.389581611899
0.390265607192
0.391837225127
0.394339173745
0.417187610802
0.377328773019
0.394644275319
0.386554969187
0.390762770209
0.389749960394
0.390139946563
0.390184927725
0.390111460424
0.389921315207
0.389598242585
0.389257131229
0.389011644464
0.388924271886
0.389196442649
0.390096126018
0.391779417087
0.394206403101
0.41780383457
0.377704553326
0.394924445594
0.386697030169
0.390795792894
0.38968850617
0.390065877335
0.390107581391
0.390044335449
0.389891061404
0.389646878101
0.389415596976
0.389297878151
0.389341603431
0.389722315203
0.390656033103
0.392237014279
0.394409021931
0.420368274046
0.378166269653
0.396154713404
0.387688491353
0.391876969676
0.3907783461
0.391168493543
0.39121036672
0.391192884121
0.391094395121
0.390835693087
0.390532563738
0.390305444892
0.39022503327
0.390448060082
0.391153262323
0.392425381055
0.394206914284
0.422007114258
0.378767012125
0.39703878455
0.388386657521
0.392385431062
0.391161615323
0.391452936362
0.391393259268
0.391216703671
0.390917683181
0.390472765272
0.390007147635
0.389675862847
0.389529053145
0.389717106738
0.390369590025
0.391523669327
0.393125630104
0.424021098905
0.37947885149
0.397931520993
0.389000901125
0.392720938918
0.391167007377
0.391112170737
0.390764492933
0.390363842186
0.389900585163
0.389359713663
0.388886591955
0.388632565569
0.388620715667
0.388928373646
0.389654315226
0.39076235771
0.392260066005
0.426747986613
0.380292012649
0.399074363063
0.389746632366
0.393148786473
0.391200924363
0.390753863825
0.390077318494
0.389432279994
0.388842252372
0.388272209628
0.387886568864
0.387807002429
0.387977936992
0.388439842731
0.38923844555
0.390324059612
0.391689112156
0.429656125179
0.381110374012
0.400375563414
0.390659638224
0.393817404692
0.391520004277
0.39074939348
0.389801781967
0.388979838083
0.388295062747
0.387746904718
0.38745078097
0.387520907626
0.387825508544
0.388388777105
0.389214435145
0.390253485237
0.391515956561
0.432390348568
0.381797182705
0.401685914363
0.391654005521
0.394684380503
0.392148649408
0.391175865801
0.390065011121
0.389144015533
0.388437146483
0.387907135478
0.387682777021
0.387835714755
0.388216324517
0.388809753472
0.38963548583
0.390608811363
0.391797184465
0.434875518775
0.382236198435
0.402896467575
0.392612138002
0.395637122723
0.392984111679
0.391937454617
0.390754395253
0.389799784889
0.389094971482
0.388593163164
0.388417240176
0.388619588976
0.38902954188
0.389628570613
0.39043715704
0.391362991922
0.392481909595
0.436294158532
0.382156876855
0.403481230432
0.393075234525
0.396212658888
0.393606137946
0.392650603071
0.391546588049
0.390682933997
0.390076995514
0.389673593575
0.38958359919
0.389852759895
0.390300521682
0.390914280241
0.391721458702
0.392627827655
0.393707612761
0.433514264767
0.381390446249
0.402604506443
0.392583342492
0.396152625137
0.394036096411
0.393584234098
0.392995844879
0.392604961491
0.392421131176
0.392370597035
0.392549062863
0.39300858546
0.393581839489
0.394260867615
0.395077254879
0.395946600356
0.396926605477
0.431435106437
0.380497355987
0.401600306625
0.391883076919
0.39579701663
0.394088255359
0.394042963295
0.39383841328
0.393810461454
0.393930385497
0.394123794714
0.394472390073
0.395054783516
0.395691056829
0.396397338244
0.397196671382
0.398029918815
0.398936940667
0.429781292579
0.379622852623
0.40066390799
0.39122556951
0.395438296487
0.394099526281
0.39439874632
0.394533176023
0.394800412313
0.395167899322
0.395562742879
0.396051358833
0.396725161001
0.397421013342
0.398148021438
0.398945697735
0.399749092087
0.400622729708
0.428147984569
0.378719517831
0.399787461441
0.390612019574
0.395122555474
0.394150207877
0.394787700981
0.395242301456
0.395786661767
0.396396691545
0.396971213655
0.397606071168
0.398381469057
0.399154229317
0.399916342185
0.400734003274
0.401531694093
0.402369450005
0.426480275031
0.377805911573
0.398915466194
0.390054260916
0.394884995442
0.394268235062
0.395230794072
0.395992415835
0.396797946467
0.397622229419
0.398382210447
0.399153354779
0.400034136066
0.400880487044
0.401712601928
0.402572420057
0.403401253701
0.404229335461
0.424620385687
0.376932761448
0.398045782653
0.389547666332
0.394647260362
0.394380548568
0.395646797121
0.396678371071
0.397722183464
0.398755248444
0.399690370215
0.400593658164
0.401582921607
0.402520918221
0.403420848969
0.404347372766
0.405232909619
0.406077869878
0.422034026607
0.376036553089
0.396931342089
0.388900282077
0.394226037199
0.394261920614
0.395778507863
0.397051209848
0.398306763384
0.399536570976
0.400645520812
0.401681617045
0.402765154558
0.403796939537
0.404788115072
0.405793585836
0.40676613741
0.407665944401
0.41789080002
0.375111887514
0.395420110157
0.387984405519
0.393385371723
0.39364734736
0.39533684678
0.396758662828
0.398166426981
0.399562826876
0.400850892322
0.402010411685
0.403203487565
0.404363153166
0.405462645229
0.406587006936
0.407666132035
0.408693484908
0.409959529159
0.373312085336
0.391859757296
0.385349657423
0.390838485566
0.391410683137
0.393316107757
0.394918301929
0.396465691542
0.397998014518
0.399380843139
0.400605853308
0.401845966595
0.403023612742
0.404128643863
0.405269408088
0.406415723943
0.407240088755
0.393558274997
0.365629538411
0.387691440033
0.381127207949
0.38584741249
0.386323044777
0.388047132452
0.389637070986
0.391387998072
0.393341696726
0.395365230934
0.397228427866
0.399123627866
0.401114945398
0.403154210061
0.40526707963
0.407379729939
0.409503015351
0.378063605425
0.385358845399
0.38939552153
0.385077144682
0.391287060291
0.3913387484
0.392479568416
0.393383896528
0.394146057318
0.394671047918
0.394798290618
0.394831021629
0.394938421759
0.394727307742
0.394228684024
0.39377608153
0.393446558745
0.393690616528
0.476079580731
0.476415070743
0.476563552025
0.476482759827
0.476252523753
0.475921074214
0.4755216958
0.475078090808
0.47460802177
0.474124189276
0.47363534202
0.473147241638
0.472663694799
0.472186690953
0.471717504447
0.471256120583
0.470802636071
0.470355899479
0.469915551195
0.469480885065
0.469051427422
0.468626672237
0.468206213728
0.467790794318
0.467380321681
0.466976214702
0.466578250167
0.466187376212
0.465803735198
0.465428695814
0.465062397627
0.464705649716
0.464358588512
0.464022384663
0.463697028141
0.463382536034
0.463078882367
0.462786781743
0.462505890813
0.462236363811
0.461977883843
0.461730188446
0.461492946222
0.461265496824
0.461047556337
0.460838198804
0.460637029699
0.4604433288
0.460256602367
0.460076388242
0.459901984729
0.459733571209
0.459570682407
0.459413793184
0.459262598275
0.459117344174
0.458978000696
0.458845013503
0.458718423445
0.458598436411
0.458485010882
0.458378484996
0.458278594333
0.458184719238
0.458096324549
0.458013257113
0.457934816207
0.457860487791
0.457789982452
0.457722735759
0.457658611041
0.45759720174
0.457538435828
0.457482092999
0.45742797096
0.457375858155
0.457325960896
0.457278826814
0.457234591504
0.457193145925
0.457154562914
0.457119446582
0.457088214357
0.457061760444
0.457038814382
0.457019620847
0.457002024099
0.456983645238
0.456966286115
0.456940792443
0.456904883844
0.45686511485
0.456823936038
0.456785289148
0.456749945118
0.456717997939
0.456689526862
0.456664499585
0.456643022684
0.456625411632
0.45661307556
0.456607982505
0.456611291119
0.456623485255
0.45664235289
0.456666276327
0.456692807251
0.456720628469
0.456748998697
0.456777653713
0.456806314606
0.45683482549
0.456862920996
0.456890572711
0.456917784696
0.456944564376
0.456970418307
0.456994205219
0.457016424642
0.457038767705
0.457064631777
0.457095694941
0.457131441214
0.457171554128
0.457213845644
0.457257312042
0.457301254642
0.457345326144
0.457389170372
0.4574325583
0.457475092569
0.457516533558
0.457556619475
0.45759544198
0.457633008095
0.457669436929
0.457704741141
0.457738639884
0.457771307398
0.457802506465
0.45783309263
0.457861897752
0.457889367336
0.45791651883
0.45794417867
0.45797304158
0.458003027514
0.458033833023
0.458065036835
0.458096336243
0.458127476836
0.458158303521
0.458188709846
0.458218706732
0.458248390714
0.458278021516
0.458308141795
0.458339665532
0.458374455296
0.4584150812
0.458466604322
0.458534988798
0.458629221136
0.458762131912
0.458951735376
0.459218732194
0.459588927808
0.460085294161
0.46072663498
0.461544489032
0.462559531765
0.463774713109
0.465175279785
0.466717066813
0.468341614913
0.470072195119
0.471857689366
0.473599376611
0.475195015548
0.476388857491
0.476088645939
0.476350920692
0.476331589434
0.476092108887
0.475752387471
0.475373340219
0.47497491871
0.474565401736
0.47414756064
0.473722692745
0.473291711772
0.472855821774
0.472415953349
0.471973184303
0.471528473721
0.471082548439
0.470636107904
0.470189358617
0.46974258413
0.469296111183
0.468850098695
0.468405045415
0.467960909732
0.46751886707
0.467079441925
0.466644121569
0.466212995919
0.465787444907
0.46536812011
0.464956346893
0.464552372658
0.464157326053
0.463771868365
0.463396853705
0.463032267105
0.462678775268
0.462336424769
0.462005571494
0.461686321407
0.461378905174
0.461083167258
0.460798931385
0.460525984007
0.460263849324
0.460012219757
0.459770402795
0.459537886014
0.459314056146
0.459098252131
0.458890020005
0.458688603743
0.45849377401
0.458305148706
0.458122885138
0.457946531581
0.45777613596
0.457611707274
0.457453462742
0.457301394343
0.457155742199
0.457016612641
0.456883966985
0.456757470741
0.456636987298
0.456522200116
0.456412732232
0.456308424987
0.456208923014
0.456113959851
0.456023097349
0.455936048803
0.455852488579
0.4557722178
0.455694844759
0.45562006051
0.455547835955
0.4554782552
0.455411599304
0.455348053017
0.455287656475
0.455230639753
0.455177394698
0.45512842201
0.455084633112
0.455045398453
0.455010075841
0.454977312706
0.454946752256
0.454915220639
0.454879296538
0.45483444369
0.454781703937
0.454727806119
0.454675063254
0.454624614275
0.454576565856
0.454530816277
0.454487155005
0.4544456031
0.454406505421
0.454371386878
0.454342165292
0.454320790034
0.454307178297
0.454300371741
0.454298601641
0.454300100005
0.454303825479
0.454309102232
0.454315571311
0.4543229545
0.454330957878
0.45433925517
0.454347572599
0.454355606417
0.454363017572
0.454368881828
0.454371971809
0.454372025157
0.454371227713
0.454372753298
0.454378235648
0.454388272068
0.454401984134
0.454418090972
0.454435789568
0.454454467871
0.454473697649
0.454493190876
0.454512707196
0.454532065965
0.454551112734
0.454569852188
0.454588385475
0.454606780356
0.454624981185
0.454642706657
0.454659358614
0.454674308771
0.454687453719
0.454698795741
0.454707633321
0.454714253679
0.45471952442
0.454724654048
0.454730451044
0.454737099543
0.454744393127
0.454752051635
0.454759792025
0.454767428057
0.454774786071
0.45478179521
0.454788376794
0.454794552578
0.45480036959
0.454806010422
0.454811593253
0.45481741375
0.454823272094
0.454828946783
0.454834032331
0.454837640995
0.454837674419
0.454831401869
0.454815284332
0.454779904807
0.454727825773
0.454656924727
0.45456298301
0.454446226415
0.45431257963
0.454170085211
0.454021479936
0.45395207192
0.453879266682
0.4538112425
0.453752769164
0.453705182508
0.453733416432
0.47583507712
0.475950314981
0.475845047085
0.475598919969
0.475304658608
0.475004151085
0.47469779313
0.47438199489
0.47405265113
0.473707911158
0.473347259689
0.472971611209
0.472582546755
0.472181943241
0.471771781788
0.471353804548
0.47092966099
0.4705005874
0.470067590886
0.4696315817
0.469193348513
0.468753814293
0.468313301003
0.467873169392
0.467434072539
0.466997357627
0.46656362735
0.466134304498
0.465710096352
0.465292330604
0.464881677727
0.464479341465
0.464085754256
0.46370194695
0.463328270449
0.462965204125
0.462612890641
0.462271970277
0.461942439245
0.461624497765
0.461318135158
0.46102320746
0.460739577803
0.460466869857
0.460204828827
0.459952933316
0.459710703772
0.459477617837
0.459253141788
0.459036779155
0.458827772936
0.458625939904
0.458430831342
0.458242341019
0.45806020971
0.457884402323
0.457714753699
0.457551387804
0.45739431058
0.457243766853
0.457099727176
0.456962339831
0.45683154761
0.456707098089
0.456588731948
0.456476210097
0.456369167286
0.456267186889
0.45617002064
0.456077226597
0.455988520939
0.455903530221
0.455821960174
0.455743605717
0.455668134338
0.455595345342
0.455525317552
0.455458256432
0.455394162828
0.455333077096
0.455274792392
0.45521949229
0.455167651344
0.455119562709
0.45507483614
0.455032780504
0.454993088178
0.454955585908
0.454921011548
0.454883405496
0.454837570516
0.45478588161
0.454731068566
0.454677101048
0.4546251679
0.454575630947
0.454528474461
0.454483698649
0.454441329939
0.454401857818
0.454366537742
0.454336899146
0.454314005834
0.454297264822
0.454285739037
0.454277856833
0.454272844876
0.454270113534
0.454269295769
0.454270016194
0.454271930011
0.454274633715
0.45427777184
0.454281064782
0.454284276942
0.454287117878
0.45428877186
0.454288556089
0.454286704376
0.454285515753
0.454287253681
0.454292763912
0.454301624104
0.454312643344
0.454325382824
0.454339497582
0.454354694342
0.454370633062
0.454387005471
0.45440349465
0.454419792352
0.454435648232
0.454450975088
0.454465813463
0.454480216634
0.454494145617
0.454507380832
0.454519754186
0.454531068875
0.454541776677
0.454551607027
0.454559839618
0.454565905204
0.454570345696
0.454574356612
0.454578726138
0.454583754701
0.454589303439
0.454595210203
0.454601256921
0.454607339591
0.454613323964
0.454619189362
0.454624891787
0.454630507486
0.454636139187
0.454642071726
0.454648613289
0.454656365837
0.454665918449
0.454677785413
0.454692669665
0.45471134132
0.454734037115
0.454760809254
0.454790794683
0.454820162098
0.45484597841
0.454867117863
0.454878761762
0.454874768497
0.454848908145
0.454793302516
0.454708225481
0.454607395496
0.454498917452
0.454374064696
0.454233742682
0.454082258364
0.45391395669
0.475626705375
0.475454504629
0.475282123644
0.475061958027
0.474831082384
0.474609553578
0.474381439442
0.474137371957
0.473871383125
0.473580973842
0.473266339625
0.472929211308
0.472571950701
0.472197237672
0.471807745299
0.471405931336
0.47099401751
0.470573870258
0.470147080332
0.469715149875
0.469278980218
0.468839867191
0.468398678728
0.467956626487
0.467514528726
0.467073956533
0.466635671703
0.466201049027
0.46577105587
0.465347073243
0.464929882167
0.464520657908
0.464120187504
0.463729414171
0.463348558275
0.462978524363
0.46261945478
0.462271800606
0.461935685203
0.461611419012
0.461298926517
0.460998167197
0.460708985677
0.460431102087
0.460164269785
0.459908062919
0.459662070902
0.459425831523
0.459198704485
0.458980265814
0.458769958146
0.458567282919
0.458371744708
0.458183265673
0.45800152216
0.457826385503
0.457657670234
0.457495391446
0.457339482693
0.457190154714
0.457047536799
0.456911648781
0.456782255823
0.456659412925
0.45654287449
0.456432216266
0.456327189425
0.456227427008
0.456132629522
0.456042402183
0.455956420881
0.45587435174
0.455795930063
0.455720754422
0.455648523164
0.455579113671
0.455512351173
0.455448271248
0.455386848057
0.455327946291
0.455271227137
0.455216685495
0.455164669938
0.455115561971
0.455069126949
0.455024985982
0.454983298394
0.454945802914
0.45491233057
0.454879034171
0.454840136411
0.45479375334
0.454744563661
0.454695666291
0.454648417681
0.454603278468
0.454560401638
0.454519861516
0.454481768734
0.454446629543
0.454415369894
0.454389163527
0.454368142586
0.45435175273
0.454338674479
0.454328188623
0.454320048829
0.454314161426
0.454310344295
0.454308307154
0.454307673304
0.454308033601
0.454309037038
0.454310417866
0.4543120061
0.454313468417
0.454314277359
0.454313976986
0.454313378746
0.454314394085
0.454318651008
0.454326125066
0.454335388766
0.454345676191
0.454356957816
0.454369344112
0.454382773601
0.454397035109
0.454411826909
0.454426790362
0.454441550417
0.454455817465
0.454469466833
0.454482526174
0.454495055667
0.454507020439
0.454518366352
0.454529172519
0.454539814908
0.454550800228
0.45456195505
0.45457204592
0.454579986385
0.45458611425
0.454591438116
0.454596787759
0.454602481888
0.454608505209
0.454614748024
0.454621096388
0.454627484404
0.454633853524
0.454640198647
0.454646526506
0.454652906356
0.454659465829
0.454666442289
0.454674109922
0.454682901922
0.454693222628
0.454705318072
0.454719580659
0.45473626171
0.454755056641
0.454775361417
0.454795858481
0.454813451378
0.454825782296
0.454831118184
0.454825332718
0.454804443745
0.454765102917
0.454702704833
0.454618652925
0.454520032267
0.454410357599
0.454285719565
0.454143376629
0.453974910606
0.453757056631
0.475388324115
0.474857995953
0.474636925065
0.474452589669
0.474277747797
0.474119316669
0.47395129225
0.473762199653
0.473545728935
0.473300202827
0.473026180087
0.472725630185
0.472401209786
0.472055808886
0.471692244373
0.471313232281
0.470921148609
0.470518271795
0.470106305898
0.469686933229
0.469261538117
0.46883156031
0.468397845125
0.467961970142
0.467524920063
0.467087995677
0.466652309778
0.466219349287
0.465790154861
0.465366095408
0.464948209422
0.464537774991
0.464135445579
0.463742300794
0.463358865172
0.462985837188
0.462623404318
0.46227232023
0.461932596088
0.461604592804
0.461288282102
0.460983725349
0.460690762465
0.460409236633
0.460138888897
0.459879446857
0.459630480176
0.459391566923
0.459162247269
0.458942031174
0.458730257132
0.458526609111
0.458330586031
0.458141755834
0.457959952635
0.457785081647
0.457616874275
0.457455237944
0.45730010804
0.457151607824
0.457009775788
0.456874721817
0.456746293537
0.456624354244
0.456508731913
0.456399251269
0.456295528051
0.456197217529
0.456104047154
0.456015637693
0.455931711566
0.455851862553
0.455775726882
0.45570302797
0.455633435007
0.455566602417
0.455502375246
0.455440681506
0.455381349997
0.455324148955
0.455268578504
0.455214527897
0.455162400863
0.455112542193
0.455064905372
0.455019400909
0.454976810775
0.454939125516
0.454907701212
0.454877709323
0.454842319761
0.45480039038
0.454755375995
0.454710567924
0.454667272172
0.454625959125
0.454586859532
0.454550038943
0.454515680747
0.454484234034
0.454456365411
0.454432617713
0.454412735143
0.454395871944
0.454380960565
0.454367799735
0.454356571028
0.454347499761
0.454340555631
0.454335542575
0.454332094568
0.454329844904
0.454328461371
0.454327740952
0.454327531359
0.454327497045
0.454327284468
0.45432684868
0.454327262257
0.454330108401
0.454336242919
0.454344737908
0.454353915263
0.454363289873
0.454373135948
0.454383828568
0.45439547205
0.454407961717
0.454421020663
0.454434272696
0.454447306173
0.454459808998
0.454471631109
0.454482805289
0.454493378518
0.454503324568
0.454512746251
0.45452200559
0.454531998577
0.454543258297
0.454555567256
0.45456716836
0.454576723513
0.454584361783
0.454590938522
0.454597247432
0.45460359779
0.454610064799
0.454616595994
0.454623181173
0.454629797605
0.454636459045
0.454643172267
0.454649982753
0.454656947981
0.45466420421
0.454671949393
0.454680425678
0.454689972385
0.454700908793
0.454713370173
0.454727593946
0.454743647583
0.454761052773
0.454779051404
0.454796286564
0.454809950612
0.454817792156
0.454817920858
0.454806343786
0.45477960735
0.454734789077
0.454667782233
0.45457909047
0.454474286958
0.454354423369
0.454216223075
0.454055939443
0.453861618672
0.453611507105
0.475051175724
0.474132782537
0.473887491597
0.473749381112
0.473625782396
0.473521539834
0.473403951639
0.473262145876
0.473090396269
0.472887153256
0.472653132083
0.47239051193
0.472101698238
0.4717895679
0.471456760593
0.471106026844
0.470739699813
0.47036008548
0.469969075672
0.469568650012
0.469160045129
0.468744892118
0.468324490845
0.467900158584
0.467472997631
0.467044669348
0.466616283289
0.466189289998
0.465764950065
0.465344707598
0.464929661579
0.464521085256
0.464119944644
0.4637273028
0.463343581971
0.46296979511
0.462606222487
0.462253490485
0.461911757878
0.46158153172
0.461262743888
0.460955593241
0.460659908809
0.460375661464
0.460102595915
0.459840526047
0.459589100489
0.459348007453
0.459116668269
0.458894707214
0.458681693899
0.458477059934
0.45828033666
0.458091212656
0.457909348847
0.457734599296
0.4575668473
0.457405862386
0.457251522839
0.457103840863
0.456962894157
0.456828834221
0.456701380411
0.456580503193
0.456466014251
0.45635776799
0.456255438228
0.456158744716
0.45606735665
0.4559809355
0.455899120383
0.455821540022
0.455747884296
0.455677692692
0.455610632582
0.45554643466
0.45548478013
0.45542547356
0.455368328457
0.455312995072
0.455258924615
0.455205945201
0.455154465958
0.455104917371
0.455057382428
0.455012080706
0.454969997364
0.454933507853
0.454903532457
0.454875738585
0.454843058378
0.454804024956
0.454762382053
0.454721109646
0.454681437848
0.454643815477
0.454608379815
0.454575212523
0.454544455571
0.454516453268
0.454491663515
0.454470081716
0.454451242725
0.45443410824
0.45441805512
0.454403120397
0.45438977019
0.454378363188
0.454369018821
0.454361611054
0.454355868509
0.454351475739
0.454348172009
0.454345806764
0.454344215901
0.454343122757
0.454342251085
0.454341965906
0.454343292011
0.454347539737
0.45435489825
0.454363795946
0.454372764002
0.454381454811
0.454390275834
0.454399680744
0.454409895797
0.454420883712
0.454432409207
0.45444409471
0.454455540158
0.454466428654
0.454476631323
0.454486171008
0.454495084579
0.454503366057
0.454511225306
0.454519416812
0.454528961591
0.454540603125
0.454553741768
0.454566429577
0.454577292802
0.454586246899
0.454594028946
0.454601292793
0.454608372175
0.454615352958
0.454622266199
0.454629147063
0.454636046982
0.454643013167
0.454650093744
0.454657340108
0.454664819405
0.454672645922
0.454680993397
0.454690048001
0.454700072906
0.454711284616
0.454723711086
0.454737427475
0.454752328203
0.45476777002
0.454782846438
0.454796171424
0.454805164849
0.45480768732
0.454801838459
0.454783879442
0.454750848868
0.454700344092
0.454628795856
0.454535970723
0.454425548938
0.454297476614
0.454149012863
0.453975712937
0.453764426479
0.453496837376
0.474583017568
0.473262671875
0.473013749674
0.472932499203
0.472859136946
0.472805667923
0.472735405825
0.472638782903
0.472510279328
0.472349235767
0.47215621118
0.471933194952
0.471682375163
0.471406456911
0.471107852416
0.470789235492
0.470452822774
0.470101028246
0.469735654752
0.469358591067
0.468971497533
0.468576028262
0.468173280247
0.467764980125
0.46735239382
0.46693690618
0.466519881927
0.466102932551
0.465687311067
0.46527453203
0.464865830439
0.464462619475
0.464065761876
0.463676437371
0.463295377153
0.462923437208
0.462560974308
0.462208886268
0.46186730817
0.461536780592
0.46121733589
0.460909254502
0.460612395004
0.46032683149
0.46005231632
0.459788779885
0.459535865183
0.459293304831
0.459060713675
0.45883768561
0.458623659999
0.458418315434
0.458221244042
0.458031910344
0.457850049591
0.457675516666
0.457508234923
0.457347956135
0.457194525385
0.457047890948
0.456907990121
0.456775014856
0.456648846452
0.456529265625
0.456416027904
0.456309216683
0.456208484274
0.45611353912
0.456024060921
0.455939702722
0.455860128193
0.455784913932
0.455713644342
0.455645977779
0.455581548067
0.455519910284
0.455460798724
0.455403963329
0.455349126815
0.455295894163
0.455243702413
0.455192373679
0.455142330882
0.455094065082
0.455047761851
0.455003791862
0.454963272935
0.454928464949
0.454900252294
0.454873902693
0.454842729964
0.45480581903
0.454766718189
0.454728285521
0.454691635503
0.454657167396
0.454624915686
0.454594922861
0.454567293665
0.454542257949
0.454520011044
0.454500294331
0.454482336288
0.454465289736
0.454448772118
0.454432956253
0.454418389824
0.454405510691
0.454394512868
0.454385361699
0.454377890389
0.454371866534
0.454367125479
0.454363550903
0.454360957786
0.454359058857
0.454357768922
0.454357602597
0.454359613158
0.454364706734
0.454372478518
0.454381330526
0.454389969317
0.454398152908
0.454406278912
0.454414795644
0.454423959044
0.454433774598
0.454444039641
0.454454409534
0.45446451095
0.454474055932
0.454482938696
0.454491170057
0.454498751478
0.454505688919
0.454512329588
0.454519667627
0.454528886046
0.454540716184
0.454554248882
0.454567577184
0.454579293905
0.454589265254
0.454598077442
0.454606248839
0.454614062096
0.454621589093
0.454628914786
0.454636109265
0.454643294443
0.454650540479
0.454657938804
0.454665535615
0.45467340925
0.454681643922
0.454690388826
0.454699773673
0.454709987638
0.454721154125
0.454733193545
0.45474604278
0.454759436419
0.45477261018
0.454784529341
0.454793820887
0.454798061454
0.454795254883
0.454783544591
0.4547595166
0.454720553952
0.454664716939
0.45458877143
0.454491919279
0.454376390287
0.454241376526
0.454084320284
0.45390046846
0.453676674885
0.453397909952
0.473968393285
0.472237260523
0.471999073058
0.471984565
0.471962780077
0.471961107469
0.471938790415
0.471888342984
0.471804943079
0.471687925467
0.471537737105
0.47135651805
0.471146060401
0.470909011644
0.470647519234
0.470364193532
0.470061122586
0.469740600084
0.469404512386
0.469054978356
0.468693357273
0.468321390282
0.467940615419
0.467552460875
0.467158205949
0.466759658351
0.466358079257
0.465955038648
0.465551942595
0.465150391157
0.464751621333
0.464357041364
0.463967764361
0.463585007266
0.4632093848
0.462842040267
0.462483469783
0.462134434561
0.461795260634
0.461466612268
0.461148529836
0.460841391895
0.460545098278
0.460259800234
0.459985294287
0.459721554844
0.459468313279
0.459225419757
0.458992392593
0.458768914748
0.458554668197
0.458349152418
0.458151986686
0.457962874684
0.457781433494
0.457607373316
0.457440738877
0.457281384897
0.457129069833
0.456983663058
0.456845091562
0.456713424185
0.456588625275
0.45647057724
0.456358969368
0.456253716405
0.456154715556
0.45606168979
0.455974262135
0.455892112375
0.455814824712
0.455742004771
0.455673292259
0.455608195186
0.455546334547
0.455487370496
0.455430918528
0.455376663983
0.455324342405
0.455273517012
0.455223630433
0.455174515357
0.45512660079
0.455080398092
0.45503615668
0.454994313825
0.454955972103
0.454923193158
0.454896525632
0.454871247526
0.454841170757
0.454805750786
0.454768610296
0.454732433593
0.45469827379
0.454666410973
0.454636823528
0.454609478451
0.454584449993
0.454561854168
0.454541686951
0.454523532587
0.454506505333
0.454489925037
0.454473550056
0.454457611167
0.454442615739
0.454429033038
0.454417083478
0.454406843064
0.454398232228
0.454391135639
0.454385454781
0.454381098295
0.45437783944
0.454375392228
0.454373831786
0.454373733013
0.454376071322
0.454381419138
0.454389071802
0.454397567425
0.454405845056
0.454413693785
0.454421404143
0.454429360581
0.454437793871
0.454446732194
0.454456001358
0.454465308979
0.454474326385
0.454482829621
0.454490729053
0.454498032054
0.45450466643
0.454510650701
0.454516489031
0.454523277193
0.45453230711
0.454544090712
0.454557619371
0.45457110363
0.454583260669
0.454593940023
0.454603540918
0.454612478318
0.454620934023
0.454628986192
0.45463671252
0.454644232188
0.454651690767
0.45465920078
0.454666865907
0.454674744574
0.454682903312
0.454691408397
0.454700370497