/*--------------------------------*- C++ -*----------------------------------*\
| =========                 |                                                 |
| \\      /  F ield         | OpenFOAM: The Open Source CFD Toolbox           |
|  \\    /   O peration     | Version:  v1806                                 |
|   \\  /    A nd           | Web:      www.OpenFOAM.com                      |
|    \\/     M anipulation  |                                                 |
\*---------------------------------------------------------------------------*/
FoamFile
{
    version     2.0;
    format      ascii;
    class       volScalarField;
    location    "1";
    object      pa;
}
// * * * * * * * * * * * * * * * * * * * * * * * * * * * * * * * * * * * * * //

dimensions      [0 2 -2 0 0 0 0];


internalField   nonuniform List<scalar> 
12225
(
0.51060092316
1.43166043354
1.78469723905
1.55573875369
1.50944798138
1.36395392511
1.24994797149
1.17106442115
1.17869557072
1.33051377604
1.71175856638
2.42437700538
3.54855657872
4.83342861197
6.50771409797
8.62529303528
10.8007733552
11.1866809039
11.6129352509
9.86197124178
9.67062789841
9.46539275147
9.26179667134
9.00529941723
8.77762043853
8.57515939152
8.44255793346
8.4288189119
8.60830291054
9.0579818741
9.68440315106
10.3470154513
11.1470719673
11.9208141388
12.0553309761
9.7163434844
7.67542976324
7.35595727794
7.16727629344
6.97051749128
6.89764147612
6.82623524592
6.83044612039
6.89328038271
7.03201453599
7.26528635691
7.62827469006
8.14982258453
8.74852872201
9.37867206216
9.97493731397
10.335280756
9.87662847219
7.40324704055
7.82174117401
7.438322274
7.37293672625
7.24449270408
7.22974429113
7.19559582834
7.22756402968
7.30560548526
7.44227719602
7.64796855845
7.94043339246
8.3198561983
8.72716551598
9.14087655425
9.44515375797
9.44176465396
8.68929049892
6.61014442248
7.60102147595
7.2243702431
7.24168076194
7.16110920766
7.20317540742
7.22531203308
7.31838520327
7.45648619509
7.64510044181
7.88668713563
8.18361153938
8.51913954777
8.84521621892
9.12927218675
9.24921114548
9.03424015829
8.19737315732
6.54318344223
7.45902510754
7.09162724312
7.18302071994
7.14142209879
7.22252341913
7.27752088508
7.40302997757
7.57030827709
7.7820765892
8.03603084962
8.3249305549
8.6241467139
8.89021371587
9.07762850121
9.07759155558
8.75484867709
7.94279698192
6.62529576865
7.35360754593
6.99204105583
7.14443666806
7.13423274721
7.24278606007
7.31694867704
7.45807695201
7.63652249954
7.85306827773
8.10100222616
8.36735978877
8.62542119014
8.83291712224
8.9389501519
8.85480031042
8.48192719565
7.73423695269
6.66019232043
7.26268364281
6.90715532986
7.10871281039
7.12291961235
7.24980245871
7.33304914503
7.47747265134
7.65365493703
7.86039434509
8.0875635707
8.31943680512
8.53076382537
8.68034340005
8.71858731417
8.57679676981
8.18784981221
7.51374596771
6.62828602365
7.17954688329
6.83011119326
7.06999965925
7.10072814906
7.2379135146
7.32299194685
7.46303378943
7.62795422937
7.8150086112
8.01171413981
8.2027472628
8.36519134157
8.4607216939
8.44405480765
8.26456554753
7.87875351909
7.2791703231
6.53493393689
7.09101357296
6.74496772327
7.01167880568
7.05160886516
7.1925061436
7.2752469669
7.40735251583
7.55720800679
7.72081561558
7.88508822768
8.0354934578
8.15265173433
8.20152189629
8.14231809873
7.94006311177
7.5694445482
7.03850495607
6.40795084931
7.00087384822
6.64095376084
6.91556826318
6.95883409479
7.09676885884
7.1721160897
7.29262987981
7.42678924585
7.56951924703
7.7068314316
7.82312992457
7.90310987638
7.91442313173
7.82563494858
7.61294286718
7.26514066507
6.79580561591
6.25440155563
6.89775175424
6.511670675
6.77832346723
6.8178865774
6.94943086154
7.01376200378
7.11940150482
7.23639832657
7.36019163363
7.47499516844
7.56472957448
7.61581960168
7.60211847239
7.49419934647
7.28272376648
6.95819155507
6.53998366644
6.06606340111
6.7800775974
6.37068155758
6.62744759758
6.65576011383
6.78032410021
6.83412278815
6.92440804122
7.02063735364
7.12004718916
7.20783580131
7.26982742235
7.29262792647
7.25070430884
7.13153671546
6.91858645969
6.62209466313
6.24703002938
5.83993109785
6.62937010929
6.19740476436
6.45013059464
6.46386295303
6.58041570868
6.6249574455
6.70094914368
6.77696486152
6.84814533338
6.9036666516
6.93049650649
6.91866314068
6.85095215079
6.71383257989
6.50899944023
6.23414086026
5.91587756902
5.56007333182
6.45389067571
5.98707449764
6.23288808635
6.23232907956
6.34098325158
6.37551428247
6.44052248713
6.49830233859
6.54640503926
6.56774869652
6.56522379298
6.51890789925
6.43009253447
6.28056210764
6.0851059882
5.83833163693
5.56546610419
5.2730975749
6.27247634855
5.75306982451
5.98636406498
5.96943975764
6.06611104568
6.08998123812
6.13918626217
6.17967393554
6.20031467999
6.20023369424
6.16378993447
6.10183079349
5.98969723705
5.84645063853
5.65427503216
5.44704294618
5.20586771978
4.97260182933
6.10264043187
5.52218605853
5.73516925682
5.69681064076
5.7771105323
5.78394645312
5.81396007254
5.83046354482
5.82912732399
5.80178478466
5.74915685816
5.66656701001
5.55412926566
5.40725468067
5.2394206448
5.04984631587
4.85588367313
4.64852291605
5.9355738353
5.29939147364
5.49345507601
5.43078220877
5.49190528197
5.47851914556
5.48655258837
5.47808837872
5.45426344767
5.40614774926
5.33910530989
5.24671074769
5.13465052358
4.99444328912
4.84461139007
4.6776042672
4.51502397709
4.33836574838
5.81647390826
5.14363796907
5.32064512146
5.23234960565
5.26968617822
5.23241310107
5.21476366786
5.180672213
5.13296669326
5.06547107995
4.98444656769
4.88502003088
4.77320410298
4.64041968681
4.50434663719
4.35614744078
4.21558483214
4.06392703305
5.84144895775
5.17899738716
5.336279683
5.22119260931
5.23586535298
5.1660768217
5.126832008
5.06297003572
4.99882316469
4.90660395827
4.8164148362
4.70191516791
4.59076168868
4.45282320339
4.32541020994
4.17972374995
4.05258890821
3.90899041442
5.87292667031
5.24339177638
5.39444995477
5.27363065236
5.2661943026
5.18413472314
5.11800881208
5.0468500538
4.9562479757
4.86102373771
4.74819573297
4.63671626434
4.5079350209
4.38054672897
4.2404412357
4.11120290456
3.97356214668
3.85072931521
5.89834281403
5.3064219576
5.46428347314
5.33572804924
5.3210303501
5.22242587113
5.14800685844
5.05959464228
4.96206535607
4.85226283681
4.73294052472
4.61151423867
4.48116979988
4.34807523318
4.21150678929
4.07944614838
3.94903438053
3.82185797286
5.94613702013
5.38405064259
5.54086754386
5.41188922314
5.38708525222
5.2794035495
5.19394803887
5.09680314481
4.98983496161
4.87023025156
4.74709102344
4.61545144745
4.48488156193
4.34404800067
4.21321466772
4.07386440787
3.95048122184
3.8184317114
6.01484269827
5.47854328536
5.62963713658
5.49054452402
5.45812854268
5.34235821633
5.2481169011
5.1428886707
5.02922592874
4.90509943758
4.77482463549
4.64203755702
4.5059668923
4.36792833013
4.22928509183
4.09398489238
3.9610216562
3.83486779544
6.09384097183
5.59101238128
5.71849226464
5.57268669667
5.53272602614
5.40735996875
5.30663103151
5.19564803754
5.07559204234
4.94682685672
4.8122307217
4.67920149545
4.54020144365
4.40226386306
4.26314917112
4.12419695417
3.98641352871
3.85975677724
6.19543778332
5.73715123833
5.82527632379
5.66276626636
5.61111993393
5.4797683701
5.37143385138
5.25330138629
5.12720192746
4.99174035095
4.85434403263
4.72000667554
4.5844035247
4.44422136651
4.30394228146
4.16228653717
4.01708517952
3.88632188537
6.42333675143
6.03428081432
6.06352022616
5.88253726392
5.81987968623
5.67212351779
5.54867337999
5.41523687325
5.27331955887
5.12342760127
4.97134068411
4.83726702416
4.69492043976
4.55239372092
4.41020553792
4.26361602384
4.11570374919
3.97881926822
5.93870606186
5.84742018927
5.757876661
5.5438574204
5.46038047103
5.31191547089
5.19363828552
5.0714011852
4.94196572162
4.80072337439
4.66261046183
4.53676491431
4.40421219224
4.26374943477
4.11885377783
3.96215551611
3.78876293169
3.63671872272
11.3771303169
9.38803014933
9.17832568747
8.99072271867
8.84617572149
8.61375521821
8.38704396748
8.14027599371
7.87780554977
7.60456719808
7.3414536588
7.09778303375
6.85555657992
6.61570202147
6.38590941256
6.15601407476
5.91983731115
5.74873762257
-1.0424936627
-0.0654637320318
0.325499235534
0.115010864599
0.123834677519
0.00486134888489
-0.103455887542
-0.224047726085
-0.349426252893
-0.469090853248
-0.562954465811
-0.628396357734
-0.673552034973
-0.694804617631
-0.68304822991
-0.636776752268
-0.56172755468
-0.570947621408
-3.79075947952
-3.80211263201
-3.81408616367
-3.82355255153
-3.83017190833
-3.83270013232
-3.83281499511
-3.82965874922
-3.8254281892
-3.81917750671
-3.8130010531
-3.8056443229
-3.79909329263
-3.79176485243
-3.7856113335
-3.77872289844
-3.77312451478
-3.76653826309
-3.76113686457
-3.75451706383
-3.74893393669
-3.74193587233
-3.73578221367
-3.72831571728
-3.72165454455
-3.71399625035
-3.70714741976
-3.69948676969
-3.69262526602
-3.68523428619
-3.67870475749
-3.67179641898
-3.66571359949
-3.65947010607
-3.6540714752
-3.64846917998
-3.64361872085
-3.63868620142
-3.63441594745
-3.63006657152
-3.62629688991
-3.62237876546
-3.61896841092
-3.61526833934
-3.61202865875
-3.60831208891
-3.60498065762
-3.60102407866
-3.59735611979
-3.59298206207
-3.58875733978
-3.58390100815
-3.5791653462
-3.57397191405
-3.5689357289
-3.56355630683
-3.55839525326
-3.5530691423
-3.5480770074
-3.54304206807
-3.53840581234
-3.53387881401
-3.52980191345
-3.52577059496
-3.52211951882
-3.51854150128
-3.51525623362
-3.51193724739
-3.5088680497
-3.50562820912
-3.502601271
-3.49927674648
-3.49610975934
-3.49256077017
-3.4891217277
-3.48525254907
-3.48155505488
-3.47759883262
-3.47393578376
-3.47002153436
-3.46653528426
-3.46298756553
-3.45995212572
-3.45708941306
-3.4544685527
-3.45205292416
-3.44930556944
-3.44582234152
-3.44212122487
-3.43576570917
-3.42861214669
-3.42024717463
-3.41168607582
-3.40279801072
-3.39400706594
-3.38487594341
-3.37573428355
-3.36609795056
-3.35638129895
-3.34620833843
-3.33634600849
-3.32659776519
-3.31759468403
-3.30894848005
-3.30068823576
-3.2924632754
-3.28414541072
-3.27556425089
-3.26676662818
-3.25768629424
-3.2484276634
-3.23893306967
-3.22928331672
-3.21938163004
-3.20928360422
-3.19886354521
-3.1880983397
-3.17676705538
-3.16530282186
-3.15373507757
-3.14280179864
-3.13209383225
-3.12193257823
-3.11207769391
-3.10256991663
-3.09332084611
-3.08441432253
-3.07577610219
-3.06749206795
-3.05949215022
-3.05186252889
-3.04453248322
-3.03757956183
-3.03093312567
-3.02466655064
-3.0187316908
-3.0131842821
-3.0078773453
-3.00298228738
-2.9982629214
-2.99409382727
-2.98969352064
-2.98572069506
-2.9816247648
-2.97814492317
-2.97472120688
-2.9719112903
-2.96903241165
-2.9665885941
-2.96389895393
-2.96149630586
-2.95872466903
-2.95614855359
-2.95312507839
-2.95024353273
-2.9468617754
-2.94359141159
-2.93978471273
-2.93608919248
-2.93186321448
-2.92782714722
-2.92339791437
-2.91942636265
-2.91542966099
-2.91252257715
-2.91046907188
-2.91071792531
-2.91326243765
-2.91968459469
-2.92995432302
-2.94596860663
-2.96749186212
-2.99559558426
-3.02824878774
-3.06457963296
-3.1002506293
-3.13359693839
-3.15832705596
-3.16875593175
-3.16141747189
-3.76089467391
-3.75401861976
-3.73349772706
-3.70135575535
-3.6633069541
-3.62024773227
-3.57451220121
-3.52590769136
-3.47617845893
-3.42470124424
-3.37310881545
-3.32055117332
-3.26850853586
-3.21592272574
-3.16421645921
-3.11211543656
-3.06105523711
-3.00953219374
-2.95901837604
-2.90794109119
-2.85780713017
-2.80710040508
-2.75726406055
-2.70702439299
-2.6578069801
-2.60857376104
-2.56046719879
-2.51265466937
-2.46617820005
-2.42034711943
-2.37597144395
-2.33248717738
-2.29063265674
-2.24987973087
-2.21075934981
-2.17285122787
-2.13656202796
-2.10151552017
-2.06807243098
-2.0358766808
-2.00520406307
-1.97567421407
-1.94756047498
-1.92041507577
-1.89455697706
-1.86945164972
-1.84545247888
-1.82200169146
-1.79945352935
-1.77730226526
-1.75586052478
-1.73474627692
-1.71427835353
-1.69421549398
-1.67476261476
-1.65576343589
-1.63743551385
-1.61966950812
-1.60262942827
-1.58625351258
-1.57070462307
-1.55589218373
-1.54186976573
-1.52855766783
-1.51596609703
-1.50397854044
-1.49264293565
-1.48179566644
-1.47149807303
-1.46154528097
-1.45202900466
-1.44272849215
-1.43378045348
-1.42493478861
-1.41634959843
-1.40786816695
-1.39969933077
-1.39174765202
-1.38419828248
-1.3769118419
-1.37010830995
-1.36366084386
-1.35769183684
-1.35213056788
-1.34688549605
-1.34189313732
-1.33671337173
-1.33137262548
-1.32488838068
-1.31761458855
-1.30821107715
-1.2977883202
-1.28661298627
-1.2752697272
-1.26367141567
-1.25204524244
-1.24015516985
-1.22819169476
-1.21599679499
-1.2039051736
-1.19208093576
-1.18096627783
-1.1707098823
-1.16125749498
-1.15249152872
-1.14416006426
-1.13611044511
-1.12822395399
-1.12042419313
-1.11265926767
-1.10488392698
-1.09705654354
-1.08911041842
-1.08098150546
-1.07259229622
-1.06390433466
-1.0547702608
-1.04521891414
-1.03541288566
-1.02588132454
-1.01687243262
-1.00843628244
-1.00061739952
-0.9933414926
-0.986652704837
-0.980548246103
-0.975033719939
-0.97007563117
-0.965663021431
-0.961762861476
-0.958361978165
-0.955415135824
-0.952890382848
-0.950722923844
-0.948871227257
-0.947293783883
-0.945923882172
-0.944715988173
-0.943641345261
-0.942797209036
-0.942089850345
-0.941293280338
-0.940455055185
-0.939604913971
-0.939014809624
-0.938682914132
-0.938701499797
-0.9389030135
-0.93930962492
-0.939733725121
-0.94022275507
-0.940606059723
-0.940964600528
-0.941139512678
-0.941240692552
-0.941114071265
-0.940900571882
-0.940455524027
-0.939972595719
-0.939346792927
-0.938865698474
-0.938506246848
-0.938727179748
-0.939667360647
-0.942070162516
-0.946357083828
-0.953526061368
-0.964034414893
-0.978955807987
-0.998720750023
-1.02434396
-1.05556616261
-1.09201710496
-1.1307407774
-1.16895134389
-1.2020498175
-1.22524181926
-1.22934999205
-1.20188323786
-1.11728334762
-3.70919578809
-3.68633357091
-3.66118573178
-3.62775237012
-3.59276663207
-3.55612932496
-3.51941769937
-3.48168317215
-3.44407106047
-3.40561116599
-3.36744243092
-3.32860543623
-3.29031325581
-3.25152897878
-3.21350213947
-3.17507130142
-3.137515636
-3.09953531728
-3.06240584786
-3.02476561315
-2.9879347812
-2.95058018145
-2.91394527651
-2.87694140078
-2.8407412302
-2.80441937103
-2.7690272579
-2.73380287937
-2.69965847305
-2.66596514692
-2.63349556891
-2.60172194275
-2.57124059827
-2.54164533221
-2.51338882091
-2.48607038559
-2.46005207843
-2.43505200254
-2.4112951808
-2.38853010856
-2.36694323005
-2.34624838745
-2.32663458441
-2.30776468738
-2.28985962059
-2.27252806451
-2.25600048404
-2.23987038762
-2.2243752173
-2.20912830187
-2.19431775731
-2.1797020301
-2.16544695983
-2.15137595666
-2.13764466802
-2.12413808256
-2.11098479698
-2.09812838612
-2.08566913862
-2.07360274753
-2.06199988637
-2.05089260686
-2.04028658989
-2.03014842877
-2.02048902782
-2.01128972479
-2.00252726202
-1.99415250287
-1.98617364725
-1.97848839652
-1.97112537463
-1.96395280493
-1.957004147
-1.9501769709
-1.9434930412
-1.93688173571
-1.93045147064
-1.92417517644
-1.91811035001
-1.91223534031
-1.90658515171
-1.90112078348
-1.89580018802
-1.89059160566
-1.88541982885
-1.88025830801
-1.87503651924
-1.86957388955
-1.86425043887
-1.85763310882
-1.84975351372
-1.84059393063
-1.8305513833
-1.82021414704
-1.80949241423
-1.79865889497
-1.78746466192
-1.77616959582
-1.76454836248
-1.75301743016
-1.74152573911
-1.7305740695
-1.71999473176
-1.70991941396
-1.70009099804
-1.69052849279
-1.68113341993
-1.67194984618
-1.66288199099
-1.65394172617
-1.64502582831
-1.6361290961
-1.62713292677
-1.61801528431
-1.60867465764
-1.59911679853
-1.58922969741
-1.57913660036
-1.56895838842
-1.55918841377
-1.54978055725
-1.54080969597
-1.53203357358
-1.5235779709
-1.51551285609
-1.50798715318
-1.50099150131
-1.49456315381
-1.48864236094
-1.48323798117
-1.47828239712
-1.47376988691
-1.4696249325
-1.46582754368
-1.46232062228
-1.45911315852
-1.45617868049
-1.45357346012
-1.45129574549
-1.44951006228
-1.44793870809
-1.44645769723
-1.44474833212
-1.44305997914
-1.4414027896
-1.44002878189
-1.43880901349
-1.4378313574
-1.43690447988
-1.43608512881
-1.43520427748
-1.43432570416
-1.43331101868
-1.43222994586
-1.43097047978
-1.42960336596
-1.4280424214
-1.42636140858
-1.42450780982
-1.42256665065
-1.42052042347
-1.41845267015
-1.41638049319
-1.41438207916
-1.41247816709
-1.41068374868
-1.40889617557
-1.40684112641
-1.40438950951
-1.40121988325
-1.39697275458
-1.39107557048
-1.38296357737
-1.371735494
-1.35731945263
-1.33997197266
-1.31844099003
-1.28987301062
-1.24909318824
-1.1843228303
-3.66378625012
-3.62124759497
-3.59891908625
-3.57055634989
-3.54318372987
-3.51459867072
-3.48572586685
-3.45532719699
-3.42429888058
-3.39160152376
-3.35844962187
-3.32390694632
-3.2892353079
-3.25347901331
-3.21790813736
-3.18147396097
-3.14544042308
-3.10864483847
-3.07234490557
-3.03532801621
-2.99876787375
-2.96153652532
-2.92479570384
-2.8874905868
-2.85076116459
-2.81374961149
-2.77745220268
-2.74113971302
-2.70574143862
-2.6706246856
-2.63658574941
-2.60307190371
-2.57079244002
-2.53923122884
-2.50891249022
-2.47947648772
-2.45127833058
-2.42401694809
-2.39797685455
-2.37290387013
-2.34899283728
-2.32599288385
-2.30407764361
-2.28296723776
-2.26284689337
-2.24340129474
-2.2248199445
-2.20677572622
-2.18941546005
-2.17246324676
-2.15606152825
-2.13995579414
-2.12430616217
-2.10895417
-2.09400644548
-2.0793630765
-2.06514200749
-2.05127351418
-2.03785221372
-2.02485927509
-2.01239188358
-2.00043659088
-1.98900488
-1.97811258124
-1.9677123133
-1.95778955827
-1.94832926698
-1.93928995878
-1.930657781
-1.92236469972
-1.91439906822
-1.90668175808
-1.89921662105
-1.89189280761
-1.8847433501
-1.87772231558
-1.87086347216
-1.86416367673
-1.85764404914
-1.85129397669
-1.84508312058
-1.8389686335
-1.8328593252
-1.82674050741
-1.82058902819
-1.814493082
-1.80847355644
-1.80289269754
-1.79750322609
-1.79195787658
-1.78510365398
-1.77688037165
-1.76788585494
-1.75827936858
-1.7483779028
-1.73808349944
-1.72758366059
-1.71674611751
-1.70578968294
-1.69467486285
-1.68369950382
-1.67286225266
-1.66223534432
-1.65169327776
-1.64120080345
-1.63081356643
-1.62062015169
-1.61067268837
-1.60096381187
-1.5914584217
-1.5820877099
-1.57278356844
-1.56345557323
-1.55403625455
-1.54447557283
-1.5347581748
-1.52491368776
-1.51501383694
-1.50533086076
-1.49605108482
-1.48719568263
-1.47850077783
-1.4698068357
-1.46124544295
-1.45300897825
-1.44527618912
-1.43810406551
-1.43152482244
-1.4255018012
-1.42001795048
-1.41500951946
-1.41044212201
-1.40623933573
-1.40236343199
-1.3987690233
-1.39547206058
-1.39252497469
-1.39001795034
-1.3880795174
-1.38676062119
-1.38586951377
-1.3850101804
-1.38395231809
-1.382759359
-1.38156702539
-1.3805073009
-1.37959211458
-1.37881534178
-1.3781168307
-1.37746319087
-1.37680230102
-1.37610740498
-1.37534494983
-1.37449570518
-1.37354380497
-1.37247611077
-1.37129549524
-1.36999899348
-1.36861509406
-1.36715999227
-1.36569116885
-1.36423681156
-1.36288343727
-1.36167430011
-1.36070521189
-1.35999443224
-1.35955400311
-1.3592543782
-1.3590353451
-1.35866497372
-1.35785866196
-1.3560780839
-1.35264075307
-1.34652692901
-1.33697104037
-1.32343864889
-1.30447029728
-1.27712162139
-1.23668294702
-1.17641315188
-3.62408080032
-3.55233310481
-3.53400850556
-3.50940399677
-3.48744882865
-3.46413494483
-3.44013813843
-3.41397954333
-3.38667895777
-3.35728798785
-3.3269984427
-3.29497439045
-3.26249667556
-3.22868264816
-3.19479663644
-3.15987661405
-3.1251480237
-3.08958497606
-3.05432927653
-3.01831181052
-2.98268119495
-2.94635597149
-2.91041095317
-2.87394560912
-2.83796629903
-2.80163940873
-2.76598317708
-2.73025880474
-2.69539810428
-2.66073557172
-2.62713783596
-2.59399530223
-2.56202351227
-2.53070933037
-2.50064433699
-2.47134856165
-2.44329198
-2.41613610912
-2.39018253308
-2.36516598541
-2.34130632175
-2.31835598494
-2.29648579582
-2.27545032007
-2.25540201698
-2.23609338612
-2.21764774687
-2.19981648736
-2.18271626004
-2.16609360195
-2.15003455838
-2.13437864056
-2.11919423038
-2.10432593693
-2.08989057025
-2.07576376159
-2.06205931906
-2.0486856586
-2.0357554028
-2.02321330073
-2.01114889771
-1.99955896451
-1.98848550004
-1.97788267914
-1.96775462191
-1.95809241119
-1.94886043858
-1.94004626091
-1.93162547197
-1.92355518145
-1.91582205577
-1.9083480446
-1.90111577652
-1.89407267409
-1.88720218283
-1.88045336975
-1.8738635503
-1.86739948959
-1.86106815684
-1.85483684856
-1.84865206413
-1.84243975655
-1.83611948045
-1.82967460373
-1.8231625794
-1.81671192479
-1.81054596992
-1.80496303722
-1.80022098576
-1.79527098482
-1.7892628997
-1.78190999534
-1.77371321119
-1.76488702587
-1.75567974772
-1.74606129401
-1.73618313187
-1.72596103062
-1.71558537988
-1.70499165369
-1.69440677891
-1.68370523008
-1.6729577573
-1.66197484425
-1.65088911441
-1.63977270764
-1.628866759
-1.61819882603
-1.60786238831
-1.59776152567
-1.58789335023
-1.57811607564
-1.56839861658
-1.55861983624
-1.54880131697
-1.5389112954
-1.5290727508
-1.51935188982
-1.5100390957
-1.5011431455
-1.49262199493
-1.48403913491
-1.47534455619
-1.46663610648
-1.4582220871
-1.4502477714
-1.44286471
-1.43606055504
-1.4298651238
-1.42419969521
-1.41904793103
-1.41430932327
-1.40994823268
-1.40587902889
-1.40210116511
-1.39862864274
-1.39558887471
-1.39311292481
-1.39141865114
-1.39045714455
-1.39007044266
-1.3896527916
-1.38908089853
-1.38823306313
-1.38737544096
-1.38649077076
-1.38574355405
-1.38500949825
-1.38438002435
-1.3837122808
-1.38309024284
-1.38237966769
-1.38166746028
-1.38083013295
-1.37996060441
-1.3789462858
-1.37788993672
-1.37669223044
-1.37547151263
-1.37414434523
-1.37284355266
-1.37148837891
-1.37022447521
-1.3689666007
-1.36785058254
-1.36674761941
-1.36572507057
-1.36453980973
-1.36321098423
-1.36137864561
-1.35888433908
-1.35511565909
-1.3496204313
-1.34138927233
-1.32988397307
-1.3141240839
-1.29289325673
-1.26345652259
-1.22221778898
-1.16562194502
-3.58351900447
-3.47189779657
-3.459393132
-3.43738859886
-3.41972056223
-3.40043045955
-3.38019269794
-3.35766475796
-3.33374268708
-3.30749926202
-3.28020913448
-3.25103815354
-3.22125097296
-3.18999905279
-3.15850512685
-3.12586766485
-3.09325537607
-3.05970018171
-3.02633676132
-2.99217160004
-2.95821544246
-2.92355551305
-2.88920113832
-2.85422450998
-2.81964969959
-2.78469986538
-2.75030607
-2.71576683535
-2.68200188251
-2.64835249554
-2.61567016769
-2.58333243467
-2.55213029671
-2.52145530834
-2.49194826817
-2.46314353567
-2.43552225226
-2.40869229432
-2.38303983165
-2.35825587289
-2.3345953632
-2.31180680678
-2.29006769163
-2.26915726564
-2.2492082376
-2.23001620527
-2.21168228169
-2.1940136971
-2.17705126286
-2.1606445483
-2.14483769535
-2.12945144078
-2.11456585508
-2.10005157555
-2.08596728702
-2.07220271339
-2.05886428114
-2.04584933437
-2.03327105597
-2.02104936298
-2.00930184316
-1.99796936423
-1.98712347214
-1.97674364693
-1.96681792588
-1.95732071861
-1.94825157142
-1.93959026722
-1.93131363008
-1.92339413474
-1.91579253156
-1.90847210224
-1.9014015462
-1.89450623132
-1.88779056149
-1.88121149255
-1.87476176461
-1.8684147758
-1.86216057369
-1.85594828684
-1.84971470791
-1.84337124807
-1.83685579313
-1.83017311752
-1.82342246752
-1.81680622712
-1.8105673414
-1.80512295846
-1.8005189934
-1.79601075997
-1.79037711742
-1.78357758516
-1.77591056742
-1.76770870683
-1.75903590474
-1.7500366292
-1.7406707043
-1.73105461267
-1.72113964576
-1.71104280268
-1.70070238958
-1.69013908441
-1.67922709756
-1.6679488766
-1.65639964285
-1.64479555059
-1.63332969092
-1.62213340409
-1.61125313127
-1.60066974694
-1.59032868438
-1.58014587562
-1.57004763149
-1.55997196278
-1.54991609264
-1.53992449127
-1.53008065128
-1.52054693698
-1.51144723328
-1.50282870168
-1.49442175816
-1.48588716194
-1.47715422731
-1.46838481041
-1.45984716522
-1.4517361737
-1.44418725563
-1.43723335583
-1.43088438981
-1.42508733421
-1.41979850622
-1.4149300585
-1.41042516117
-1.40621196173
-1.4022900107
-1.39871402842
-1.39563500597
-1.3932723878
-1.39179124274
-1.39120482822
-1.39115361088
-1.39114962186
-1.39092415207
-1.390445353
-1.38984306789
-1.38919265674
-1.38856471461
-1.38794107217
-1.38733842176
-1.38671779199
-1.38608998188
-1.38541685845
-1.38470784827
-1.38392886435
-1.3830915053
-1.38216883081
-1.38117946463
-1.38010667119
-1.3789799891
-1.37779305104
-1.37658123792
-1.37533309241
-1.37408360017
-1.3728065822
-1.37151249568
-1.37012965552
-1.36860816766
-1.3667853688
-1.36457004261
-1.36170045631
-1.35792711633
-1.3527758668
-1.34575213876
-1.33603813982
-1.32300386276
-1.30570426249
-1.28291112704
-1.25234390043
-1.21119008672
-1.1578656143
-3.53725504342
-3.37445381185
-3.37081869272
-3.35121462463
-3.33758103458
-3.32212811836
-3.30568307422
-3.28680336333
-3.26646553425
-3.24385454927
-3.22005262597
-3.19432196361
-3.16782620126
-3.13977625896
-3.11131618953
-3.08160431676
-3.0517390302
-3.02084792885
-2.98994364805
-2.95812621149
-2.92643467107
-2.89392205402
-2.86155302491
-2.82854298732
-2.79580199608
-2.76256254845
-2.72978565528
-2.69676707003
-2.66440610335
-2.63205469099
-2.60057202692
-2.56933984637
-2.53909991903
-2.50930211618
-2.48060293244
-2.45246714363
-2.42545354172
-2.39915855708
-2.3739745814
-2.34958509374
-2.32627857917
-2.30379127772
-2.28232010669
-2.2616504541
-2.24191361453
-2.22293520408
-2.20478744865
-2.18732046715
-2.17058742084
-2.15442521292
-2.13885321974
-2.12377692323
-2.10920553594
-2.09501992411
-2.08128931691
-2.06788967046
-2.05491506866
-2.04226399264
-2.03005014191
-2.01817859768
-2.00675072187
-1.99571240213
-1.98515441635
-1.97501383301
-1.96532613733
-1.95605923637
-1.94720098915
-1.93874333358
-1.93066026182
-1.92292990525
-1.91551945644
-1.90838029292
-1.90147164767
-1.89476584053
-1.8882217938
-1.88179881891
-1.87550018641
-1.86927912903
-1.86311746555
-1.85695437363
-1.85072571071
-1.84434166027
-1.83776135165
-1.83100708328
-1.82421316869
-1.81760201895
-1.81143823305
-1.80609151077
-1.80163874475
-1.79717860834
-1.7917232094
-1.78517208447
-1.77785208509
-1.77002280384
-1.76177126315
-1.75319421197
-1.74427644554
-1.73509211153
-1.72558206558
-1.71581359276
-1.70567007146
-1.69516665644
-1.68414492555
-1.67269241658
-1.66087828449
-1.64899610331
-1.6371785746
-1.62563409048
-1.61435569956
-1.60340597398
-1.59267778134
-1.58216452477
-1.57174653092
-1.56143855295
-1.55120544685
-1.54114381644
-1.53130868919
-1.52187765137
-1.51289384742
-1.50435983075
-1.49593108038
-1.48738703806
-1.4786249784
-1.46986205855
-1.46128448573
-1.4531380418
-1.44550500702
-1.43848402907
-1.43203849669
-1.42617286542
-1.42079085409
-1.41585301604
-1.41125577003
-1.40697289529
-1.40298535603
-1.39939007568
-1.39635548035
-1.39413531672
-1.39287651897
-1.39256333122
-1.39275666629
-1.39304574149
-1.39308780692
-1.39291678675
-1.39254882425
-1.39212338531
-1.39162268495
-1.39111459546
-1.39055131528
-1.38998088184
-1.38935778897
-1.3887191011
-1.38802014494
-1.38728907737
-1.38648551191
-1.38563513943
-1.38470649498
-1.38372829078
-1.38267883339
-1.3815899761
-1.38043984898
-1.37924742575
-1.37797858195
-1.37663040191
-1.37513028494
-1.37343414785
-1.37140888083
-1.36894750296
-1.36587347581
-1.36201610976
-1.35704554837
-1.35063179873
-1.34222050364
-1.33119719164
-1.31680757096
-1.29826024927
-1.27428009905
-1.24307298292
-1.20235316212
-1.15164390052
-3.48234290143
-3.25689372274
-3.26579995619
-3.2485615817
-3.23940632962
-3.22807561804
-3.21565712567
-3.20098822408
-3.18478314204
-3.16626475566
-3.14651293166
-3.12480342139
-3.10219678484
-3.07796167399
-3.05313576867
-3.02694834839
-3.00041013169
-2.97269592379
-2.94481905052
-2.91593075963
-2.8869238178
-2.85701974271
-2.82714287063
-2.79645091372
-2.76590306656
-2.73479048087
-2.70397555362
-2.67281178176
-2.64216815687
-2.61143279018
-2.58141287418
-2.55152348329
-2.52253191838
-2.49385431774
-2.46613875413
-2.4389236062
-2.4127286512
-2.38714194519
-2.36260941043
-2.33879434584
-2.3160063235
-2.29398009091
-2.27292592735
-2.25263318069
-2.23323995759
-2.21457822339
-2.19673661767
-2.1795756646
-2.1631143148
-2.14725382112
-2.13200944612
-2.11724306275
-2.10300289602
-2.08918576742
-2.07581931045
-2.06279886695
-2.05020229111
-2.03793155993
-2.02608959626
-2.01458049233
-2.00351163846
-1.9927966058
-1.98252486695
-1.97267151902
-1.96326252088
-1.95424816339
-1.945646179
-1.93743131402
-1.92958486286
-1.92208448102
-1.91488241998
-1.9079562546
-1.90125911114
-1.89473546409
-1.88837103726
-1.88213246268
-1.87598935302
-1.86990928692
-1.86386285797
-1.85778786493
-1.85162108051
-1.84528237071
-1.83874297915
-1.83204507331
-1.82532811737
-1.81882707408
-1.812787351
-1.80753176391
-1.8030708726
-1.79854901256
-1.79306637909
-1.78657008555
-1.77940594892
-1.77176736439
-1.76377994521
-1.75546287368
-1.74686648412
-1.73795225247
-1.72873807734
-1.71914446201
-1.70914553914
-1.69864201663
-1.68760624389
-1.67606654554
-1.66419145243
-1.65217767993
-1.64022423607
-1.62846151809
-1.61695969552
-1.60573005314
-1.59474243301
-1.58395444127
-1.57331532485
-1.56281688283
-1.55247196727
-1.54233980909
-1.53250841265
-1.52307770156
-1.5141038316
-1.50548921524
-1.49697468284
-1.4883596398
-1.47961102458
-1.47088055376
-1.4623574438
-1.45423320628
-1.44661665062
-1.43958233187
-1.43312624288
-1.4272344362
-1.42183423071
-1.41687137079
-1.4122582014
-1.4079664035
-1.40399203004
-1.40044478671
-1.3975165724
-1.39545005088
-1.39438790119
-1.39422669023
-1.39457498969
-1.39501051924
-1.39525875455
-1.39529477392
-1.3951437783
-1.39489003758
-1.39453296946
-1.39411709944
-1.39362143147
-1.39308654509
-1.392493222
-1.39187284794
-1.39120148967
-1.39049768916
-1.38973684865
-1.38893124877
-1.38806213384
-1.38714144114
-1.38615692383
-1.38511856061
-1.3840088151
-1.38281659454
-1.38150465302
-1.38002908488
-1.37830969156
-1.37625670665
-1.37374040967
-1.37061927911
-1.36673653226
-1.36190384899
-1.35583671056
-1.34821183769
-1.33855425362
-1.32628004913
-1.31069070487
-1.29101570859
-1.26613009011
-1.23450333269
-1.19432253751
-1.14554862996
-3.41671112311
-3.11660343932
-3.14212448425
-3.12747642411
-3.12325548153
-3.11658704677
-3.10889986467
-3.09892723076
-3.08742855534
-3.07378600898
-3.05876695742