/*--------------------------------*- C++ -*----------------------------------*\
| =========                 |                                                 |
| \\      /  F ield         | OpenFOAM: The Open Source CFD Toolbox           |
|  \\    /   O peration     | Version:  v1806                                 |
|   \\  /    A nd           | Web:      www.OpenFOAM.com                      |
|    \\/     M anipulation  |                                                 |
\*---------------------------------------------------------------------------*/
FoamFile
{
    version     2.0;
    format      ascii;
    class       surfaceScalarField;
    location    "1";
    object      phia;
}
// * * * * * * * * * * * * * * * * * * * * * * * * * * * * * * * * * * * * * //

dimensions      [0 3 -1 0 0 0 0];
oriented        oriented;


internalField   nonuniform List<scalar> 
24170
(
2.75348890827e-07
4.50625775587e-08
3.00177729713e-07
-2.2286310066e-08
3.32958016311e-07
-3.62275235566e-08
3.03426171157e-07
2.66855762483e-08
2.87104238021e-07
1.18763903742e-08
2.67235605183e-07
1.61884462167e-08
2.4657233818e-07
1.699404797e-08
2.28164693489e-07
1.50114634262e-08
2.14937428966e-07
1.05677010184e-08
2.08589080091e-07
3.94716633152e-09
2.07612843497e-07
-7.40506039811e-10
1.99314828504e-07
7.20430122727e-09
2.04328383667e-07
-5.53234248455e-09
2.10821226947e-07
-6.33729557984e-09
2.26321456301e-07
-1.52462805743e-08
2.53539906339e-07
-2.60527685711e-08
3.22793397253e-07
-6.76925167247e-08
-3.28529835975e-07
6.53338490904e-07
5.01283673694e-07
-9.18506684467e-08
3.839447952e-07
1.121886559e-07
3.65150184747e-07
-4.58299659361e-09
3.63379138454e-07
4.13118561154e-08
3.53689847259e-07
3.26413132634e-08
3.43310759409e-07
3.70815067924e-08
3.31422450032e-07
3.81719626608e-08
3.17739968343e-07
3.67109270463e-08
3.02508471829e-07
3.27456372776e-08
2.86006190989e-07
2.58440580937e-08
2.6906185574e-07
2.03192902833e-08
2.56926185594e-07
2.2045598693e-08
2.50211967912e-07
2.8222770415e-09
2.43156033467e-07
1.2817467508e-09
2.50755257415e-07
-2.28035390133e-08
2.82181792383e-07
-5.73408015058e-08
3.67427265392e-07
-1.51340525726e-07
-4.82259039085e-07
5.21846820269e-07
4.0612489304e-07
-1.36127310078e-07
4.0667425687e-07
1.06258429697e-07
3.83774604291e-07
1.25439688084e-08
3.72026631943e-07
4.8129339081e-08
3.57478867131e-07
4.15159844415e-08
3.43698219843e-07
4.583698435e-08
3.29580295118e-07
4.74082514951e-08
3.15403772515e-07
4.65333380193e-08
3.01179603003e-07
4.33403205009e-08
2.86544077605e-07
3.75124840422e-08
2.72358499052e-07
3.22858631102e-08
2.64591651762e-07
2.84773578279e-08
2.59410539136e-07
7.48630263009e-09
2.62999571683e-07
-2.11289511544e-09
2.79071093317e-07
-3.83545464024e-08
3.18149538553e-07
-9.55491732365e-08
3.91599382429e-07
-2.2366421e-07
-5.23512777675e-07
4.32531924837e-07
4.24101161284e-07
-1.67012332379e-07
4.23447688126e-07
1.06749894351e-07
4.05792357452e-07
3.07893648338e-08
3.9882866209e-07
5.68536155696e-08
3.89325577224e-07
5.24839068111e-08
3.80069129749e-07
5.66516806354e-08
3.70215388949e-07
5.84139790728e-08
3.59710985188e-07
5.77816129454e-08
3.48761805262e-07
5.46498511163e-08
3.37237271193e-07
4.88803146045e-08
3.26806931005e-07
4.2193322667e-08
3.21705038776e-07
3.28047228957e-08
3.18277189635e-07
1.01184696907e-08
3.25466893664e-07
-1.00937641781e-08
3.43076399874e-07
-5.65678490436e-08
3.77639172569e-07
-1.30367261418e-07
4.22609786242e-07
-2.67949177085e-07
-5.04615900555e-07
4.03970840968e-07
4.44154044819e-07
-1.96495070783e-07
4.46781704293e-07
9.82670801469e-08
4.3206703043e-07
4.12084119903e-08
4.26739637709e-07
5.88565617758e-08
4.19518659319e-07
5.60491802597e-08
4.12716010618e-07
6.01568985941e-08
4.05813370119e-07
6.19976123422e-08
3.98798803117e-07
6.18934312253e-08
3.91830630707e-07
5.90990300101e-08
3.85064620634e-07
5.37232631834e-08
3.80125846109e-07
4.57055675275e-08
3.79415010917e-07
3.28320043709e-08
3.80877062921e-07
8.59332906872e-09
3.91548132964e-07
-2.03793473457e-08
4.09372203824e-07
-7.38818796815e-08
4.35466493012e-07
-1.55799232012e-07
4.54690419186e-07
-2.86400739799e-07
-4.64155887421e-07
4.1377664458e-07
4.6883278485e-07
-2.2345814666e-07
4.73195589017e-07
8.64325588301e-08
4.61981494721e-07
4.76365664713e-08
4.58454293701e-07
5.89912596792e-08
4.53496649369e-07
5.80629352233e-08
4.48994674775e-07
6.19714313026e-08
4.4469461534e-07
6.36788378036e-08
4.40580146938e-07
6.33322730183e-08
4.36829691774e-07
6.02954623063e-08
4.33871443332e-07
5.40837651826e-08
4.33142165477e-07
4.41848290533e-08
4.3583424314e-07
2.81339903971e-08
4.41199130587e-07
1.77788629794e-09
4.53340972186e-07
-3.36687021774e-08
4.69361576613e-07
-9.06933179147e-08
4.86276598837e-07
-1.7312367434e-07
4.88119319889e-07
-2.87900375185e-07
-4.18971969014e-07
4.43804675846e-07
4.98077197834e-07
-2.42721213581e-07
5.02731638318e-07
7.78806702294e-08
4.95016394708e-07
5.31768456773e-08
4.93154337038e-07
5.92981600126e-08
4.90212765054e-07
5.94280009087e-08
4.87718258242e-07
6.28670583295e-08
4.85576630873e-07
6.42305535345e-08
4.8386108133e-07
6.35076110743e-08
4.8280606286e-07
6.01133597367e-08
4.82926376959e-07
5.2932920542e-08
4.853012515e-07
4.12539324889e-08
4.90567888323e-07
2.26527592516e-08
4.98417668458e-07
-5.9139538796e-09
5.10495596873e-07
-4.54840099507e-08
5.23454865567e-07
-1.03366551902e-07
5.32393529293e-07
-1.81525012744e-07
5.24366827375e-07
-2.78526288726e-07
-3.79105576284e-07
4.81786295415e-07
5.30964042716e-07
-2.65719498007e-07
5.35090962216e-07
6.60992729157e-08
5.30848723938e-07
5.18158292752e-08
5.30453874637e-07
5.53409945627e-08
5.29303900915e-07
5.66649144139e-08
5.28562758748e-07
6.01178718401e-08
5.28216390947e-07
6.11571344459e-08
5.28499250499e-07
6.01408633417e-08
5.29625808367e-07
5.59778022391e-08
5.32108867717e-07
4.79469600384e-08
5.3659629998e-07
3.45247086828e-08
5.43610077407e-07
1.39444565321e-08
5.52675867535e-07
-1.62987378416e-08
5.63714479751e-07
-5.74610267832e-08
5.73207475809e-07
-1.13655798827e-07
5.7618308297e-07
-1.84379955346e-07
5.62145971723e-07
-2.65459256824e-07
-3.42110051423e-07
5.2425174664e-07
5.66930749414e-07
-2.78948674199e-07
5.69971403147e-07
6.14255600346e-08
5.69320765551e-07
5.18623581648e-08
5.70108973733e-07
5.416048877e-08
5.70550357146e-07
5.57354643655e-08
5.71314882281e-07
5.87571975545e-08
5.72519946651e-07
5.92638371649e-08
5.74418112168e-07
5.75506094307e-08
5.77303191959e-07
5.25118540003e-08
5.81461172583e-07
4.33885231717e-08
5.87337283545e-07
2.85502564562e-08
5.95299073903e-07
5.94630433111e-09
6.04641333876e-07
-2.5596789209e-08
6.14058023776e-07
-6.6934699564e-08
6.20379362056e-07
-1.19893126242e-07
6.18886382021e-07
-1.82503062074e-07
6.02406494885e-07
-2.49339170334e-07
-3.10528704161e-07
5.67463078268e-07
6.05688485115e-07
-2.97998400394e-07
6.07099402243e-07
5.3559544852e-08
6.09826963048e-07
4.4004745511e-08
6.11485638878e-07
4.81030036258e-08
6.13246150806e-07
4.99930744606e-08
6.1531384259e-07
5.29857199378e-08
6.17848836133e-07
5.33104463722e-08
6.21115436499e-07
5.10342905961e-08
6.25441396569e-07
4.54051696694e-08
6.30986165903e-07
3.53678556715e-08
6.37769177761e-07
1.96169064344e-08
6.46131689788e-07
-4.27034246028e-09
6.55145458223e-07
-3.57426307461e-08
6.62762811498e-07
-7.5808874765e-08
6.66381147885e-07
-1.24020596309e-07
6.61960718098e-07
-1.78166187798e-07
6.44290244685e-07
-2.33071861798e-07
-2.81665470628e-07
6.12320872138e-07
6.47290100883e-07
-3.07748559845e-07
6.47059644956e-07
5.3256959592e-08
6.51224801196e-07
3.92754346119e-08
6.53938185166e-07
4.46942857658e-08
6.56601293986e-07
4.63234653891e-08
6.59701588393e-07
4.87435713559e-08
6.63294077232e-07
4.83558113514e-08
6.67902552546e-07
4.51371808814e-08
6.73646281288e-07
3.82936895579e-08
6.80540445255e-07
2.74425756863e-08
6.87900874719e-07
1.11458684762e-08
6.96510313465e-07
-1.34150083189e-08
7.04879132949e-07
-4.52723709385e-08
7.1104306944e-07
-8.2457814349e-08
7.12448657472e-07
-1.26048179914e-07
7.06148843845e-07
-1.71615030733e-07
6.88323401551e-07
-2.16510199685e-07
-2.55246139386e-07
6.58333479882e-07
5.75486538007e-07
-3.14581608914e-07
5.78101317672e-07
4.72659475869e-08
5.80059407654e-07
3.45713287627e-08
5.83371709866e-07
3.90903699331e-08
5.85750271207e-07
4.16193567818e-08
5.89129985086e-07
4.34018480139e-08
5.92986914843e-07
4.25085621046e-08
5.97693463414e-07
3.88925472887e-08
6.03365964099e-07
3.15267426115e-08
6.09974466264e-07
2.01703624045e-08
6.16855770721e-07
3.57128636638e-09
6.24097988425e-07
-2.14663996738e-08
6.31022536589e-07
-5.06405915445e-08
6.3456866766e-07
-8.68382215308e-08
6.34491091403e-07
-1.24237189411e-07
6.27726708244e-07
-1.64862661882e-07
6.12757467771e-07
-2.01797585362e-07
-2.35475133824e-07
5.89200240594e-07
6.95424893414e-07
-3.09390744249e-07
6.98641411667e-07
4.32475255171e-08
7.00679508027e-07
3.14227455495e-08
7.04466872037e-07
3.36766079666e-08
7.076196214e-07
3.68676564187e-08
7.11311716732e-07
3.76667183136e-08
7.15622711633e-07
3.6453461664e-08
7.21046707634e-07
3.17022568406e-08
7.27829313771e-07
2.35715965524e-08
7.3534823398e-07
1.11171179852e-08
7.42909577011e-07
-5.12539717817e-09
7.50946443942e-07
-2.86062185881e-08
7.56552700925e-07
-5.71427631947e-08
7.60254528192e-07
-8.78132251117e-08
7.57771814822e-07
-1.22166515113e-07
7.50621629221e-07
-1.54724359687e-07
7.3299787243e-07
-1.87698579746e-07
-2.12621803407e-07
7.10436821459e-07
8.37487745643e-07
-2.95667611594e-07
8.41824968745e-07
3.78149962855e-08
8.45500825548e-07
2.7471752772e-08
8.49289005451e-07
2.99666096082e-08
8.53387389782e-07
3.19945667486e-08
8.58346599046e-07
3.24156496772e-08
8.63864909261e-07
2.98754677772e-08
8.70606505493e-07
2.48209505746e-08
8.779593299e-07
1.52774436348e-08
8.8597416294e-07
3.44336211608e-09
8.93446472252e-07
-1.41982385853e-08
9.00156607391e-07
-3.53348040776e-08
9.0499552815e-07
-6.10840096912e-08
9.05421835268e-07
-8.80121162618e-08
9.02309642374e-07
-1.16617744309e-07
8.91031310187e-07
-1.44392511658e-07
8.75362223139e-07
-1.69840753088e-07
-1.92297091686e-07
8.49356483558e-07
1.00574535331e-06
-2.61941856519e-07
1.01210270065e-06
3.17961341858e-08
1.01714003172e-06
2.26498355895e-08
1.02143901751e-06
2.59480524492e-08
1.02712948694e-06
2.74543869131e-08
1.03306764479e-06
2.65474870633e-08
1.04067096387e-06
2.37701750976e-08
1.04852463369e-06
1.70997497808e-08
1.05816699376e-06
8.32000335964e-09
1.06494479426e-06
-5.96155750542e-09
1.07348879e-06
-2.07403984879e-08
1.07723072623e-06
-4.21443195725e-08
1.08089305721e-06
-6.25449160531e-08
1.07781987739e-06
-8.70345347113e-08
1.07271643674e-06
-1.08752797132e-07
1.05951693471e-06
-1.32464893536e-07
1.04178939182e-06
-1.51366766945e-07
-1.69544603228e-07
1.01942995422e-06
1.21050351485e-06
-2.04210514103e-07
1.21655926043e-06
2.53659437012e-08
1.22193811883e-06
1.82229986085e-08
1.2271621602e-06
2.18998598473e-08
1.23363693355e-06
2.17180569235e-08
1.24161721461e-06
2.02394570355e-08
1.25013185763e-06
1.58644581381e-08
1.26096964757e-06
9.1945426709e-09
1.26928755009e-06
-1.21526260189e-09
1.27937599492e-06
-1.31325685154e-08
1.28324556056e-06
-2.91597864481e-08
1.2892740704e-06
-4.55091088327e-08
1.28613846676e-06
-6.46999504515e-08
1.2852174261e-06
-8.22430473243e-08
1.27271898259e-06
-1.01459817579e-07
1.2633458227e-06
-1.17563929715e-07
1.23998582799e-06
-1.34180627381e-07
-1.4599096087e-07
1.22317749765e-06
1.46221543754e-06
-1.20825695631e-07
1.46603239293e-06
2.28252712023e-08
1.46997075948e-06
1.45657698594e-08
1.47548829504e-06
1.67661489787e-08
1.48282674425e-06
1.4437935262e-08
1.49174426537e-06
1.1517472915e-08
1.50183476592e-06
6.12850944389e-09
1.51235212954e-06
-1.04143461059e-09
1.52237558566e-06
-1.06227860773e-08
1.5294563147e-06
-2.19042400014e-08
1.53489700396e-06
-3.49983896836e-08
1.53557306784e-06
-4.88366268969e-08
1.5341596758e-06
-6.32551832824e-08
1.52648911644e-06
-7.73299000619e-08
1.51722739426e-06
-9.10897301909e-08
1.50088339615e-06
-1.03754598694e-07
1.48478470217e-06
-1.15396792646e-07
-1.2517326086e-07
1.46011823103e-06
1.76989759437e-06
-6.24594246456e-09
1.77149437741e-06
2.11176430725e-08
1.7731119417e-06
1.20580787501e-08
1.77806341368e-06
1.02587379238e-08
1.78576089008e-06
5.52467342003e-09
1.79472153847e-06
6.1732510251e-10
1.8053320089e-06
-5.37716897831e-09
1.81464386036e-06
-1.24707687111e-08
1.82420945947e-06
-2.05762444228e-08
1.82909866807e-06
-2.96956136452e-08
1.83361294961e-06
-3.95541550688e-08
1.8311306115e-06
-4.98588868097e-08
1.82877430462e-06
-6.01668076967e-08
1.81793365937e-06
-7.02741050624e-08
1.80868730846e-06
-7.99299875331e-08
1.78984979729e-06
-8.8999600976e-08
1.7757620815e-06
-9.72182319722e-08
-1.04370328e-07
1.74987268446e-06
2.15561268422e-06
1.33703419986e-07
2.15811824229e-06
1.70698512698e-08
2.15714910824e-06
9.79681795599e-09
2.16164046317e-06
3.88991306424e-09
2.1677906365e-06
-3.8643751835e-09
2.17582775097e-06
-9.42444286837e-09
2.18454170086e-06
-1.66000440511e-08
2.19159077379e-06
-2.19526016656e-08
2.19849841742e-06
-2.90152189331e-08
2.20041223009e-06
-3.45554838034e-08
2.20231917596e-06
-4.18635443964e-08
2.19669267058e-06
-4.79255565474e-08
2.19235324498e-06
-5.50975317225e-08
2.17895602524e-06
-6.10268925985e-08
2.16871635436e-06
-6.76934474123e-08
2.14804667483e-06
-7.32137922909e-08
2.13397603706e-06
-7.90110831782e-08
-8.34902681876e-08
2.1069651474e-06
1.60950109903e-06
2.0671185288e-07
1.60552633275e-06
1.85179771736e-08
1.60593594963e-06
1.08144948535e-08
1.60397653541e-06
-4.17239166799e-11
1.60842207017e-06
-6.57734469033e-09
1.60717538611e-06
-1.54494784165e-08
1.6135656336e-06
-1.97280631499e-08
1.61095199772e-06
-2.70968959248e-08
1.61665292287e-06
-2.98271077402e-08
1.61052503889e-06
-3.61863243231e-08
1.6130051203e-06
-3.89882862491e-08
1.60266901993e-06
-4.5194619145e-08
1.60162933036e-06
-4.80103921862e-08
1.58700283648e-06
-5.4018365262e-08
1.58239094126e-06
-5.68792807349e-08
1.56405968517e-06
-6.25601641733e-08
1.55723958646e-06
-6.5087342714e-08
-6.99207930025e-08
1.53649286284e-06
1.41766639018e-06
2.52352021338e-07
1.41911564535e-06
1.77847091849e-08
1.41837987468e-06
7.99513882369e-09
1.41959649225e-06
-8.88830432165e-10
1.41780383629e-06
-1.00256786105e-08
1.41953812723e-06
-1.62995372289e-08
1.417076598e-06
-2.31886944575e-08
1.41932436231e-06
-2.65483866664e-08
1.41517240723e-06
-3.11162442973e-08
1.41481792857e-06
-3.33251668907e-08
1.40785910499e-06
-3.67571938262e-08
1.40489627231e-06
-3.91739570025e-08
1.39468155597e-06
-4.25637120566e-08
1.38930977163e-06
-4.50558658802e-08
1.37602783117e-06
-4.85728510992e-08
1.36896967081e-06
-5.10828792864e-08
1.35328450273e-06
-5.45075459616e-08
-5.62671163589e-08
1.34559179528e-06
1.24448094549e-06
2.85788231669e-07
1.25023519917e-06
1.38303513451e-08
1.25280787588e-06
7.86094947338e-09
1.25205614787e-06
-3.29374215863e-09
1.25172890723e-06
-1.06272423662e-08
1.24971607496e-06
-1.79803369348e-08
1.24900520139e-06
-2.27924059709e-08
1.24695298024e-06
-2.68606063587e-08
1.24447296978e-06
-2.93535850692e-08
1.2409262638e-06
-3.09799292344e-08
1.23513365905e-06
-3.34238120562e-08
1.22977055877e-06
-3.42185977817e-08
1.221739399e-06
-3.66050705881e-08
1.21428680841e-06
-3.75227792168e-08
1.20444823989e-06
-4.0553656661e-08
1.19541653803e-06
-4.15821375271e-08
1.18517578618e-06
-4.45587166945e-08
-4.56867561718e-08
1.17362810303e-06
1.09398358473e-06
3.00918026804e-07
1.10275027209e-06
5.90924357862e-09
1.10416845091e-06
3.45172001201e-09
1.10495791199e-06
-3.94721689598e-09
1.10356467354e-06
-1.13301655256e-08
1.10153970335e-06
-1.79239821862e-08
1.09965902166e-06
-2.22079133269e-08
1.09730290146e-06
-2.51821158801e-08
1.09455949498e-06
-2.72261339364e-08
1.08934900176e-06
-2.88714971785e-08
1.08539153439e-06
-2.93226886445e-08
1.07774584076e-06
-3.07707261039e-08
1.07237947921e-06
-3.09124520994e-08
1.06220550195e-06
-3.26554117906e-08
1.05681648231e-06
-3.24164788128e-08
1.04510337306e-06
-3.45278020158e-08
1.03936438399e-06
-3.45744364012e-08
-3.68607289445e-08
1.02592881307e-06
9.62449925679e-07
3.05988370728e-07
9.73006003365e-07
-4.57646926228e-09
9.74514867084e-07
4.99086495182e-09
9.7387723425e-07
-6.0130333435e-09
9.72359204759e-07
-1.24531033348e-08
9.70255781197e-07
-1.7255438625e-08
9.6800156156e-07
-2.12122467126e-08
9.65214377304e-07
-2.38998630749e-08
9.61978268271e-07
-2.5082175827e-08
9.57641768111e-07
-2.5939204419e-08
9.52547232255e-07
-2.63281673559e-08
9.46671005839e-07
-2.7209139867e-08
9.39935084942e-07
-2.68296745241e-08
9.33208642137e-07
-2.71160392469e-08
9.25530154084e-07
-2.7382340807e-08
9.18180729613e-07
-2.73052687917e-08
9.09537591696e-07
-2.75651431416e-08
-2.86283014348e-08
9.00565296195e-07
8.4570707826e-07
2.98974566877e-07
8.60944201823e-07
-2.04988024107e-08
8.58696172385e-07
3.95042469548e-09
8.57823578569e-07
-6.77372762873e-09
8.56747403933e-07
-1.08912500495e-08
8.53899287871e-07
-1.69208888459e-08
8.51495688945e-07
-1.97490366641e-08
8.48879382554e-07
-2.13293875986e-08
8.45437747438e-07
-2.22400681551e-08
8.41392436678e-07
-2.21464056628e-08
8.36014290707e-07
-2.29470936934e-08
8.31360316746e-07
-2.32406694951e-08
8.24781975044e-07
-2.40161166113e-08
8.18920865285e-07
-2.30067241072e-08
8.12616560786e-07
-2.2426413573e-08
8.06202388433e-07
-2.19571557383e-08
7.97603817811e-07
-2.11237703649e-08
-2.13867262369e-08
7.90814724691e-07
7.44294175314e-07
2.8481686918e-07
7.64611364281e-07
-4.33806915586e-08
7.58859248882e-07
9.74323987241e-09
7.56607034976e-07
-6.81258053598e-09
7.54783653902e-07
-1.21447853197e-08
7.52119033618e-07
-1.51475010219e-08
7.49550512447e-07
-1.7780926991e-08
7.46692307686e-07
-1.93296076642e-08
7.435020835e-07
-1.95039044344e-08
7.39073408875e-07
-1.93802146217e-08
7.34077255055e-07
-1.81642910918e-08
7.29269019298e-07
-2.10689834382e-08
7.24534525368e-07
-1.95491281415e-08
7.19083784378e-07
-1.89750767286e-08
7.13642118236e-07
-1.80356808918e-08
7.08608044865e-07
-1.65233600434e-08
7.00450185864e-07
-1.65571519056e-08
-1.62402286738e-08
6.92784742164e-07
6.57730055754e-07
2.63354649225e-07
6.8327420763e-07
-7.16186353581e-08
6.7308736493e-07
1.90963653046e-08
6.69283577345e-07
-1.05236303568e-08
6.68589026488e-07
-7.67259941264e-09
6.65399821632e-07
-1.33723626122e-08
6.62704798515e-07
-1.48894029909e-08
6.59829559658e-07
-1.59417531852e-08
6.56350769967e-07
-1.59825276035e-08
6.52151527799e-07
-1.41271885766e-08
6.45282614888e-07
-1.57850701837e-08
6.42167246488e-07
-1.5437213402e-08
6.3717224861e-07
-1.57149073301e-08
6.32131630577e-07
-1.43550132748e-08
6.27593059884e-07
-1.31484723758e-08
6.22537442162e-07
-1.18852916776e-08
6.16050292152e-07
-8.81526183118e-09
-9.92068072223e-09
6.04671893575e-07
5.69397608429e-07
2.47757745421e-07
6.25205356454e-07
-1.29419669528e-07
6.05474465988e-07
3.61389121851e-08
5.97714116568e-07
-1.03606998607e-08
5.9306216095e-07
-2.35890147565e-09
5.87585341397e-07
-8.18294133146e-09
5.83103485405e-07
-9.90004359663e-09
5.79507698807e-07
-1.14715227613e-08
5.76463647817e-07
-1.16476287809e-08
5.71933670743e-07
-1.1906667434e-08
5.6693923618e-07
-1.19744614233e-08
5.64363821404e-07
-1.17845886614e-08
5.61546592709e-07
-1.12324598314e-08
5.58307074157e-07
-1.0520376775e-08
5.55698634128e-07
-9.48691403904e-09
5.5360315247e-07
-7.49179648293e-09
5.46203651957e-07
-4.60072832486e-09
-1.54943400666e-08
5.50935660956e-07
7.47282545037e-07
-1.74713648065e-08
5.81583039485e-07
3.40110736728e-08
5.54387877912e-07
5.94749874675e-08
5.60442652965e-07
-2.47026624932e-08
5.60585136142e-07
-2.39139538574e-09
5.58064733883e-07
-5.97476458846e-09
5.5478480681e-07
-6.13495343467e-09
5.50373241727e-07
-6.01366887234e-09
5.44416642447e-07
-5.17181806321e-09
5.35551286715e-07
-4.64255126919e-09
5.25922786245e-07
-3.6175998919e-09
5.18500853722e-07
-2.45328670622e-09
5.10408473612e-07
-1.48252117252e-09
5.00898165458e-07
-2.27404157318e-10
4.92015060844e-07
7.88646318161e-10
4.84175259451e-07
8.35652028858e-10
4.76461195151e-07
2.93147061141e-09
6.54909474988e-08
3.92892991343e-07
4.02623128813e-07
4.36383009605e-07
4.95038039012e-07
4.70353096722e-07
4.67919581181e-07
4.61988318918e-07
4.5596810841e-07
4.50062844441e-07
4.44708980277e-07
4.39798946956e-07
4.36449335783e-07
4.34298583597e-07
4.3293794042e-07
4.32909478178e-07
4.33935542986e-07
4.3473484355e-07
4.37205517239e-07
5.02630003755e-07
1.16734973698e-07
-8.84762363256e-08
1.66332408787e-07
-3.23931160982e-08
1.87109866296e-07
-1.34240792754e-08
2.06012952578e-07
-9.56935141556e-09
2.19755551981e-07
-9.09316110563e-09
2.3645804728e-07
-9.4846762277e-09
2.49702497588e-07
-9.97894900912e-09
2.65860882559e-07
-1.01517781276e-08
2.78854079789e-07
-1.02064282572e-08
2.93968287495e-07
-1.00221350573e-08
3.0595346746e-07
-9.80255599136e-09
3.19692289222e-07
-9.42545246247e-09
3.30340137901e-07
-9.09281684092e-09
3.42629827708e-07
-8.65177129219e-09
3.51869134648e-07
-8.29435892785e-09
3.62829068769e-07
-7.84204022429e-09
3.70740037334e-07
-7.4920400139e-09
3.80542118816e-07
-7.03515548989e-09
3.87489215985e-07
-6.69311928769e-09
3.96364412564e-07
-6.24972219812e-09
4.02592632996e-07
-5.93180988288e-09
4.10686143567e-07
-5.50450268651e-09
4.16548375231e-07
-5.20765700084e-09
4.2401897809e-07
-4.82627677915e-09
4.29635041138e-07
-4.56164247539e-09
4.36490137056e-07
-4.232061994e-09
4.41721950941e-07
-4.02201609471e-09
4.47968402307e-07
-3.74397143567e-09
4.5285746999e-07
-3.55690879295e-09
4.58522274584e-07
-3.31250567711e-09
4.62944646504e-07
-3.16618924589e-09
4.67972526525e-07
-2.95770912555e-09
4.71967808339e-07
-2.81292669872e-09
4.76396958561e-07
-2.62548328651e-09
4.79808017053e-07
-2.51697659718e-09
4.83629224166e-07
-2.33485522753e-09
4.8661124808e-07
-2.22191027332e-09
4.89854538306e-07
-2.06638107422e-09
4.92363551345e-07
-1.96524767971e-09
4.95095267695e-07
-1.82172686659e-09
4.97147894608e-07
-1.73020660421e-09
4.99450165122e-07
-1.59803536781e-09
5.0108067432e-07
-1.51672749212e-09
5.0305507015e-07
-1.38830175246e-09
5.04325266753e-07
-1.31570525792e-09
5.06046126573e-07
-1.1833639776e-09
5.07068283211e-07
-1.11547765144e-09
5.08599161371e-07
-9.80358668875e-10
5.09482081837e-07
-9.18325158781e-10
5.10854679046e-07
-7.85706072143e-10
5.11726293573e-07
-7.21528643062e-10
5.13015460264e-07
-6.05175552589e-10
5.13920306877e-07
-5.47820689186e-10
5.15145521995e-07
-4.44733916135e-10
5.1602914824e-07
-4.04025622044e-10
5.17184241768e-07
-3.18688809531e-10
5.18046857924e-07
-2.82257567674e-10
5.19120572109e-07
-2.08060710223e-10
5.19894958813e-07
-1.89800464551e-10
5.20833680195e-07
-1.28707243733e-10
5.215112373e-07
-1.05807624648e-10
5.22289323462e-07
-5.41391566999e-11
5.22755741845e-07
-5.42191521135e-11
5.23331948243e-07
2.71937766162e-12
5.23657887413e-07
1.70752136612e-11
5.24038536461e-07
5.60296724993e-11
5.2417738453e-07
7.07087128261e-11
5.24420983907e-07
1.21121941583e-10
5.24386762867e-07
1.40979193246e-10
5.24525876909e-07
2.10726946978e-10
5.24352412856e-07
2.37135211965e-10
5.24401057112e-07
3.27153625759e-10
5.24130520713e-07
3.71606033532e-10
5.24108802353e-07
4.7490519011e-10
5.23775633611e-07
5.15494854173e-10
5.23742826234e-07
6.32822964518e-10
5.23438690673e-07
6.76310194953e-10
5.233918693e-07
7.74141608482e-10
5.23011848943e-07
7.87313422071e-10
5.22950153484e-07
8.78034653714e-10
5.22572989086e-07
8.73414814819e-10
5.22434097657e-07
9.3698974272e-10
5.22042067331e-07
9.10747927735e-10
5.21628698975e-07
9.2923629626e-10
5.21163503255e-07
9.5030934005e-10
5.20445685977e-07
9.94915896225e-10
5.19579712157e-07
1.14904212763e-09
5.19097059026e-07
1.6638172514e-09
5.1756727625e-07
1.82881316001e-09
5.17274411534e-07
2.90741757116e-09
5.169154799e-07
3.3701932624e-09
5.17137697012e-07
4.0062241583e-09
5.17262490194e-07
4.40785031318e-09
5.17550540854e-07
4.85018858137e-09
5.17554776151e-07
5.06387101518e-09
5.1767827261e-07
5.375099562e-09
5.17494063173e-07
5.47408536266e-09
5.17460926112e-07
5.6931482127e-09
5.17143155989e-07
5.69648846698e-09
5.1708936399e-07
5.83075135366e-09
5.16751324353e-07
5.71769156952e-09
5.16528251548e-07
5.66629680791e-09
5.15900810374e-07
5.36807467262e-09
5.15130613189e-07
5.00899816501e-09
5.14078287715e-07
4.53160697599e-09
5.12913550909e-07
4.03338642616e-09
5.11652178227e-07
3.55857449863e-09
5.1042303703e-07
3.1751167699e-09
5.09174313382e-07
2.8534403784e-09
5.0799709169e-07
2.6267385802e-09
5.0681245746e-07
2.4402874738e-09
5.05697635733e-07
2.32776334734e-09
5.04565835128e-07
2.23683937009e-09
5.0349600905e-07
2.21199354858e-09
5.02397505459e-07
2.19822065057e-09
5.01334667905e-07
2.26299175315e-09
5.00212699678e-07
2.33444344161e-09
4.99347334653e-07
2.57505264176e-09
4.98480720423e-07
2.75389503044e-09
4.97912170393e-07
3.15475341839e-09
4.97017904202e-07
3.30137781063e-09
4.96163464588e-07
3.46320630522e-09
4.95075538836e-07
3.38520181811e-09
4.93936321292e-07
3.20392308689e-09
4.92716196038e-07
2.96730049779e-09
4.91524904398e-07
2.77332970726e-09
4.90295548735e-07
2.59797086491e-09
4.89118642466e-07
2.49083132656e-09
4.87921362413e-07
2.39671097101e-09
4.86790700028e-07
2.3570898842e-09
4.85654509718e-07
2.31479187605e-09
4.84594542757e-07
2.31543337697e-09
4.83537102942e-07
2.3100086064e-09
4.82553112465e-07
2.34643141163e-09
4.81578494182e-07
2.38383495194e-09
4.80668599376e-07
2.48518132884e-09
4.79723088553e-07
2.60621302533e-09
4.78904389966e-07
2.9003566101e-09
4.78002114935e-07
3.19636016199e-09
4.77331283844e-07
3.82053951664e-09
4.76317790258e-07
4.22029190443e-09
4.75681091417e-07
4.94719990803e-09
4.74774747989e-07
5.25813296752e-09
4.74225521452e-07
5.76104952419e-09
4.73362076241e-07
5.86122674441e-09
4.72755274806e-07
6.18004915156e-09
4.71789000551e-07
6.13729873372e-09
4.7107664319e-07
6.35810302289e-09
4.70026935546e-07
6.24378398168e-09
4.69259929266e-07
6.42534552418e-09
4.6817739987e-07
6.28088289991e-09
4.6739863813e-07
6.45312293764e-09
4.66312845481e-07
6.29771598573e-09
4.65540566719e-07
6.47552324945e-09
4.64453845138e-07
6.32017424089e-09
4.63674926521e-07
6.51790364335e-09
4.62547567493e-07
6.38216038062e-09
4.6168790477e-07
6.63497364241e-09
4.60384553367e-07
6.5754100714e-09
4.59220456117e-07
6.97645015389e-09
4.57387600075e-07
7.1211781143e-09
4.55405937638e-07
7.83906836751e-09
4.52305955629e-07
8.41361728177e-09
4.48472607234e-07
9.75811052403e-09
4.42700468643e-07
1.11364914795e-08
4.35212771579e-07
1.35200538407e-08
4.24629610027e-07
1.60394107539e-08
4.1120463602e-07
1.96157156709e-08
3.93462173901e-07
2.33332687535e-08
3.71687488606e-07
2.8167616858e-08
3.44533489493e-07
3.29035935989e-08
3.12898393252e-07
3.82466645098e-08
2.76101468755e-07
4.26917699516e-08
2.36172089492e-07
4.6749255369e-08
1.91838002182e-07
5.03513348062e-08
1.44710281227e-07
5.41878162374e-08
9.41777619054e-08
5.67130870022e-08
4.20325165781e-08
5.92099754363e-08
-1.21084155874e-08
6.00942620053e-08
4.9949734522e-08
-5.62916911886e-08
-4.56394077468e-09
-7.14792059286e-08
1.45399401237e-08
-4.17298556768e-08
3.45217135242e-08
-2.77386635327e-08
5.78444013108e-08
-2.52470525937e-08
7.8466034805e-08
-2.52341402095e-08
1.01185058421e-07
-2.57751269604e-08
1.21175703308e-07
-2.60754008519e-08
1.42607937531e-07
-2.59941664697e-08
1.61239240672e-07
-2.55769975186e-08
1.80960112666e-07
-2.48760158273e-08
1.97952140449e-07
-2.4044708888e-08
2.15725150214e-07
-2.31082778489e-08
2.30897623037e-07
-2.21534945947e-08
2.46797919896e-07
-2.11751516088e-08
2.60220002884e-07
-2.02274087368e-08
2.74451100557e-07
-1.92811116589e-08
2.86313734837e-07
-1.83822116673e-08
2.99104796859e-07
-1.74801306762e-08
3.09757008275e-07
-1.66324965577e-08
3.21401179834e-07
-1.57871290307e-08
3.31177429738e-07
-1.49928375916e-08
3.41883028316e-07
-1.42059303612e-08
3.51066265453e-07
-1.34769323883e-08
3.61088868731e-07
-1.27567481935e-08
3.69838244934e-07
-1.21035338899e-08
3.79142974528e-07
-1.14813436768e-08
3.87394951324e-07
-1.09027335797e-08
3.96071309661e-07
-1.03463158026e-08
4.03821764617e-07
-9.83533766563e-09
4.11794272203e-07
-9.3485777127e-09
4.18964143522e-07
-8.88554617604e-09
4.26277643317e-07
-8.43568353869e-09
4.32832358816e-07
-8.02714629356e-09
4.39391026565e-07
-7.62515970459e-09
4.4530578029e-07
-7.2412811435e-09
4.5115366125e-07
-6.87214276392e-09
4.56420747432e-07
-6.52334509465e-09
4.61605730192e-07
-6.17091513334e-09
4.66253348756e-07
-5.84486012416e-09
4.70789108615e-07
-5.51933363004e-09
4.74815115201e-07
-5.213757083e-09
4.78762652746e-07
-4.90645111197e-09
4.82205686922e-07
-4.61695369608e-09
4.85637194199e-07
-4.32141367764e-09
4.8856333985e-07
-4.04444286651e-09
4.91541733329e-07
-3.75587783459e-09
4.94051571986e-07
-3.48893971599e-09
4.96651257817e-07
-3.21144729913e-09
4.98855161023e-07
-2.95513155647e-09
5.01153690745e-07
-2.69461550332e-09
5.03155284845e-07
-2.4640924946e-09
5.05261955193e-07
-2.22736865884e-09
5.07155944636e-07
-2.02353091629e-09
5.09092221011e-07
-1.83222623144e-09
5.10868029921e-07
-1.66115235873e-09
5.12684972212e-07
-1.49662729121e-09
5.14356424977e-07
-1.35629007997e-09
5.16026603671e-07
-1.22011707088e-09
5.17563591998e-07
-1.09903930508e-09
5.1908206121e-07
-9.75738159727e-10
5.20446079874e-07
-8.7686343024e-10
5.21737600048e-07
-7.69980377582e-10
5.22887790199e-07
-6.71482867174e-10
5.23949177097e-07
-5.76703046764e-10
5.24860487272e-07
-4.90579531451e-10
5.25713147988e-07
-3.90052085168e-10
5.26402526332e-07
-3.03028661331e-10
5.27054352168e-07
-2.00765534664e-10
5.27539418966e-07
-1.03737992603e-10
5.28020355975e-07
1.34990264703e-11
5.28343024258e-07
1.28641240919e-10
5.28697854923e-07
2.63855379306e-10
5.28895105733e-07
3.84000702638e-10
5.29148433539e-07
5.35389296157e-10
5.29296618904e-07
6.71377886713e-10
5.29520023953e-07
8.17777960483e-10
5.29658444233e-07
9.42854413887e-10
5.29849727224e-07
1.07355293082e-09
5.2992832954e-07
1.17216094787e-09
5.30068851294e-07
1.28562032482e-09
5.3009302681e-07
1.35884026875e-09
5.30115075283e-07
1.4423592526e-09
5.30026663597e-07
1.49805472822e-09
5.29821562441e-07
1.56340405746e-09
5.29542073264e-07
1.66256200525e-09
5.29038173697e-07
1.82616770027e-09
5.28578091718e-07
2.21186463991e-09
5.27720229087e-07
2.68221291445e-09
5.27200922045e-07
3.75773292022e-09
5.26277339884e-07
4.52413066238e-09
5.26097533697e-07