/*--------------------------------*- C++ -*----------------------------------*\
| =========                 |                                                 |
| \\      /  F ield         | OpenFOAM: The Open Source CFD Toolbox           |
|  \\    /   O peration     | Version:  v1806                                 |
|   \\  /    A nd           | Web:      www.OpenFOAM.com                      |
|    \\/     M anipulation  |                                                 |
\*---------------------------------------------------------------------------*/
FoamFile
{
    version     2.0;
    format      ascii;
    class       volScalarField;
    location    "1";
    object      sensitivity;
}
// * * * * * * * * * * * * * * * * * * * * * * * * * * * * * * * * * * * * * //

dimensions      [0 2 -3 0 0 0 0];


internalField   nonuniform List<scalar> 
12225
(
-10.4588966716
-9.67776460383
-9.08462359371
-9.15977685379
-8.10641386237
-7.69954064985
-7.11491270929
-6.64273803807
-6.35619948887
-6.35211367559
-6.74583247947
-7.40325341452
-7.73342602797
-8.15722449994
-9.51986987359
-10.8255157457
-12.2381504928
-14.4833164266
-10.2558917451
-12.2580971933
-9.91600731456
-10.4252095644
-9.73148798936
-9.56601475803
-9.24938537609
-8.97899229189
-8.73450753936
-8.52657933683
-8.44639309506
-8.51095216914
-8.38596527831
-8.24329127621
-8.61667125885
-9.02565633125
-9.62749698145
-10.3188497464
-9.1294555532
-11.8548989222
-9.83875798584
-10.347442206
-9.55822186483
-9.32100097003
-8.95071967082
-8.64375380125
-8.37542898396
-8.14673901557
-7.99529408577
-7.93070184353
-7.8315631102
-7.80755940212
-8.0757513058
-8.35591268422
-8.67888023917
-8.73131012006
-8.27652555381
-11.7889619781
-9.66158478536
-10.3043260208
-9.58768491931
-9.45387828565
-9.18887809656
-8.97479434281
-8.78180377045
-8.61127036503
-8.47968075377
-8.39526823075
-8.32351501322
-8.33169148194
-8.49685879621
-8.66066648121
-8.78620789125
-8.62047097698
-7.75014914982
-11.7914304872
-9.60688006007
-10.3413853875
-9.66328532011
-9.58851998027
-9.38237194076
-9.23237099822
-9.11164845235
-9.01714807709
-8.95321136244
-8.91967904386
-8.90970077195
-8.95719795888
-9.07302334764
-9.15511997065
-9.14532014483
-8.89361489025
-7.40558106281
-11.8024507175
-9.5972841793
-10.4074554227
-9.76690517784
-9.74448884098
-9.58590500853
-9.48497811433
-9.41750609529
-9.37714080745
-9.36406033734
-9.37312408902
-9.40297856855
-9.46700614787
-9.54827289274
-9.57082942989
-9.47983270877
-9.19468131269
-7.19613975304
-11.8124884956
-9.61518385361
-10.4855715993
-9.88102576407
-9.90246333698
-9.78091828165
-9.71629222109
-9.68523389149
-9.67967444026
-9.69854230681
-9.73448410446
-9.7831592885
-9.84657318344
-9.89796890603
-9.87803735994
-9.74002030367
-9.4412800381
-7.07883086167
-11.812218794
-9.64437001951
-10.5605443583
-9.99143822564
-10.050543629
-9.95924857408
-9.92225945935
-9.91380731683
-9.92679101809
-9.9617633699
-10.0100962201
-10.0631430681
-10.1165971679
-10.1401820287
-10.087653558
-9.91987740541
-9.61905631
-7.01992142525
-11.7955793826
-9.67224402158
-10.6211006113
-10.0869183296
-10.1800587681
-10.1147768906
-10.0978641102
-10.1013414746
-10.1216761342
-10.161807089
-10.2109575305
-10.2572171023
-10.2926552384
-10.289023546
-10.2070937939
-10.0188844297
-9.71938058398
-6.99089059822
-11.7585124937
-9.68286727691
-10.651687849
-10.1475497985
-10.2688575666
-10.2221447614
-10.2167571132
-10.2255567315
-10.2483321402
-10.2870313751
-10.3278939911
-10.357303149
-10.3677706636
-10.3351643149
-10.2273934408
-10.0258062325
-9.73527070035
-6.91746879942
-11.7133933992
-9.64933953351
-10.6346608127
-10.1435949543
-10.2762189147
-10.2310165536
-10.22602135
-10.2335968004
-10.251955988
-10.2812054188
-10.3089106336
-10.3230126702
-10.3177745965
-10.2721690592
-10.1603329596
-9.97101669629
-9.71102124981
-6.61201435645
-11.6579606343
-9.50213579968
-10.5158399856
-10.0141255527
-10.1456844043
-10.098961532
-10.093947136
-10.096040707
-10.1078350639
-10.1388164834
-10.1751203546
-10.2023223202
-10.2119534845
-10.1852411968
-10.1007855109
-9.94846435775
-9.73520952069
-6.41688823378
-11.5858440437
-9.39637662445
-10.4321824604
-9.95324732916
-10.0997852163
-10.0648997356
-10.0720458645
-10.0931882771
-10.1289974162
-10.1822822862
-10.2380511125
-10.2777334169
-10.2953195411
-10.2727929598
-10.1946395538
-10.0564298101
-9.86463373894
-6.17718011439
-11.5004015478
-9.28959909141
-10.358590226
-9.91308014205
-10.0991395041
-10.1057063634
-10.1473434821
-10.1953279778
-10.2508152149
-10.3156050925
-10.3722848943
-10.4027192894
-10.4041390389
-10.3672792557
-10.2803145445
-10.1475992001
-9.96825676908
-5.85276854639
-11.402811677
-9.15293392998
-10.2692562151
-9.86186175711
-10.0950778735
-10.1486164443
-10.2296461572
-10.3069121301
-10.3775970242
-10.4458953699
-10.4921042722
-10.5016386436
-10.4811558951
-10.4258100215
-10.3301324746
-10.2000927953
-10.0366192931
-5.50698090631
-11.3046131499
-8.99736828206
-10.1599011951
-9.78182873522
-10.056868679
-10.149151822
-10.2626501418
-10.3611136349
-10.4431571324
-10.5088401928
-10.5443261182
-10.5359223227
-10.4994210601
-10.431928499
-10.3330088548
-10.2085456819
-10.0573533704
-5.18204821176
-11.2222121141
-8.84074796244
-10.0408229922
-9.67806781215
-9.98159652142
-10.0980786866
-10.2311203068
-10.3414450066
-10.4261330735
-10.4896398178
-10.5165247499
-10.4981980556
-10.452591518
-10.3814906028
-10.2825700725
-10.1659884629
-10.023678799
-4.88686050059
-11.1695461701
-8.69609107759
-9.92610556405
-9.56406220045
-9.88157476778
-10.0068833617
-10.1485527993
-10.2628893598
-10.3473204696
-10.4074401463
-10.4285181612
-10.4042740291
-10.355159003
-10.2833984317
-10.1865470454
-10.0756703076
-9.94169659987
-4.71841796178
-11.1790615494
-8.62622601511
-9.87066649024
-9.49520337836
-9.80711606898
-9.92150057397
-10.0536854303
-10.1571112019
-10.229684843
-10.278005246
-10.2887854903
-10.256543833
-10.202911985
-10.1294049463
-10.0327461147
-9.9242272142
-9.7949700277
-5.04853239268
-11.2710096926
-8.73097633331
-9.929552949
-9.50238563494
-9.75565376053
-9.80973788413
-9.88017018058
-9.92696473081
-9.94897316831
-9.95502332691
-9.93365691496
-9.87864500301
-9.81002451123
-9.72875228658
-9.63105373535
-9.52703444796
-9.40979532449
-5.29554898386
-11.3781702348
-8.8509790632
-10.0133942955
-9.54493126309
-9.7494110753
-9.75483188848
-9.77931419223
-9.78265978184
-9.7683060477
-9.74515755512
-9.70343753561
-9.63374271896
-9.55760904321
-9.47310941844
-9.37749091855
-9.27783114434
-9.16936580497
-5.49210240195
-11.4831184326
-8.96290037308
-10.0921265818
-9.58785212206
-9.74806211419
-9.71225101369
-9.69616293751
-9.66418226996
-9.62020709615
-9.57296177785
-9.51450101753
-9.4338925508
-9.35065713843
-9.26370688378
-9.16831869166
-9.07226151029
-8.96782259338
-5.68627991797
-11.5915452287
-9.06767428151
-10.1656042305
-9.62563297997
-9.7419963202
-9.66570342166
-9.61130417554
-9.54617018076
-9.47318678426
-9.40445932347
-9.3285230468
-9.23578909966
-9.14338435923
-9.05226625704
-8.95452166635
-8.85917916459
-8.75906370009
-5.88461006656
-11.7012241026
-9.17193359063
-10.2324079452
-9.654060391
-9.7278705422
-9.61268113479
-9.52155299784
-9.42518568726
-9.32659045472
-9.23570043948
-9.14348892659
-9.03818402944
-8.93701237183
-8.83755852857
-8.73481032537
-8.63578084259
-8.53685695181
-6.10586979119
-11.8060642469
-9.2759339199
-10.2930898664
-9.68251004979
-9.71442888892
-9.56290466437
-9.43948979768
-9.31463568086
-9.19109177987
-9.07928203964
-8.97129766583
-8.85305679157
-8.74096431267
-8.63343978046
-8.52275732036
-8.41698957985
-8.31608505488
-6.41368446635
-11.9136913698
-9.4092287319
-10.3706447503
-9.73292084726
-9.72862626244
-9.54714576432
-9.39489034599
-9.2447229454
-9.09766997747
-8.96509826815
-8.84126153695
-8.71178089692
-8.58850965378
-8.47011319774
-8.35003221434
-8.23390476808
-8.12648271211
-6.90710774371
-12.0247554549
-9.59002819508
-10.4803807977
-9.83354153039
-9.80218347414
-9.59999111511
-9.4298849246
-9.26150573647
-9.09453083461
-8.94054980728
-8.8019683617
-8.65940861187
-8.52087236571
-8.38955310228
-8.25529219783
-8.12646031372
-8.00383410411
-7.85275066528
-12.2409913441
-10.0161865001
-10.796171925
-10.1384820559
-10.069959407
-9.84183257822
-9.65007472143
-9.46493222785
-9.28164673359
-9.11628904895
-8.96983991467
-8.82162034768
-8.68089962746
-8.54888488035
-8.41263062119
-8.2757433599
-8.17732050979
-9.81284511327
-13.1648495712
-10.5154866373
-11.3025933395
-10.7365005747
-10.6794866681
-10.4728645326
-10.2823801901
-10.0726758788
-9.83876950997
-9.59659477734
-9.37369242141
-9.14704334314
-8.9089884478
-8.66529609674
-8.41290870462
-8.16064996532
-7.90722452128
-11.6702858755
-10.7950704099
-10.3113155338
-10.8288434343
-10.0847630337
-10.0785734272
-9.94197689103
-9.83371811321
-9.74249307496
-9.67966334415
-9.66443617073
-9.66051930069
-9.64766706481
-9.67293066762
-9.73260407003
-9.78677478345
-9.82621740221
-9.79700437749
-0.0130660807746
0.0264597807936
0.0439523418706
0.0344342847701
0.00730957204772
-0.0317414566637
-0.0787990753538
-0.131071991782
-0.186468173755
-0.243491529316
-0.301111263426
-0.358648331243
-0.415653917724
-0.471893305331
-0.527216016666
-0.581623537606
-0.635104219907
-0.687793631103
-0.739733987015
-0.791008401482
-0.841672590028
-0.891786106695
-0.941396697659
-0.990416631102
-1.03885666174
-1.08654919004
-1.13352038889
-1.17965817371
-1.22494555151
-1.26922074867
-1.31246706886
-1.35458876358
-1.39556949213
-1.43527078448
-1.47369357794
-1.51083561568
-1.54669973447
-1.58120130345
-1.61438065261
-1.64621934874
-1.6767546214
-1.70601728535
-1.73404631357
-1.76091956011
-1.78667042101
-1.81140816935
-1.83517930352
-1.85806882156
-1.88013497363
-1.90143228937
-1.92204361829
-1.9419476911
-1.96119943098
-1.97974265074
-1.99761336829
-2.01478238952
-2.03125322376
-2.04697313468
-2.06193723591
-2.07612113371
-2.08952968265
-2.10212285826
-2.1139318705
-2.12502993155
-2.13548027251
-2.14530096733
-2.15457483132
-2.16336261461
-2.17169851432
-2.17964924655
-2.18723095581
-2.19449169807
-2.20143997847
-2.20810183516
-2.21450117795
-2.22066301321
-2.22656293917
-2.23213619474
-2.23736673766
-2.24226745298
-2.24682971993
-2.25098209696
-2.25467521614
-2.25780333117
-2.26051666356
-2.26278627534
-2.2648670762
-2.26704036889
-2.26909308489
-2.27210772365
-2.2763539573
-2.28105672125
-2.28592623677
-2.29049637988
-2.29467597666
-2.29845390425
-2.30182078341
-2.30478042722
-2.30732022654
-2.3094028689
-2.31086170852
-2.31146400415
-2.31107273328
-2.30963067823
-2.30739943466
-2.30457031499
-2.30143285636
-2.29814282895
-2.2947878958
-2.2913993033
-2.28801003455
-2.28463852335
-2.28131614992
-2.27804627359
-2.27482841317
-2.27166168994
-2.26860445267
-2.26579165459
-2.26316422341
-2.26052218304
-2.25746380184
-2.25379065694
-2.24956377278
-2.2448205813
-2.23981981847
-2.23468017365
-2.22948426424
-2.22427315687
-2.21908896648
-2.21395877224
-2.20892955612
-2.20402964786
-2.1992899979
-2.19469976483
-2.1902581154
-2.18595096332
-2.18177680931
-2.17776885584
-2.173906499
-2.17021778252
-2.16660155198
-2.16319591499
-2.15994819656
-2.15673810249
-2.15346792436
-2.15005552764
-2.14651037837
-2.14286835423
-2.13917926196
-2.13547889
-2.13179731597
-2.128152875
-2.12455815152
-2.12101185366
-2.11750256794
-2.11399958915
-2.11043876436
-2.10671204438
-2.10259924254
-2.09779653423
-2.09170563357
-2.08362152957
-2.07248198122
-2.05677045488
-2.03435791582
-2.00279828476
-1.959042987
-1.90037978984
-1.82459098839
-1.72795667023
-1.60804434782
-1.46451919867
-1.2991395223
-1.11713564813
-0.925420054065
-0.721256881673
-0.510686015564
-0.305350667715
-0.117293545001
0.0233715494957
-0.0119980271412
0.0189021180947
0.0166246406428
-0.0115900266451
-0.0516168964529
-0.096280304027
-0.143230078557
-0.191491058799
-0.240736914402
-0.290814962376
-0.34161769379
-0.393003339168
-0.444862324546
-0.497067683135
-0.549506405399
-0.602092833246
-0.654744509982
-0.707437094582
-0.760137148719
-0.812806127469
-0.865425272901
-0.91793572319
-0.970342360432
-1.02250644342
-1.07436600823
-1.12574543253
-1.17663398202
-1.22686863248
-1.27637229854
-1.32498831846
-1.37268726929
-1.41933565868
-1.46485515267
-1.50914462658
-1.55220558347
-1.59395901456
-1.63439915255
-1.67348369623
-1.71119986926
-1.74752016755
-1.78246272247
-1.81604812953
-1.84830140208
-1.87927855931
-1.90901575942
-1.93759466888
-1.96507569147
-1.99153116712
-2.01703910267
-2.04165304231
-2.0654622498
-2.08849374305
-2.11079260699
-2.13234016469
-2.15318974431
-2.17333560884
-2.19277662533
-2.21148704356
-2.22946774557
-2.24669027428
-2.26314199272
-2.27882741373
-2.29378603418
-2.30803395657
-2.3216085657
-2.33455439807
-2.34689017786
-2.3586578969
-2.36988903707
-2.38063538968
-2.39093083907
-2.40081387706
-2.41030800653
-2.41945954043
-2.42830500564
-2.43684783098
-2.44507805538
-2.45296242116
-2.46047906188
-2.46762321621
-2.47436765591
-2.48066601612
-2.48645905438
-2.49163894192
-2.49628013508
-2.50045858948
-2.50433429825
-2.50794946278
-2.5116795341
-2.51592924708
-2.52123524508
-2.5274743056
-2.53385042906
-2.54008998501
-2.54605822999
-2.55174253587
-2.5571549292
-2.56232030995
-2.5672361804
-2.5718617352
-2.57601655714
-2.57947374021
-2.58200264263
-2.58361304984
-2.58441833635
-2.58462775788
-2.58445048555
-2.58400972308
-2.58338542854
-2.58262007025
-2.5817465646
-2.58079968583
-2.57981803555
-2.57883400451
-2.57788352879
-2.57700672127
-2.57631292687
-2.57594735458
-2.57594104309
-2.57603538771
-2.57585489756
-2.57520628725
-2.57401889223
-2.57239664029
-2.57049107218
-2.56839719317
-2.56618741497
-2.56391240162
-2.56160622897
-2.55929733279
-2.55700708447
-2.55475375571
-2.55253679188
-2.55034422637
-2.54816804255
-2.5460148233
-2.54391784767
-2.54194787847
-2.5401792419
-2.53862416972
-2.53728239025
-2.53623689232
-2.53545369602
-2.53483016174
-2.53422332175
-2.53353753235
-2.5327510103
-2.53188817546
-2.53098217122
-2.53006648161
-2.5291631389
-2.52829268695
-2.52746350801
-2.52668490972
-2.52595431834
-2.52526617019
-2.52459886469
-2.52393842138
-2.52324986328
-2.52255682851
-2.52188552082
-2.52128390822
-2.52085700905
-2.52085305512
-2.52159508783
-2.52350177081
-2.52768714205
-2.53384810403
-2.54223581311
-2.55334944639
-2.56716243782
-2.58297401657
-2.5998327929
-2.61741504538
-2.62562723518
-2.63424149322
-2.64229016885
-2.64920886458
-2.65483948112
-2.65149874016
-0.041873945672
-0.0282962415145
-0.0406992398
-0.0696996920581
-0.104373453072
-0.139785229836
-0.175888512562
-0.213106512647
-0.251923293388
-0.292557301897
-0.335069638866
-0.379352884419
-0.425221018293
-0.472453092677
-0.52081581415
-0.570104003834
-0.620123352935
-0.670728225104
-0.721799971095
-0.773231329009
-0.824929345338
-0.876785191133
-0.928760915713
-0.980695975251
-1.03251328655
-1.08405382002
-1.13524636764
-1.18592289199
-1.23599976894
-1.28532010201
-1.33380454612
-1.38131076501
-1.42778746643
-1.47311267616
-1.51724469687
-1.56012665143
-1.60174142757
-1.6420131327
-1.6809419512
-1.71850397419
-1.75470021382
-1.78954744072
-1.82306159926
-1.85528694378
-1.88625338352
-1.91602234924
-1.94465034502
-1.97219895157
-1.99873110966
-2.02430537288
-2.0490111058
-2.07286986417
-2.09593459576
-2.11821777057
-2.13974995074
-2.16053520691
-2.18059299083
-2.19990857435
-2.21848118533
-2.23628180765
-2.25331385651
-2.26955973391
-2.28502614308
-2.29974287609
-2.31374054627
-2.32704737978
-2.33970652778
-2.35176722333
-2.36325879328
-2.37423347455
-2.38472480767
-2.39477693703
-2.40442464625
-2.41369217274
-2.4226188288
-2.43122833837
-2.43951136444
-2.44744359104
-2.45502490437
-2.46225051799
-2.46914488674
-2.47568628461
-2.48181856488
-2.48750703759
-2.49279785375
-2.49777275994
-2.50246813875
-2.50690447912
-2.51099448971
-2.51544316823
-2.52086534661
-2.52698008878
-2.53346447906
-2.53984890994
-2.54599273436
-2.5518531396
-2.55743197839
-2.56272921871
-2.56774172636
-2.57241158448
-2.5765902533
-2.58009677593
-2.58280528216
-2.58478591762
-2.58614954133
-2.58708209214
-2.58767506209
-2.58799821038
-2.58809496103
-2.58800972673
-2.58778330077
-2.58746342263
-2.58709214778
-2.58670255657
-2.58632252302
-2.58598640952
-2.58579072566
-2.58581625359
-2.5860353313
-2.58617595828
-2.58597034259
-2.58531842309
-2.58427016865
-2.58296647861
-2.58145926968
-2.57978935592
-2.57799143568
-2.57610574026
-2.57416874143
-2.5722179338
-2.57028978563
-2.56841391419
-2.56660063581
-2.56484515338
-2.56314116324
-2.56149327721
-2.55992747233
-2.55846363441
-2.55712504552
-2.55585825728
-2.55469527851
-2.55372132416
-2.55300373759
-2.5524784077
-2.55200389894
-2.55148696538
-2.55089206561
-2.55023562763
-2.54953683438
-2.54882148492
-2.54810188299
-2.54739391083
-2.54670001469
-2.54602539936
-2.54536104482
-2.54469479787
-2.54399296176
-2.54321907726
-2.54230193118
-2.5411718349
-2.53976794822
-2.53800711458
-2.53579823147
-2.53311329757
-2.52994614326
-2.52639887481
-2.52292473705
-2.51987070754
-2.51736995431
-2.5159925097
-2.51646490283
-2.51952412534
-2.52610219975
-2.53616683909
-2.54809526934
-2.56092874029
-2.57569974755
-2.59230130384
-2.6102239774
-2.63013698396
-0.0664257491214
-0.08671637186
-0.107028900463
-0.132973107752
-0.16018055055
-0.186287646839
-0.213171976179
-0.241937779856
-0.273288760928
-0.307519895953
-0.344608615882
-0.384351387752
-0.426470270916
-0.470649777762
-0.516575153723
-0.563956959188
-0.612533512684
-0.662084962634
-0.712423909828
-0.763373350066
-0.814827101842
-0.866632405991
-0.918686941118
-0.970847791756
-1.02301841979
-1.07501340439
-1.12674278457
-1.17804421067
-1.22880337655
-1.27885710487
-1.32811300816
-1.37643212016
-1.42372128055
-1.46986886104
-1.5148485789
-1.5585533385
-1.60096605514
-1.64203317599
-1.68173985879
-1.72004916406
-1.75696975387
-1.79250616719
-1.82667652497
-1.85951367328
-1.89104654693
-1.9213252751
-1.95039820015
-1.97831978266
-2.00516554961
-2.03098547627
-2.05584531978
-2.07980390109
-2.10291968379
-2.12520177589
-2.14668835144
-2.16739453998
-2.18734219169
-2.20652944846
-2.22496409634
-2.24262114894
-2.25948525138
-2.27555399347
-2.29085508357
-2.30538196072
-2.31916361437
-2.33225016779
-2.34467100448
-2.3564694831
-2.36768098906
-2.37835218193
-2.38852136698
-2.39822800889
-2.40750339303
-2.41639498041
-2.42493843401
-2.4331482427
-2.44104506571
-2.44862468266
-2.4558901381
-2.46285742651
-2.46956661539
-2.47601829956
-2.48217123814
-2.48798029297
-2.49347321125
-2.4986948052
-2.50362622061
-2.50806176596
-2.51202141946
-2.51596028451
-2.52056180554
-2.52604886763
-2.53186800123
-2.53765260897
-2.5432422182
-2.54858232846
-2.55365483458
-2.55845093668
-2.56295753994
-2.56711474482
-2.57081299709
-2.5739134251
-2.57640038589
-2.57833945583
-2.57988673693
-2.58112731598
-2.58209033468
-2.58278687404
-2.58323847963
-2.58347949443
-2.58355448539
-2.58351185861
-2.58339314162
-2.58322977549
-2.58304187108
-2.58286886398
-2.58277315801
-2.58280869515
-2.58287947305
-2.58275934813
-2.582255711
-2.58137145512
-2.58027546849
-2.5790583675
-2.57772364582
-2.57625823456
-2.57466940804
-2.57298215082
-2.57123216032
-2.56946186702
-2.56771564222
-2.56602774852
-2.56441293513
-2.56286792996
-2.56138561276
-2.55997010891
-2.55862782278
-2.55734939441
-2.55609034452
-2.55479072665
-2.55347105874
-2.55227726374
-2.55133787289
-2.55061292133
-2.5499830869
-2.54935020355
-2.54867656683
-2.54796398632
-2.54722543975
-2.54647440723
-2.54571868474
-2.54496519852
-2.54421455223
-2.54346594919
-2.5427111964
-2.54193519469
-2.54110986345
-2.54020276617
-2.53916265549
-2.53794169813
-2.53651078936
-2.53482350856
-2.53285012649
-2.53062667825
-2.52822462364
-2.52579983094
-2.52371860729
-2.52225987503
-2.52162864729
-2.52231305948
-2.52478420112
-2.52943820288
-2.53681993911
-2.54676347687
-2.55843073585
-2.57140599144
-2.58615184506
-2.60299278549
-2.62292500464
-2.64870155935
-0.0945146795559
-0.157008870569
-0.183061866373
-0.20478645989
-0.225392913876
-0.244065830059
-0.263870042233
-0.286158217046
-0.311674414259
-0.340616753604
-0.372919845934
-0.408352029086
-0.446600615741
-0.487325370914
-0.530194622707
-0.574888525511
-0.621127261504
-0.66864244846
-0.717233380735
-0.766701861598
-0.816884788398
-0.867612470022
-0.918785299719
-0.970217229953
-1.02179211877
-1.07335647996
-1.12477896579
-1.17588402239
-1.22654872
-1.27661133568
-1.32594910783
-1.37441094662
-1.4219194792
-1.46834698666
-1.51363127398
-1.55768958977
-1.60049952621
-1.64197179264
-1.68210480039
-1.72085564822
-1.7582274168
-1.79421260458
-1.82882988521
-1.86209755998
-1.89404601395
-1.92470723581
-1.9541318952
-1.98236968583
-2.00947479697
-2.03550500488
-2.06053837061
-2.08461213257
-2.10778541603
-2.13010919909
-2.15160300173
-2.17227794445
-2.19216570223
-2.21127714516
-2.22961984142
-2.24717914734
-2.26395044461
-2.27992067473
-2.29510779476
-2.30952791331
-2.32320132054
-2.33614869528
-2.34841543665
-2.36004227472
-2.37106140756
-2.38151765517
-2.39144381935
-2.40088792051
-2.40989296238
-2.41849163957
-2.42672306373
-2.43462809518
-2.4422250502
-2.44952243231
-2.45654048155
-2.46330660304
-2.46987991836
-2.47627352141
-2.48243964915
-2.48833750874
-2.49397259489
-2.49935548674
-2.50439367423
-2.50885167528
-2.51256905721
-2.51611701059
-2.52030351912
-2.52526371071
-2.53058889862
-2.53588972517
-2.54101168653
-2.54589912999
-2.55052475153
-2.55488079044
-2.55894554498
-2.56266587918
-2.56596292273
-2.56877244734
-2.57112470906
-2.57311976281
-2.57488390584
-2.57644094813
-2.57776940641
-2.57884262192
-2.57966417856
-2.58025727143
-2.58066520424
-2.58093136152
-2.58109504718
-2.58118027982
-2.58120507678
-2.5812091364
-2.5812342864
-2.58128584447
-2.5812369142
-2.58090018732
-2.58017441393
-2.57916937523
-2.57808360804
-2.5769745056
-2.5758096266
-2.57454459626
-2.57316707369
-2.5716894436
-2.57014446687
-2.56857665043
-2.56703469461
-2.56555552258
-2.56415688694
-2.56283490881
-2.56158402977
-2.56040735218
-2.55929271237
-2.55819728086
-2.55701505685
-2.55568297424
-2.5542267645
-2.55285430064
-2.55172388447
-2.55082024535
-2.55004219086
-2.54929582242
-2.54854455157
-2.54777948134
-2.54700681864
-2.54622777045
-2.54544502593
-2.54465695784
-2.54386276469
-2.54305706603
-2.54223306211
-2.54137463318
-2.54045836115
-2.53945559977
-2.53832620724
-2.53703241316
-2.53555821578
-2.53387552931
-2.53197637366
-2.52991733502
-2.5277880993
-2.52574918893
-2.52413274405
-2.52320509825
-2.52318987299
-2.524559428
-2.52772233102
-2.53302433991
-2.54095134513
-2.55144386339
-2.56384268245
-2.57802349427
-2.59437408721
-2.61333791982
-2.63632960976
-2.66592362624
-0.134243716917
-0.242478701932
-0.271390077983
-0.287669156075
-0.302238096347
-0.314525737792
-0.328386795692
-0.345102985298
-0.365349588061
-0.389309630593
-0.41689922047
-0.447861914289
-0.481914597223
-0.518718549763
-0.557962984619
-0.599323994289
-0.642526832839
-0.687299901132
-0.733420386621
-0.780655063468
-0.828858295754
-0.877837866264
-0.927440583208
-0.977511153746
-1.02791960587
-1.07846994359
-1.12903123823
-1.17943226686
-1.22952417521
-1.27913639505
-1.32813905305
-1.37638165913
-1.42374995954
-1.47011820847
-1.51543631032
-1.55958438921
-1.6025290877
-1.64419615945
-1.68456658853
-1.72358021406
-1.76124482789
-1.79753668577
-1.83247574883
-1.86606522951
-1.89833507765
-1.9293070825
-1.95902257767
-1.98751823412
-2.0148622825
-2.04109898304
-2.06627907153
-2.09046961138
-2.11372589176
-2.13608462452
-2.15758580077
-2.17824658576
-2.19808069338
-2.2171152955
-2.23536471023
-2.2528274248
-2.26949418478
-2.28534701014
-2.30041902638
-2.31471366901
-2.32825315455
-2.34105465211
-2.35315669195
-2.36459237793
-2.37540079713
-2.38562195563
-2.39529850745
-2.40447434013
-2.41318611187
-2.4214882721
-2.42942014797
-2.43701357936
-2.44430626201
-2.45132130217
-2.45808074974
-2.46462596748
-2.4710218643
-2.47728876767
-2.48337827761
-2.4892394658
-2.49486250865
-2.50022142512
-2.50519966859
-2.50951622292
-2.51306220766
-2.51635014386
-2.52021614196
-2.52483374353
-2.52976008105
-2.53464262785
-2.53933585823
-2.54378667122
-2.54797882091
-2.55190264093
-2.55554133072
-2.55885415131
-2.56178692512
-2.56434019039
-2.56656897244
-2.5685961068
-2.5704953137
-2.57226221098
-2.57384165164
-2.57519119815
-2.5762967194
-2.57717312515
-2.57785252089
-2.57837222642
-2.57876308865
-2.57904291948
-2.57923113366
-2.57936046305
-2.57946359007
-2.57949732948
-2.57934043867
-2.57883789235
-2.57796731155
-2.57691463256
-2.57585363116
-2.57482543231
-2.57378182968
-2.57266915024
-2.57146062639
-2.57016066919
-2.56879711516
-2.56741463393
-2.56606055594
-2.56477237212
-2.56356532875
-2.562436723
-2.56138219234
-2.56040244374
-2.55947264888
-2.55850354754
-2.55737434834
-2.55599709447
-2.55444272836
-2.55294170193
-2.55165653512
-2.55059722843
-2.54967658166
-2.54881724109
-2.54797972472
-2.54715387393
-2.54633601479
-2.54552198703
-2.54470570607
-2.54388158665
-2.54304393562
-2.54218667256
-2.54130185426
-2.54037596039
-2.53938843755
-2.53831726182
-2.53713129976
-2.53580493962
-2.53433487509
-2.5327122158
-2.53094945311
-2.52912268473
-2.52733914824
-2.52576280997
-2.52469889512
-2.52440048933
-2.5250924042
-2.5272169443
-2.53112445892
-2.5370992181
-2.54556353586
-2.55654513123
-2.56960873696
-2.58476086038
-2.60232594009
-2.62283007454
-2.64782953883
-2.67949219601
-0.18941498095
-0.345040979184
-0.374385241734
-0.383963777957
-0.39261250824
-0.398916086936
-0.407199535409
-0.41859093661
-0.433741246799
-0.45272848025
-0.475487085268
-0.501782905891
-0.531358379597
-0.563894981161
-0.59910870281
-0.636684657707
-0.676361834254
-0.717855898958
-0.760954550804
-0.805435306007
-0.851102577046
-0.897761461495
-0.945282741505
-0.993462861824
-1.04215257711
-1.09118856109
-1.14040981122
-1.1896261451
-1.23868963865
-1.28742144273
-1.3356756599
-1.38328530823
-1.43014835765
-1.47612531362
-1.52112961877
-1.56505995486
-1.60787394925
-1.64946530908
-1.68981782878
-1.72886739768
-1.76660994556
-1.80301209597
-1.83809032343
-1.87183564638
-1.90427711262
-1.93542274345
-1.96531453767
-1.99398391735
-2.02147623843
-2.04783934866
-2.07313937789
-2.09741419149
-2.12071188822
-2.14309566497
-2.16459672387
-2.18523213048
-2.20501086056
-2.22396218252
-2.24210433865
-2.25944337387
-2.27598663528
-2.29171135995
-2.3066315227
-2.32077299757
-2.33416464314
-2.34679654789
-2.35870978554
-2.36993879676
-2.38052142665
-2.39049867743
-2.39991029945
-2.4088063456
-2.41723594964
-2.42523950219
-2.43286029863
-2.44015095146
-2.44714287782
-2.4538656458
-2.46035204574
-2.46664879607
-2.47282248299
-2.4788941452
-2.48481375164
-2.49052320918
-2.49600056013
-2.50120194965
-2.50599513767
-2.5101127794
-2.51345024069
-2.51656732524
-2.5202549928
-2.52462150617
-2.52924711626
-2.53379371546
-2.53812945767
-2.54220710483
-2.54602257211
-2.549570828
-2.55283947647
-2.55580132045
-2.55843324663
-2.56076584717
-2.56289039462
-2.56490711378
-2.56686126288
-2.56873239545
-2.57045571564
-2.57197941981
-2.57328055292
-2.57436321373
-2.57524713444
-2.57595980949
-2.57652071872
-2.5769436233
-2.57725041272
-2.57747507338
-2.57762768452
-2.57764736225
-2.57740949446
-2.57680687808
-2.57588740644
-2.57484013621
-2.5738180933
-2.5728499059
-2.57188853295
-2.57088093541
-2.56979683362
-2.56863557907
-2.56742114893
-2.56619431664
-2.56499924945
-2.5638700143
-2.56281912591
-2.5618453043
-2.56094837593
-2.56012763557
-2.55934200608
-2.5584738748
-2.55738328572
-2.55598371896
-2.55438273437
-2.55280593488
-2.55141979623
-2.55024014507
-2.54919762913
-2.54823092285
-2.54730658731
-2.54641611864
-2.54554946609
-2.5446983378
-2.54384831096
-2.5429910856
-2.54211584543
-2.54121712498
-2.54028565711
-2.5393114792
-2.53827694155
-2.53716669946
-2.53595837365
-2.53463736603
-2.53321309254
-2.53169302085
-2.53010854976
-2.52855009443
-2.52714006149
-2.52604087679
-2.52553922085
-2.52587123615
-2.52725655705
-2.53009906438
-2.53470836701
-2.54131397618
-2.55029856633
-2.56175666666
-2.57542460965
-2.59139812917
-2.60998002046
-2.63173290319
-2.65821262549
-2.69119825926
-0.261854398278
-0.465930842992
-0.49401510852
-0.495725769454
-0.498294462345
-0.49849168248
-0.501123131656
-0.507071532085
-0.516905578315
-0.530703898868
-0.548414054025
-0.56978401297
-0.594602813504
-0.622558638539
-0.653398640631
-0.686815365473
-0.722562936306
-0.76037119028
-0.800017972965
-0.841253660468
-0.883918195688
-0.92780643032
-0.972737132782
-1.01854198803
-1.06507020715
-1.11210859097
-1.15950838899
-1.20708435213
-1.25467052523
-1.30207799872
-1.34916067315
-1.39575218428
-1.44172097105
-1.4869231725
-1.53128601574
-1.57467427549
-1.61702914226
-1.6582604786
-1.69832954124
-1.73715762196
-1.77473971629
-1.81103086536
-1.84604267814
-1.87975706331
-1.91219785532
-1.94336787839
-1.97329869
-2.00200782026
-2.02955203628
-2.05596865924
-2.08129513943
-2.10559051404
-2.12889967203
-2.15125753465
-2.17270927173
-2.19328905358
-2.21299150454
-2.23183371912
-2.2498441802
-2.2670382617
-2.28342452913
-2.29899477749
-2.31375316125
-2.32771352884
-2.34091257234
-2.35336032561
-2.36506890063
-2.37607101998
-2.38641123149
-2.39612737542
-2.40526860113
-2.41388152912
-2.42200875264
-2.42970844533
-2.43702542093
-2.44399986407
-2.45067724426
-2.45709477179
-2.46328372043
-2.46929574944
-2.47519678511
-2.48100661532
-2.48667448978
-2.49213991431
-2.49737337896
-2.50232315112
-2.50685879389
-2.51073641305
-2.51389109348
-2.51688142504
-2.52043944423
-2.52462957937
-2.52902328005
-2.53330299537
-2.53734413785
-2.54111356821
-2.54461383841
-2.54784884832
-2.55080980975
-2.55348299356
-2.55586887228
-2.55801662876
-2.56003104901
-2.56199259781
-2.56392986276
-2.56581554115
-2.56758960685
-2.56919654141
-2.57061026658
-2.57182178926
-2.57284052166
-2.57368010747
-2.57435220135
-2.57486761124
-2.57525316215
-2.57554268878
-2.5757273028
-2.57573898858
-2.57546234596
-2.57482965264
-2.57392427691
-2.57291917331
-2.57193986173
-2.57101129413
-2.57009909818
-2.56915779053
-2.5681600692
-2.56710260054
-2.56600599269
-2.56490483724
-2.56383801798
-2.56283203022
-2.56189747772
-2.56103348814
-2.560248602
-2.559540628
-2.55884992036
-2.55804684329
-2.55697855579
-2.55558449535
-2.55398398965
-2.55238874084