/*--------------------------------*- C++ -*----------------------------------*\
| =========                 |                                                 |
| \\      /  F ield         | OpenFOAM: The Open Source CFD Toolbox           |
|  \\    /   O peration     | Version:  v1806                                 |
|   \\  /    A nd           | Web:      www.OpenFOAM.com                      |
|    \\/     M anipulation  |                                                 |
\*---------------------------------------------------------------------------*/
FoamFile
{
    version     2.0;
    format      ascii;
    class       volVectorField;
    location    "1";
    object      U;
}
// * * * * * * * * * * * * * * * * * * * * * * * * * * * * * * * * * * * * * //

dimensions      [0 1 -1 0 0 0 0];


internalField   nonuniform List<vector> 
12225
(
(9.71224878896 0.015070091724 0)
(9.44528189132 0.0214217200641 0)
(9.18947763797 0.0253848909361 0)
(8.94598820709 0.0279915516052 0)
(8.71465820938 0.0296726459645 0)
(8.4950457914 0.0307053203602 0)
(8.28664193239 0.0312801357856 0)
(8.08892965941 0.0315307198559 0)
(7.90139211776 0.0315519130617 0)
(7.72351772771 0.0314117462714 0)
(7.55480450305 0.0311594288815 0)
(7.39476264977 0.0308307072244 0)
(7.24291714228 0.030450929625 0)
(7.09882555977 0.0300362437393 0)
(6.96210013469 0.0295921429231 0)
(6.83243532647 0.029105898347 0)
(6.70976937934 0.0285595117695 0)
(6.58938854112 0.0183285224184 0)
(9.99441554602 0.0294865925212 0)
(9.98922334251 0.0424336303773 0)
(9.97440177287 0.0502016472882 0)
(9.9517705851 0.0552483770823 0)
(9.92305726979 0.0585626482463 0)
(9.88959023609 0.0607303482189 0)
(9.85243465504 0.0621278652735 0)
(9.81246827429 0.0630026983446 0)
(9.77041383181 0.0635198291074 0)
(9.72686575614 0.0637905972777 0)
(9.68231331079 0.0638908363506 0)
(9.63716003454 0.0638722438954 0)
(9.59174154284 0.0637680871303 0)
(9.54635438819 0.0635939344711 0)
(9.50129594399 0.0633410019832 0)
(9.45694931474 0.0629509909184 0)
(9.41388474716 0.0622439716171 0)
(9.37282362882 0.0604153910742 0)
(10.0060592998 0.0271305032407 0)
(10.0182531507 0.0402332650699 0)
(10.0285697575 0.0479628666682 0)
(10.036520274 0.0530402650545 0)
(10.0423286171 0.0565210239977 0)
(10.0462082101 0.0589822141725 0)
(10.0483424609 0.0607763830782 0)
(10.0489057412 0.0621257550791 0)
(10.0480598271 0.0631725358184 0)
(10.0459528346 0.0640089405541 0)
(10.0427197377 0.0646952587016 0)
(10.0384838217 0.0652704488671 0)
(10.0333590516 0.065756240475 0)
(10.0274579344 0.0661547852675 0)
(10.0209031214 0.066435709189 0)
(10.0138436911 0.0664961166422 0)
(10.0064730436 0.0660040605074 0)
(9.99753875299 0.0638526205463 0)
(10.005182089 0.0238092512595 0)
(10.0165287519 0.0370365460946 0)
(10.0278251326 0.0450828130878 0)
(10.0380667792 0.0504821166063 0)
(10.0472679872 0.0542964500064 0)
(10.0555469492 0.0570933227812 0)
(10.0630022793 0.0592161545184 0)
(10.0697196751 0.06088213649 0)
(10.0757690756 0.0622317152369 0)
(10.0812059564 0.0633574131344 0)
(10.0860735062 0.0643209505135 0)
(10.0904050365 0.0651630584072 0)
(10.0942257959 0.0659070486495 0)
(10.0975544002 0.0665561517617 0)
(10.100398594 0.0670814376922 0)
(10.1027293544 0.067389739893 0)
(10.1043749278 0.0672485281498 0)
(10.1042135007 0.0662144840053 0)
(10.0040719324 0.0209559295007 0)
(10.0137538796 0.0339948053916 0)
(10.0241827284 0.0422182470422 0)
(10.0340485797 0.0477921707161 0)
(10.0431694906 0.0517536754506 0)
(10.0515952167 0.054668688536 0)
(10.0593954352 0.0568827455507 0)
(10.0666400212 0.0586177121778 0)
(10.0733882278 0.060019859739 0)
(10.0796866163 0.0611876374296 0)
(10.0855693554 0.0621883164666 0)
(10.0910592312 0.0630676534273 0)
(10.0961679209 0.0638540075298 0)
(10.1008936061 0.0645574448918 0)
(10.1052099607 0.0651633162092 0)
(10.1090317299 0.0656200227118 0)
(10.11212266 0.0658370469085 0)
(10.1138228918 0.0657986835756 0)
(10.0031868959 0.0185033576664 0)
(10.0114038403 0.0310806996372 0)
(10.0208678706 0.0393432360102 0)
(10.0301529036 0.0450252794326 0)
(10.0389055516 0.0490960812769 0)
(10.0470938301 0.0521093265312 0)
(10.0547467687 0.0544084395695 0)
(10.0619111756 0.0562169263212 0)
(10.0686322778 0.0576842997955 0)
(10.0749477774 0.0589127680909 0)
(10.0808858801 0.059973497094 0)
(10.0864645603 0.0609163835872 0)
(10.0916902515 0.0617751457398 0)
(10.0965534956 0.0625690396708 0)
(10.1010169521 0.0633030450366 0)
(10.10498812 0.0639722786645 0)
(10.108268635 0.0645944907553 0)
(10.1105584654 0.0653367356931 0)
(10.0024947533 0.0163794202958 0)
(10.0094692592 0.0283109049131 0)
(10.0179981668 0.0364848907118 0)
(10.0266755788 0.0422121169361 0)
(10.0350243787 0.0463572746102 0)
(10.0429354818 0.0494470251377 0)
(10.0503952136 0.0518163358019 0)
(10.057424863 0.0536868270206 0)
(10.0640534582 0.0552090685628 0)
(10.0703081281 0.0564877405429 0)
(10.0762100077 0.0575973073856 0)
(10.0817720104 0.0585919059884 0)
(10.0869964555 0.0595114508669 0)
(10.0918704172 0.0603858792948 0)
(10.0963561713 0.0612405217931 0)
(10.1003754749 0.062109484732 0)
(10.1037908112 0.0630740357391 0)
(10.106545692 0.0643461115656 0)
(10.0019544268 0.0145250866475 0)
(10.0078839964 0.0256940022526 0)
(10.0155327981 0.0336610239435 0)
(10.0235976917 0.0393643547992 0)
(10.0315266158 0.043542525653 0)
(10.0391450148 0.0466819188293 0)
(10.0463983944 0.0491030148147 0)
(10.0532825431 0.0510224212586 0)
(10.059809942 0.0525899779648 0)
(10.0659968557 0.0539117960557 0)
(10.0718573258 0.055065114507 0)
(10.0773997488 0.0561081683909 0)
(10.082624005 0.0570871237424 0)
(10.087517606 0.0580421595742 0)
(10.0920499207 0.0590156830283 0)
(10.0961667054 0.060067791369 0)
(10.0997883518 0.0613068705048 0)
(10.103029517 0.0629304269468 0)
(10.0015323481 0.0128908203694 0)
(10.0065883874 0.023229999429 0)
(10.0134262159 0.030885772316 0)
(10.0208873712 0.036493449427 0)
(10.0283875531 0.0406585372832 0)
(10.0357017227 0.0438166949113 0)
(10.0427386531 0.0462679868403 0)
(10.0494697083 0.0482206341798 0)
(10.05589112 0.049821642165 0)
(10.0620084675 0.0511771509695 0)
(10.0678290595 0.0523662061324 0)
(10.0733576109 0.0534503707211 0)
(10.0785933257 0.0544810911858 0)
(10.0835273162 0.0555066394499 0)
(10.0881403895 0.056580901268 0)
(10.0924043265 0.057776651739 0)
(10.0962858803 0.0592049753444 0)
(10.1000234357 0.0610279352917 0)
(10.00120188 0.0114357882848 0)
(10.0055313932 0.0209127891981 0)
(10.0116353717 0.028168968577 0)
(10.0185138438 0.033608800298 0)
(10.0255839041 0.0377100622208 0)
(10.0325861653 0.0408512546654 0)
(10.0393984328 0.0433068739128 0)
(10.0459696793 0.04527342019 0)
(10.0522807337 0.0468927973836 0)
(10.058326997 0.0482695578472 0)
(10.0641095728 0.049483240351 0)
(10.0696303502 0.0505974751237 0)
(10.0748892767 0.0516672322362 0)
(10.0798829903 0.052745704517 0)
(10.0846050969 0.0538920452656 0)
(10.0890506891 0.0551807759293 0)
(10.0932193411 0.0567116025055 0)
(10.0974411825 0.0586072929374 0)
(10.0009411961 0.0101306641588 0)
(10.0046687922 0.0187409635828 0)
(10.0101186714 0.0255293481265 0)
(10.0164457191 0.0307339552547 0)
(10.0230920015 0.0347185626753 0)
(10.0297791772 0.0378026411731 0)
(10.0363609191 0.0402315608167 0)
(10.0427667153 0.0421872711971 0)
(10.0489633303 0.0438044617947 0)
(10.0549367149 0.0451843961968 0)
(10.060682384 0.0464056037434 0)
(10.0662001597 0.0475321109896 0)
(10.0714916305 0.0486201321439 0)
(10.0765595831 0.0497241367569 0)
(10.0814094465 0.0509028241805 0)
(10.0860544621 0.0522246710436 0)
(10.0905148423 0.053771357761 0)
(10.0951881504 0.0556293532426 0)
(10.0007488876 0.00902796381505 0)
(10.0040204317 0.0168455176596 0)
(10.0089415531 0.0231578983999 0)
(10.0147979269 0.028094838972 0)
(10.0210677532 0.0319296182572 0)
(10.0274676594 0.0349282230865 0)
(10.0338358272 0.0373070338956 0)
(10.0400870011 0.0392323375688 0)
(10.0461764949 0.0408302921437 0)
(10.0520824314 0.0421975398441 0)
(10.057795861 0.0434101820557 0)
(10.0633151863 0.0445309323907 0)
(10.0686436647 0.0456150329781 0)
(10.0737891011 0.0467152373636 0)
(10.0787654261 0.0478859715033 0)
(10.0835970856 0.0491862023523 0)
(10.0883137171 0.0506794442564 0)
(10.0933601955 0.0524245793227 0)
(10.0005934152 0.0080163443102 0)
(10.0034815239 0.0150538649182 0)
(10.0079370207 0.020850005176 0)
(10.0133599765 0.0254659958906 0)
(10.0192711109 0.0291027657259 0)
(10.0253903301 0.0319767633997 0)
(10.0315459568 0.0342743647847 0)
(10.0376411142 0.036144121343 0)
(10.0436214914 0.0377015873634 0)
(10.0494583628 0.0390369102588 0)
(10.0551386815 0.0402219122752 0)
(10.0606594722 0.0413161522645 0)
(10.0660252565 0.0423717273446 0)
(10.0712476397 0.0434371647556 0)
(10.0763464684 0.0445600345395 0)
(10.0813529714 0.0457880468198 0)
(10.0863010211 0.0471676556215 0)
(10.0916717306 0.0487362022246 0)
(10.0004518169 0.00693647850848 0)
(10.0029822257 0.0131000225735 0)
(10.0069845894 0.0182751598014 0)
(10.011968063 0.0224757137932 0)
(10.0175035436 0.0258382245277 0)
(10.0233224408 0.0285285357114 0)
(10.0292480295 0.0306991167992 0)
(10.0351738785 0.0324767233103 0)
(10.0410366444 0.0339628741931 0)
(10.0468007238 0.0352382661797 0)
(10.0524487748 0.0363679682812 0)
(10.0579760153 0.0374058477737 0)
(10.0633874199 0.0383983347181 0)
(10.0686969228 0.0393868924433 0)
(10.0739276615 0.0404095649417 0)
(10.0791135552 0.041500751944 0)
(10.0842872065 0.0426895463023 0)
(10.0899563828 0.0439932263894 0)
(10.0003271446 0.00579457894986 0)
(10.0025376335 0.01099390046 0)
(10.0061174337 0.0154367440449 0)
(10.0106734459 0.019110272015 0)
(10.0158299062 0.0220991712498 0)
(10.0213369849 0.0245218665399 0)
(10.0270185059 0.0264952819523 0)
(10.0327617263 0.0281212175003 0)
(10.0384957817 0.0294836929575 0)
(10.0441787094 0.0306507910633 0)
(10.0497886657 0.0316776896892 0)
(10.0553182908 0.0326096967951 0)
(10.0607715748 0.033484596202 0)
(10.0661623579 0.0343342410509 0)
(10.0715134474 0.0351850118437 0)
(10.0768566436 0.0360574451146 0)
(10.0822181268 0.0369646008723 0)
(10.0881219716 0.0379080464757 0)
(10.0002231813 0.00458030020076 0)
(10.0021631748 0.00871829353077 0)
(10.0053722141 0.01230821473 0)
(10.0095380694 0.0153280272158 0)
(10.0143356846 0.0178246696445 0)
(10.0195382239 0.0198751523889 0)
(10.0249749864 0.0215611885187 0)
(10.0305304912 0.0229572430065 0)
(10.0361284062 0.0241265161769 0)
(10.041721137 0.0251209340682 0)
(10.0472821203 0.0259824048019 0)
(10.0528002914 0.0267445523128 0)
(10.0582765549 0.0274338780911 0)
(10.0637215691 0.0280706417359 0)
(10.0691538515 0.028668912672 0)
(10.0745986643 0.0292362866092 0)
(10.0800719186 0.0297730343675 0)
(10.0861025059 0.0302699865595 0)
(10.0001434878 0.00327006506109 0)
(10.001874417 0.0062334242652 0)
(10.0047877169 0.0088369958576 0)
(10.0086312623 0.01106187362 0)
(10.0131217274 0.0129300386852 0)
(10.018054715 0.0144841732712 0)
(10.0232675665 0.0157726534936 0)
(10.028644906 0.0168412478324 0)
(10.0341068333 0.0177295960158 0)
(10.0396009708 0.0184702038062 0)
(10.0450957475 0.0190887585738 0)
(10.0505750688 0.0196045665988 0)
(10.0560345204 0.020031224844 0)
(10.0614786499 0.0203767662312 0)
(10.0669184134 0.0206439315771 0)
(10.0723695347 0.0208299067397 0)
(10.0778359696 0.0209264514725 0)
(10.0838388904 0.0209190286564 0)
(10.0000927334 0.00181656495197 0)
(10.0016920223 0.00345676461208 0)
(10.0044136661 0.00491683493976 0)
(10.0080414116 0.00618806851407 0)
(10.0123181496 0.00727616585458 0)
(10.0170553302 0.0081950160859 0)
(10.0220970387 0.00896142943153 0)
(10.0273289429 0.0095917136854 0)
(10.0326688554 0.0100998676242 0)
(10.0380603728 0.0104966819612 0)
(10.0434668771 0.0107894785869 0)
(10.0488664603 0.0109819695546 0)
(10.0542480426 0.0110743506451 0)
(10.0596085197 0.0110632462346 0)
(10.0649500184 0.0109418725813 0)
(10.0702782905 0.0107000661455 0)
(10.0755866803 0.0103246057967 0)
(10.0813773798 0.0097993418662 0)
(10.0000834559 0.000119657382703 0)
(10.0016616571 0.000210624388828 0)
(10.0043471398 0.000320456438204 0)
(10.0079272526 0.000453249149028 0)
(10.0121472086 0.000599504068609 0)
(10.0168207021 0.000743602104689 0)
(10.0217929006 0.00086892619557 0)
(10.0269493687 0.000959891955879 0)
(10.0322064332 0.00100267999592 0)
(10.0375049123 0.00098462467032 0)
(10.0428041696 0.000893901203552 0)
(10.048077143 0.000718624528473 0)
(10.0533065067 0.000446693985863 0)
(10.0584819867 6.51658687482e-05 0)
(10.0635977765 -0.000439543512611 0)
(10.0686512125 -0.00108197001034 0)
(10.0736278842 -0.00187712724757 0)
(10.0789977184 -0.00284031580479 0)
(10.0001399798 -0.00154617048337 0)
(10.0018599045 -0.00296166000446 0)
(10.0047384886 -0.00414608574517 0)
(10.0085191241 -0.00508716920194 0)
(10.0129166768 -0.00581570976884 0)
(10.0177291973 -0.00638045419891 0)
(10.0227963517 -0.00683248999038 0)
(10.0280034672 -0.00721789156457 0)
(10.0332683503 -0.00757606163174 0)
(10.0385332041 -0.00793975179244 0)
(10.0437577474 -0.00833672858237 0)
(10.0489141249 -0.00879062664403 0)
(10.0539830441 -0.00932255038413 0)
(10.0589514408 -0.00995132403909 0)
(10.0638100959 -0.0106945767582 0)
(10.0685526349 -0.0115683801722 0)
(10.0731616014 -0.0125879513451 0)
(10.0780783535 -0.0137665597714 0)
(10.0002326063 -0.00301810108397 0)
(10.0021939728 -0.00572830532923 0)
(10.0053978224 -0.0079767308198 0)
(10.0095129387 -0.009758727396 0)
(10.0142076535 -0.0111417748606 0)
(10.0192596547 -0.0122157306804 0)
(10.0245045762 -0.0130671529781 0)
(10.0298308327 -0.0137698762042 0)
(10.0351616225 -0.0143840168128 0)
(10.0404440958 -0.014957540599 0)
(10.045641799 -0.0155291050171 0)
(10.0507291489 -0.0161300568615 0)
(10.0556880504 -0.0167867313802 0)
(10.0605055871 -0.0175213566022 0)
(10.0651723345 -0.0183534929606 0)
(10.0696814802 -0.0193000058418 0)
(10.0740161596 -0.0203758171645 0)
(10.0785989021 -0.0215929700759 0)
(10.0003752412 -0.00451022533409 0)
(10.0027033619 -0.00847372008651 0)
(10.0063797482 -0.0116825535158 0)
(10.0109595993 -0.0141713794639 0)
(10.0160529048 -0.0160713167474 0)
(10.021420046 -0.0175271460469 0)
(10.026899293 -0.0186650222637 0)
(10.0323885675 -0.0195860386238 0)
(10.0378212185 -0.020368377192 0)
(10.0431530333 -0.0210722831438 0)
(10.048354045 -0.021744158601 0)
(10.0534031771 -0.0224206989151 0)
(10.0582851359 -0.0231311013575 0)
(10.0629885872 -0.0238998313249 0)
(10.0675048918 -0.0247471968939 0)
(10.0718277955 -0.0256911732421 0)
(10.0759415326 -0.0267467405973 0)
(10.0802536217 -0.0279264315052 0)
(10.0005847155 -0.00608692645633 0)
(10.0034298632 -0.0112809944126 0)
(10.0077292636 -0.0153409476386 0)
(10.0128836098 -0.0183976534355 0)
(10.0184455373 -0.0206801998685 0)
(10.0241712884 -0.0224002459439 0)
(10.0299134078 -0.0237250953276 0)
(10.0355868464 -0.0247804527012 0)
(10.0411398003 -0.0256594579174 0)
(10.0465396483 -0.0264311208879 0)
(10.0517648319 -0.0271470927212 0)
(10.0568002123 -0.0278466712326 0)
(10.0616341677 -0.0285605173587 0)
(10.0662575977 -0.0293133188109 0)
(10.070662779 -0.030125875266 0)
(10.0748439417 -0.0310163837518 0)
(10.0787863964 -0.0320012725459 0)
(10.0828862845 -0.033094490187 0)
(10.0008873416 -0.00781244274089 0)
(10.0044349332 -0.014206272511 0)
(10.009507591 -0.0189830996935 0)
(10.0153196953 -0.0224588907092 0)
(10.0213877457 -0.0249945233531 0)
(10.0274868395 -0.0268736915066 0)
(10.033497409 -0.028301462504 0)
(10.0393584115 -0.0294236606698 0)
(10.0450363888 -0.0303441464736 0)
(10.050512114 -0.0311374197839 0)
(10.0557736196 -0.0318575947488 0)
(10.060812251 -0.0325444672947 0)
(10.0656206884 -0.0332282389728 0)
(10.0701919469 -0.0339323355774 0)
(10.0745188939 -0.0346764910749 0)
(10.0785949341 -0.0354784180778 0)
(10.0824045163 -0.0363563728749 0)
(10.086332377 -0.0373281627339 0)
(10.0013217905 -0.00975754442613 0)
(10.005798933 -0.0172815558077 0)
(10.0117828064 -0.0226062699437 0)
(10.018300937 -0.0263476819418 0)
(10.0248806062 -0.0290184582231 0)
(10.0313442193 -0.0309685314584 0)
(10.0376122448 -0.0324330678077 0)
(10.0436523713 -0.033572285421 0)
(10.0494513487 -0.0344968317819 0)
(10.0550041271 -0.0352840229681 0)
(10.0603086865 -0.035988471413 0)
(10.0653632598 -0.0366492406082 0)
(10.0701650157 -0.0372947144867 0)
(10.0747094842 -0.0379459946202 0)
(10.0789897611 -0.0386196426187 0)
(10.0829967178 -0.039331181682 0)
(10.086710654 -0.0400995107619 0)
(10.0905045626 -0.0409514890466 0)
(10.0019413936 -0.0120028281525 0)
(10.0076184743 -0.0205112386295 0)
(10.0146213182 -0.0261817004017 0)
(10.0218531192 -0.0300421287418 0)
(10.0289221382 -0.0327476274456 0)
(10.0357242914 -0.0346962122963 0)
(10.0422272593 -0.0361413226221 0)
(10.048428998 -0.0372502130069 0)
(10.0543364277 -0.0381356302179 0)
(10.0599582897 -0.0388747380177 0)
(10.0653021259 -0.039521003129 0)
(10.0703728597 -0.0401116932504 0)
(10.0751724112 -0.0406731897882 0)
(10.0796994391 -0.041223587998 0)
(10.083947862 -0.0417751224623 0)
(10.0879048856 -0.0423375173848 0)
(10.0915391641 -0.0429252974891 0)
(10.0951903566 -0.0435735806704 0)
(10.0028127629 -0.014639264759 0)
(10.0099942621 -0.02386580456 0)
(10.0180650922 -0.0296585483486 0)
(10.0259660366 -0.0335163375505 0)
(10.0334653606 -0.0361990668278 0)
(10.0405474113 -0.0381323638481 0)
(10.0472274383 -0.0395777093223 0)
(10.0535317432 -0.0407024869378 0)
(10.0594853463 -0.0416159626014 0)
(10.0651089233 -0.0423904382465 0)
(10.0704182404 -0.0430741012416 0)
(10.0754240254 -0.0436993652373 0)
(10.0801327338 -0.0442877495581 0)
(10.0845471917 -0.0448521608789 0)
(10.0886646398 -0.0453976336867 0)
(10.0924717838 -0.0459218426346 0)
(10.0959236478 -0.0464209846005 0)
(10.0993171184 -0.0469241577884 0)
(10.0039367945 -0.0177842098625 0)
(10.0127770019 -0.0273284102007 0)
(10.0215923254 -0.0329557583337 0)
(10.0296324769 -0.0365531614593 0)
(10.036881362 -0.0389367080938 0)
(10.0434117319 -0.0405584324955 0)
(10.0492868733 -0.0416971188477 0)
(10.0545662112 -0.042530089059 0)
(10.0593004747 -0.0431713050013 0)
(10.0635317519 -0.0436943043334 0)
(10.0672943809 -0.0441464068477 0)
(10.0706159476 -0.044558105502 0)
(10.0735190912 -0.0449478940501 0)
(10.0760232544 -0.0453249613958 0)
(10.0781443447 -0.0456882891904 0)
(10.0798895736 -0.0460212894312 0)
(10.0812212005 -0.0462797228532 0)
(10.0823128498 -0.0463986350276 0)
(10.0012276705 -0.0210431641201 0)
(10.005673533 -0.0311839237014 0)
(10.0065854176 -0.0374013008025 0)
(10.0043048549 -0.0415253927616 0)
(9.99942992736 -0.0443084849726 0)
(9.9924388355 -0.0461963410611 0)
(9.98371471019 -0.0474793258533 0)
(9.97357855544 -0.0483513744881 0)
(9.96229717438 -0.0489435231805 0)
(9.95009174293 -0.0493449829771 0)
(9.9371450985 -0.0496170528675 0)
(9.92360851869 -0.0498019338767 0)
(9.90960833294 -0.049928086939 0)
(9.8952525356 -0.0500133291907 0)
(9.88063832791 -0.0500646021539 0)
(9.86586450513 -0.0500706747294 0)
(9.85103299008 -0.0499738112615 0)
(9.83650345969 -0.0495081024858 0)
(9.83266717983 -0.0112691281382 0)
(9.67872813406 -0.0165472214548 0)
(9.53027714434 -0.0200034783588 0)
(9.38804452827 -0.0224299830066 0)
(9.25204300527 -0.0241479400648 0)
(9.12210924278 -0.025361121232 0)
(8.99802712917 -0.0262101764227 0)
(8.87956847329 -0.0267944261226 0)
(8.76649775056 -0.0271848823731 0)
(8.65857618252 -0.0274328234405 0)
(8.55556499033 -0.0275757430275 0)
(8.45722794506 -0.0276412137877 0)
(8.36333504757 -0.0276493081829 0)
(8.27366679207 -0.0276142784423 0)
(8.18801921922 -0.027544746626 0)
(8.10621691048 -0.0274401825933 0)
(8.02818092861 -0.0272720472746 0)
(7.95340118125 -0.026826289966 0)
(-0.064609496445 0.00320601456948 1.48836428661e-19)
(-0.0169973289318 -0.0222148871063 0)
(0.00449277116494 -0.00465218379575 0)
(-0.179392774757 0.137197575714 0)
(-0.373541539991 0.18981467079 0)
(-0.528941131189 0.193024718072 -4.7724451108e-20)
(-0.682390207606 0.189185782448 0)
(-0.835239674088 0.183953226963 0)
(-0.986923043601 0.178364893277 2.60957906868e-20)
(-1.13713067684 0.17274352726 0)
(-1.28565717587 0.167208176295 -2.15865401638e-20)
(-1.43235027091 0.161802772699 0)
(-1.57709224101 0.156541572903 -1.93947915423e-20)
(-1.71978905219 0.151427087168 -1.8761207766e-20)
(-1.86036532095 0.146457005243 0)
(-1.99875975447 0.141626996117 1.80462088338e-20)
(-2.13492238278 0.136931521169 1.78802203361e-20)
(-2.26881128285 0.132364178118 1.7804478923e-20)
(-2.40039019367 0.127917642677 0)
(-2.52962568467 0.123583758318 0)
(-2.65648496123 0.11935348762 0)
(-2.78093338499 0.115217051823 0)
(-2.90293266744 0.111163937603 0)
(-3.02243881267 0.10718309083 0)
(-3.13940063797 0.103262923108 -1.86217298608e-20)
(-3.25375802328 0.0993914587863 -1.88339765163e-20)
(-3.36544075689 0.0955562989768 0)
(-3.47436705567 0.0917447395265 1.92816263413e-20)
(-3.58044240539 0.0879436352648 1.95104479444e-20)
(-3.6835582437 0.0841395091489 1.97386132043e-20)
(-3.78359078059 0.0803184408654 0)
(-3.88039968561 0.0764661907107 0)
(-3.97382654156 0.0725680152732 -2.03912475003e-20)
(-4.06369350806 0.0686086930626 0)
(-4.14980264635 0.0645721538882 0)
(-4.23193332706 0.0604417985981 -2.0937787888e-20)
(-4.30984123224 0.0562003203515 0)
(-4.38325820288 0.0518292985933 0)
(-4.45188401927 0.0473087759369 0)
(-4.51539101949 0.0426180906297 0)
(-4.57342014233 0.0377348818537 0)
(-4.62558616102 0.0326372415684 4.27420911059e-20)
(-4.67146071526 0.02730474458 0)
(-4.71058555613 0.0217165802667 0)
(-4.74247678778 0.0158472350524 4.20749338266e-20)
(-4.76660717432 0.00966939284578 4.16189477738e-20)
(-4.78243820648 0.00315449483339 0)
(-4.78944624777 -0.00371435405886 0)
(-4.78699989356 -0.0109382128394 3.93665313603e-20)
(-4.77454095062 -0.0185097536439 0)
(-4.75161856627 -0.0263908706422 -3.68903470997e-20)
(-4.71800630372 -0.0344755765171 0)
(-4.67351003895 -0.0426460428054 3.35283018487e-20)
(-4.61811648445 -0.0507748123205 0)
(-4.55197977212 -0.0587262331169 2.92884036744e-20)
(-4.47542641188 -0.0663612392198 2.68333994477e-20)
(-4.38895306557 -0.0735448096267 0)
(-4.29321548543 -0.0801530442097 0)
(-4.18900927978 -0.0860803334925 0)
(-4.07724425458 -0.0912442543207 1.48424988727e-20)
(-3.95891404372 -0.0955893970484 0)
(-3.83506352019 -0.0990880361673 0)
(-3.70675624489 -0.101739719528 0)
(-3.5750443571 -0.103568299047 0)
(-3.44094262969 -0.104619705713 0)
(-3.30540470106 -0.104957042941 0)
(-3.16930759179 -0.104657286032 0)
(-3.03343772412 -0.10380602285 1.84314243403e-20)
(-2.89847821242 -0.102496265375 0)
(-2.76500841386 -0.100822965033 2.8597635151e-20)
(-2.63350260211 -0.0988785359001 3.39911703943e-20)
(-2.50433983232 -0.0967484675952 0)
(-2.37779729501 -0.094515379933 -4.54786787181e-20)
(-2.25405409226 -0.0922508435758 0)
(-2.13323086866 -0.0900070622463 5.80512667072e-20)
(-2.01537470384 -0.0878217826705 0)
(-1.90048686623 -0.0857219541812 -7.19577083113e-20)
(-1.78857374284 -0.0837320244226 7.95165872868e-20)
(-1.67958213416 -0.0819023057269 0)
(-1.57340320686 -0.0803015938464 0)
(-1.4697306513 -0.0789763179594 0)
(-1.36840642178 -0.0780043208341 0)
(-1.26934585638 -0.0774616566118 1.25815387809e-19)
(-1.1723325891 -0.0774841077146 -1.37464587692e-19)
(-1.07695387329 -0.0781424608185 3.00754373463e-19)
(-0.982290588127 -0.07907429347 3.29160729478e-19)
(-0.888205955551 -0.0795747227365 3.6023214747e-19)
(-0.797111423971 -0.0799453989122 0)
(-0.712419193508 -0.0813424868047 0)
(-0.625921130188 -0.083844822067 0)
(-0.52937678004 -0.0878967041391 5.33491259927e-19)
(-0.43375008914 -0.092866180986 0)
(-0.347456911813 -0.0974671441766 0)
(-0.257824100826 -0.10179513577 7.50949302033e-19)
(-0.158507036815 -0.10779246024 0)
(-0.0530243940426 -0.116280114726 -9.47735566643e-19)
(0.0540586573802 -0.129523541393 0)
(0.168410069111 -0.144302787377 1.32592278178e-18)
(0.285839408505 -0.158778590252 0)
(0.386880721981 -0.170830329919 0)
(0.423570822465 -0.163297192625 0)
(0.458540592309 -0.145130406891 1.15026786105e-18)
(0.515630682215 -0.126716487499 0)
(0.586804274062 -0.111189355033 7.53129978705e-19)
(0.664965634915 -0.0984877794862 6.52658712407e-19)
(0.746879796523 -0.0881435356698 0)
(0.830779716524 -0.0796850440365 0)
(0.915596913403 -0.0727049148405 0)
(1.00065210745 -0.066873379454 4.41929650272e-19)
(1.0854853493 -0.0619257375107 0)
(1.16977328364 -0.0576563323017 0)
(1.25326832561 -0.0539031793128 3.63150409296e-19)
(1.33577320492 -0.0505430672501 3.43790033251e-19)
(1.41711530259 -0.047479559547 0)
(1.49714101476 -0.0446407317248 -3.11879867657e-19)
(1.57570374558 -0.0419704480946 -2.98615355208e-19)
(1.65266523524 -0.0394280068426 2.86791743284e-19)
(1.72788899359 -0.0369819123461 0)
(1.8012442835 -0.0346104136235 0)
(1.87260313431 -0.0322969914817 0)
(1.94184401998 -0.030031194776 -2.50459719431e-19)
(2.00884860557 -0.0278056296143 0)
(2.07350383233 -0.02561721667 -2.37199760129e-19)
(2.13570013484 -0.0234644449354 0)
(2.19533662972 -0.0213490314354 0)
(2.25232043318 -0.019272999916 0)
(2.30657164769 -0.0172406774824 2.17480899778e-19)
(2.35802119127 -0.015256174416 2.13682459117e-19)
(2.40661479273 -0.0133253658695 0)
(2.45231071222 -0.0114536572742 0)
(2.49508361363 -0.00964779567664 0)
(2.53492257536 -0.00791391159413 0)
(2.57183473463 -0.00625912612422 0)
(2.6058434051 -0.00468986371158 0)
(2.63699126039 -0.00321322439046 3.9225988292e-19)
(2.66533841436 -0.00183556230673 0)
(2.69096492439 -0.000563592541046 0)
(2.71396869546 0.000596735030133 0)
(2.73446704342 0.00163948439185 -3.82491214913e-19)
(2.75259449497 0.0025596391037 -3.80858069546e-19)
(2.76850275611 0.00335276326526 3.79485189182e-19)
(2.78235802399 0.00401545510809 3.78342419446e-19)
(2.79433944924 0.00454537050466 0)
(2.80463398597 0.0049418894113 0)
(2.81343918192 0.00520633080118 0)
(2.82095604925 0.0053445816702 3.75495808402e-19)
(2.82735210055 0.00536784010076 0)
(2.8328970635 0.00529940403015 0)
(2.83769282294 0.00517459473622 -3.74427045608e-19)
(2.8417211726 0.00502019892717 0)
(2.8449696546 0.00485296109776 -3.74145218489e-19)
(2.84742796834 0.00468502460563 0)
(2.84908845024 0.00452540101629 -3.74285139271e-19)
(2.84994534561 0.00438080604115 0)
(2.84999379124 0.00425595136865 0)
(2.84922943528 0.00415311021459 0)
(2.84765039941 0.00407162282633 0)
(2.84525735779 0.00401001588663 0)
(2.84205045726 0.00396775026041 0)
(2.83802662766 0.00394442357145 0)
(2.83317891042 0.00393963623272 0)
(2.82749561193 0.00395342744085 -3.80253678256e-19)
(2.82095849492 0.0039865498055 0)
(2.81354052531 0.00404044212628 0)
(2.80520338024 0.00411735980843 -3.84409877841e-19)
(2.79589433897 0.0042205189642 0)
(2.7855422518 0.0043544130607 0)
(2.7740521492 0.00452515978916 -3.90080314098e-19)
(2.76129790414 0.00474114758575 0)
(2.7471120507 0.00501380587791 0)
(2.73127164179 0.005358890807 -3.98051743134e-19)
(2.71347823399 0.00579822097157 4.01484944551e-19)
(2.69332899126 0.00636255812564 -4.05471870978e-19)
(2.67027396461 0.00709599279814 0)
(2.64355088961 0.00806352052585 0)
(2.61208155549 0.0093641388412 -8.45388733071e-19)
(2.57430047695 0.0111560059142 0)
(2.52781026945 0.0137156854546 8.84993254925e-19)
(2.46968733307 0.0175159474703 9.14996999431e-19)
(2.36135052334 0.025918841701 0)
(-0.199683986544 0.126893976284 -3.03453554376e-19)
(-0.331687089191 0.247750375842 0)
(-0.41319376935 0.288383632816 7.88766418081e-20)
(-0.519933750759 0.329564022424 -6.00083176551e-20)
(-0.650498757712 0.359894976797 -5.15351575321e-20)
(-0.783255617797 0.375425599981 2.26597007901e-20)
(-0.920067512582 0.383939154956 4.19337757749e-20)
(-1.0590757368 0.388057396635 0)
(-1.19903205033 0.389108983712 -1.78637925562e-20)
(-1.33906407627 0.387943044931 3.48226285368e-20)
(-1.47853929884 0.385139302867 5.00006590224e-20)
(-1.61698949426 0.381108524499 -3.27227816517e-20)
(-1.75406474006 0.376150169323 4.78817051729e-20)
(-1.88950173943 0.370487465468 1.55770268165e-20)
(-2.02310205321 0.364289254831 0)
(-2.15471538254 0.357684226296 -1.55376288983e-20)
(-2.28422729194 0.350770307915 -1.56165864652e-20)
(-2.411549212 0.343621319611 -1.57449250314e-20)
(-2.53661085635 0.336291674108 3.23495825623e-20)
(-2.65935381726 0.328820060821 0)
(-2.77972664445 0.321232205673 3.31618854707e-20)
(-2.89768056837 0.313543206809 0)
(-3.01316620782 0.305759326475 -3.41527006342e-20)
(-3.12613069219 0.297879609957 0)
(-3.23651544907 0.289897052705 5.26764400663e-20)
(-3.34425405486 0.281799693674 -1.81189279798e-20)
(-3.44927079921 0.273571314959 -3.64212046767e-20)
(-3.55147910199 0.265192117228 -5.53264329563e-20)
(-3.650780019 0.256639017168 -1.86115841415e-20)
(-3.74706122679 0.247886108868 -1.89072915657e-20)
(-3.84019580034 0.2389047703 0)
(-3.93004103535 0.229663921077 -3.93397067142e-20)
(-4.01643623364 0.220129907657 1.97524896087e-20)
(-4.09920150796 0.210266295658 0)
(-4.17813747041 0.200033499817 0)
(-4.25302067153 0.189389352165 2.0484112777e-20)
(-4.32360674373 0.178288752721 0)
(-4.38962369625 0.166682658767 0)
(-4.45076415665 0.154519017099 0)
(-4.50669453331 0.141741200224 0)
(-4.55706005512 0.128289100122 0)
(-4.601461523 0.114103548306 4.35850793296e-20)
(-4.6394505719 0.0991292072963 8.62329604892e-20)
(-4.67054773617 0.0833090855471 0)
(-4.69422957105 0.0665879725222 4.34718837108e-20)
(-4.70992127629 0.0488904936115 -4.19674102801e-20)
(-4.71718321448 0.0301589566342 0)
(-4.7153282375 0.0103642913474 0)
(-4.70363529468 -0.0104705091968 -1.21766479979e-19)
(-4.68147011315 -0.0322952695774 -7.95488505511e-20)
(-4.64878446581 -0.0548783444489 3.76110584757e-20)
(-4.60541263695 -0.0779062160357 7.35567279952e-20)
(-4.55115205553 -0.101074822088 3.57333120201e-20)
(-4.48599345564 -0.124038719055 0)
(-4.41010215932 -0.146423807161 -9.09528959926e-20)
(-4.32382886499 -0.167845521786 -2.72981177293e-20)
(-4.22770751064 -0.187931382289 0)
(-4.12244165971 -0.206342765855 4.45728144722e-20)
(-4.00888088202 -0.222794727685 -3.81618319816e-20)
(-3.88799048848 -0.237069924092 -1.51009516232e-20)
(-3.76081406973 -0.249027476986 0)
(-3.62844001842 -0.258604468485 0)
(-3.49195995162 -0.265813123908 0)
(-3.35244498725 -0.270731843774 2.95327103331e-23)
(-3.21090909904 -0.273495073901 0)
(-3.06829380324 -0.274282959267 1.79430191485e-20)
(-2.92545289289 -0.273307605205 0)
(-2.78313245268 -0.270804193614 1.85478745723e-20)
(-2.64197454464 -0.267021577928 0)
(-2.50251396947 -0.262209863621 2.92987687874e-20)