/*--------------------------------*- C++ -*----------------------------------*\
| =========                 |                                                 |
| \\      /  F ield         | OpenFOAM: The Open Source CFD Toolbox           |
|  \\    /   O peration     | Version:  v1806                                 |
|   \\  /    A nd           | Web:      www.OpenFOAM.com                      |
|    \\/     M anipulation  |                                                 |
\*---------------------------------------------------------------------------*/
FoamFile
{
    version     2.0;
    format      ascii;
    class       volVectorField;
    location    "1";
    object      Ua;
}
// * * * * * * * * * * * * * * * * * * * * * * * * * * * * * * * * * * * * * //

dimensions      [0 1 -1 0 0 0 0];


internalField   nonuniform List<vector> 
12225
(
(1.05634523212 28.8941891233 0)
(1.01893363953 20.1806945698 0)
(0.982075289699 18.7892671978 0)
(1.00400117909 18.3408018067 0)
(0.896029578499 17.2896370777 0)
(0.852539062645 16.2174534016 0)
(0.786732827874 15.0717106603 0)
(0.732681087461 13.8857636882 0)
(0.69937329104 12.6965142981 0)
(0.695759555259 11.5381807006 0)
(0.733158945268 10.4404239103 0)
(0.796679432383 9.41682267998 0)
(0.823298641903 8.22200302343 0)
(0.856449846788 6.95381504079 0)
(0.979074525197 5.61975531724 0)
(1.08332487368 4.05433858676 0)
(1.17330323884 2.14746635519 0)
(1.21442670359 -0.187819556152 0)
(1.04096254705 -9.2191900757 0)
(1.23652569456 -5.82707232418 0)
(1.00592714134 -5.76070851375 0)
(1.06487561479 -5.59404071053 0)
(1.00056683994 -5.23910423256 0)
(0.985235408807 -4.77737590705 0)
(0.951934474173 -4.24512754438 0)
(0.921855614093 -3.67327831796 0)
(0.89391573457 -3.10503743213 0)
(0.869684510072 -2.58381356808 0)
(0.8584589425 -2.14137035764 0)
(0.861628264243 -1.79457754238 0)
(0.844303156462 -1.54923580707 0)
(0.823056269639 -1.29187829357 0)
(0.848345982972 -1.17471985452 0)
(0.865725381499 -1.16584260265 0)
(0.876422947769 -1.27649470597 0)
(0.82153064591 -1.53373640662 0)
(0.912771342734 0.983942353079 0)
(1.18489682706 0.776644727561 0)
(0.985239311973 0.808180510099 0)
(1.04248217763 0.872277988814 0)
(0.971248898804 0.861349653529 0)
(0.95545303738 0.820999883852 0)
(0.923788794378 0.754141453533 0)
(0.896286422704 0.666345130525 0)
(0.871207147296 0.562432762735 0)
(0.848875990019 0.445909136993 0)
(0.833475872868 0.317805203999 0)
(0.82604304984 0.169380467538 0)
(0.813230227622 -0.00325615826215 0)
(0.805255510213 -0.141246938777 0)
(0.821445676833 -0.311881231035 0)
(0.827962626052 -0.500208849651 0)
(0.817980122797 -0.718359101137 0)
(0.737650433796 -0.963649389197 0)
(0.828377232779 -0.332707551864 0)
(1.18121218202 -0.144211660685 0)
(0.972456892672 -0.146426439943 0)
(1.04689005513 -0.0902148180695 0)
(0.986093717669 -0.0495169769171 0)
(0.983482196786 0.00067633891756 0)
(0.964387872394 0.0534518130601 0)
(0.947521300594 0.103020002673 0)
(0.930741865752 0.142957098187 0)
(0.914626341356 0.166537781251 0)
(0.901282528529 0.168997717062 0)
(0.891689313012 0.142095744165 0)
(0.881611765335 0.0817886059886 0)
(0.876934210479 0.00777422431099 0)
(0.882886490716 -0.115944558244 0)
(0.878709968784 -0.275514545691 0)
(0.853664152349 -0.471867661152 0)
(0.770939940342 -0.685234907349 0)
(0.775759592783 -0.208087015227 0)
(1.1822894097 -0.0123637926133 0)
(0.967646292077 -0.00782032289188 0)
(1.05171848692 0.0315655673715 0)
(0.996151423829 0.0529339004919 0)
(1.00196740569 0.0763953663026 0)
(0.991509193569 0.0978051559939 0)
(0.983520182834 0.115467694657 0)
(0.975900101591 0.12725966844 0)
(0.968740352389 0.13075824503 0)
(0.962870409306 0.121901041133 0)
(0.958451603972 0.0957290138567 0)
(0.954212026858 0.0480178227923 0)
(0.952602358328 -0.0163760640937 0)
(0.952347814995 -0.11740140776 0)
(0.939393836422 -0.249033637751 0)
(0.902759993919 -0.411640854958 0)
(0.822517639419 -0.584978111452 0)
(0.741400644653 -0.197104413323 0)
(1.18433891089 0.00362891437596 0)
(0.967218446719 0.0103364854332 0)
(1.05837060933 0.039279167967 0)
(1.00669540601 0.0548522809011 0)
(1.01878063493 0.0705586398894 0)
(1.01462543511 0.0832380730349 0)
(1.0132216821 0.0921922151063 0)
(1.01245654525 0.0958397402798 0)
(1.01191214191 0.0918512501636 0)
(1.01181211922 0.0767421856255 0)
(1.01181518586 0.0479837261923 0)
(1.01122464455 0.00178198912819 0)
(1.010356403 -0.061624012688 0)
(1.00542583708 -0.152077838495 0)
(0.985947625722 -0.266317032292 0)
(0.942879437946 -0.401656416235 0)
(0.868203387377 -0.538907683798 0)
(0.720574259611 -0.196254535932 0)
(1.18612212761 0.0108097685932 0)
(0.969110981382 0.0196090183509 0)
(1.06496642804 0.0400004382849 0)
(1.0160504975 0.0511124952061 0)
(1.03241658074 0.0608517695047 0)
(1.03253481279 0.0668097868756 0)
(1.03568195603 0.0690178838909 0)
(1.03955730446 0.0661980707944 0)
(1.04335552431 0.0558198267424 0)
(1.04703511034 0.0359197612202 0)
(1.04989264807 0.00488848765248 0)
(1.05091807756 -0.0405991848368 0)
(1.04935648259 -0.101670609378 0)
(1.04084704419 -0.183038283261 0)
(1.01730738054 -0.282525893406 0)
(0.972502465348 -0.394777739902 0)
(0.904970929881 -0.502893710765 0)
(0.708964556683 -0.201969031179 0)
(1.18667857329 0.0113050417932 0)
(0.971836660416 0.0213890437708 0)
(1.07042469304 0.0351253882767 0)
(1.02349306807 0.0431223811793 0)
(1.04259487865 0.0491631075707 0)
(1.0454423762 0.0511002790533 0)
(1.05154520808 0.0491660805946 0)
(1.05813169834 0.0419004665092 0)
(1.06428674406 0.0271529343398 0)
(1.07007193706 0.00423111106506 0)
(1.07441148324 -0.0280855483496 0)
(1.07585957052 -0.0723695673589 0)
(1.07318621343 -0.129796897917 0)
(1.06210207632 -0.202698015927 0)
(1.03657917442 -0.288937053206 0)
(0.993232632818 -0.381899328123 0)
(0.933668205284 -0.468121455676 0)
(0.703191756518 -0.211749394137 0)
(1.18537968111 0.00813479495794 0)
(0.974226276999 0.017991569863 0)
(1.07401087247 0.0266880313248 0)
(1.02861964706 0.0322546745712 0)
(1.04949653415 0.0362631287134 0)
(1.0540278391 0.0362871444569 0)
(1.06175681939 0.0320600350616 0)
(1.06954971378 0.0219877778879 0)
(1.0767092815 0.00503086990936 0)
(1.08344725481 -0.0190450822739 0)
(1.08830998601 -0.0512530003033 0)
(1.08950429927 -0.0935831711563 0)
(1.08559630619 -0.147101472587 0)
(1.07284486636 -0.212612577599 0)
(1.04711603524 -0.287096301757 0)
(1.00714546466 -0.364074021997 0)
(0.955123157758 -0.434417078285 0)
(0.700415944157 -0.220086286363 0)
(1.18183946678 0.00198969162216 0)
(0.974842985668 0.0076767777827 0)
(1.07467444006 0.0139815205004 0)
(1.03046353208 0.0178766027616 0)
(1.05262109524 0.021264046718 0)
(1.05813684872 0.0211249317914 0)
(1.06660720927 0.0168862341905 0)
(1.07486655506 0.00733959106737 0)
(1.08252358725 -0.00844114727033 0)
(1.08968746625 -0.0313150430216 0)
(1.0945292218 -0.0622604401177 0)
(1.09500779241 -0.102402232092 0)
(1.08983513829 -0.152196990506 0)
(1.07629895957 -0.210911173993 0)
(1.05175004207 -0.275133256867 0)
(1.01573963466 -0.339640491309 0)
(0.970498222599 -0.398568749256 0)
(0.693200109257 -0.229944648375 0)
(1.17731457893 -0.0122591771355 0)
(0.971460060995 -0.0186508034025 0)
(1.07171221552 -0.0107169957492 0)
(1.02785214796 -0.00868774626819 0)
(1.05078122441 -0.00733398298617 0)
(1.05683866964 -0.00898543453863 0)
(1.06613700182 -0.0130119070662 0)
(1.07526005303 -0.0205142797957 0)
(1.0834539701 -0.033564740595 0)
(1.09060574393 -0.0537622334894 0)
(1.09494431754 -0.0816505168062 0)
(1.09459644293 -0.117789573491 0)
(1.08867769373 -0.161650327484 0)
(1.07525588851 -0.21206373998 0)
(1.05246487945 -0.265819534944 0)
(1.02040863734 -0.31925281864 0)
(0.98100153263 -0.368178975898 0)
(0.662689788279 -0.245597351881 0)
(1.17244263859 -0.0217390778164 0)
(0.958547681168 -0.0322717931823 0)
(1.06196410257 -0.0272479132415 0)
(1.01666253954 -0.024493990734 0)
(1.03966982938 -0.0234359965517 0)
(1.04620819211 -0.0262876798938 0)
(1.05641903379 -0.0326318154799 0)
(1.06605059714 -0.042774167549 0)
(1.07429590538 -0.0574605083595 0)
(1.08148658982 -0.0779311434322 0)
(1.08573897563 -0.104677274291 0)
(1.08519442208 -0.137949263603 0)
(1.07910492109 -0.17701665472 0)
(1.06621470777 -0.220128005693 0)
(1.04535483856 -0.265200726647 0)
(1.01682567304 -0.309066953577 0)
(0.982294705938 -0.349376248723 0)
(0.643335703854 -0.247073014761 0)
(1.16475268213 -0.0233694232646 0)
(0.947006283188 -0.0283399929509 0)
(1.05146930676 -0.0278740215501 0)
(1.00651861173 -0.0241749483098 0)
(1.02838831562 -0.0227035713193 0)
(1.03327892923 -0.0248892609324 0)
(1.04201064436 -0.0319752549656 0)
(1.05077139044 -0.0442674159733 0)
(1.0582964289 -0.061383204755 0)
(1.06432793318 -0.0834182889404 0)
(1.06736474776 -0.110686275806 0)
(1.06575068546 -0.142782387246 0)
(1.05941924206 -0.178778335786 0)
(1.04731057917 -0.216865213795 0)
(1.02867165232 -0.25541475157 0)
(1.00395544314 -0.292331932986 0)
(0.974464203401 -0.325611786786 0)
(0.61939715613 -0.244212712236 0)
(1.15515252063 -0.0285564638271 0)
(0.933883424094 -0.032786621611 0)
(1.03920177117 -0.031067716163 0)
(0.994543695987 -0.027528786637 0)
(1.01607251789 -0.0260199983468 0)
(1.0206168958 -0.0269728341407 0)
(1.02832299078 -0.031970781173 0)
(1.03542409877 -0.042295826557 0)
(1.04102963255 -0.0581382971198 0)
(1.04514427121 -0.07910013786 0)
(1.0463311951 -0.104319494194 0)
(1.04322836597 -0.133673788545 0)
(1.03609843982 -0.165568370488 0)
(1.02455061461 -0.199138729032 0)
(1.00791426744 -0.232385158939 0)
(0.9870903145 -0.2643582868 0)
(0.962411511128 -0.292974610337 0)
(0.586881612029 -0.223512182839 0)
(1.14419471655 -0.0309673564404 0)
(0.917367419584 -0.0360269033313 0)
(1.02466411226 -0.0333617979145 0)
(0.980408339775 -0.0303792332088 0)
(1.0017863122 -0.0290717104121 0)
(1.00613639586 -0.0304034510448 0)
(1.01308077642 -0.0355081931543 0)
(1.0188936728 -0.0451515030364 0)
(1.02277866128 -0.0594414346225 0)
(1.02527261661 -0.0777288062914 0)
(1.02480840898 -0.0997096432734 0)
(1.02032642342 -0.124607813038 0)
(1.01276959275 -0.151747792095 0)
(1.00192978261 -0.179604934934 0)
(0.987425159768 -0.207662160111 0)
(0.970111990736 -0.234242164091 0)
(0.9502273078 -0.259036908032 0)
(0.552158649217 -0.184588466173 0)
(1.13330290723 -0.0266436343006 0)
(0.899300683484 -0.0319241291648 0)
(1.0088180237 -0.0294409400914 0)
(0.964455303633 -0.0282368721024 0)
(0.985584588884 -0.0283799007575 0)
(0.989426494986 -0.0312364187134 0)
(0.995577551164 -0.0373544302982 0)
(1.00016468787 -0.0470697166357 0)
(1.00289156259 -0.0602726766488 0)
(1.00401369211 -0.0763306878345 0)
(1.00249942402 -0.0951219967835 0)
(0.997248155017 -0.115822307396 0)
(0.989844511033 -0.137990324876 0)
(0.980047189125 -0.160633817323 0)
(0.967782033725 -0.183361841228 0)
(0.953700669626 -0.205242914631 0)
(0.93776908731 -0.225822358755 0)
(0.519522254765 -0.12899326591 0)
(1.12433662645 -0.0192648391762 0)
(0.881953803199 -0.0252879844975 0)
(0.993607174391 -0.0240394540623 0)
(0.948554598294 -0.0250461272374 0)
(0.969113201247 -0.0268545225425 0)
(0.97193360869 -0.0312279746292 0)
(0.976922722759 -0.0380369453196 0)
(0.980260709408 -0.0475604295533 0)
(0.981721484486 -0.0593531904569 0)
(0.981989843383 -0.073312331984 0)
(0.979806428094 -0.0887680429612 0)
(0.974430656556 -0.10568651707 0)
(0.967495712922 -0.123148507372 0)
(0.959046487656 -0.141245160527 0)
(0.948764321576 -0.159098957633 0)
(0.937548445693 -0.176893444378 0)
(0.924703300435 -0.193505260561 0)
(0.48994761631 -0.0683810093662 0)
(1.11878787842 -0.0149138928768 0)
(0.86670206775 -0.0208870832123 0)
(0.980527424342 -0.0212781254302 0)
(0.934241403958 -0.0240363560138 0)
(0.953953697453 -0.0271852609885 0)
(0.955228767358 -0.0322664102914 0)
(0.95882791415 -0.0389669692467 0)
(0.960832680027 -0.0473703147848 0)
(0.961274124675 -0.0572044199221 0)
(0.960877705563 -0.0683572658906 0)
(0.958369744471 -0.0805162777508 0)
(0.953133692919 -0.0934258156263 0)
(0.946917560404 -0.106778954498 0)
(0.939748080654 -0.120463616219 0)
(0.931220239024 -0.134275471463 0)
(0.922280679504 -0.148066358332 0)
(0.912043005484 -0.161362257933 0)
(0.473300010999 0.0409924684193 0)
(1.11993044956 0.00703678204035 0)
(0.859826426724 -0.000239938049308 0)
(0.975082811025 -0.00563607784376 0)
(0.927174166381 -0.0123496740671 0)
(0.945698654545 -0.0188568040614 0)
(0.945081544694 -0.0259470714246 0)
(0.947003440261 -0.0333613002948 0)
(0.947532231481 -0.0414482666999 0)
(0.94683679417 -0.0498953072954 0)
(0.945691583747 -0.0590576665019 0)
(0.94287614317 -0.0685027773428 0)
(0.937767167967 -0.0783420692699 0)
(0.932165311538 -0.0883041514159 0)
(0.925988409604 -0.0986196972789 0)
(0.918738020565 -0.109034144057 0)
(0.911354343877 -0.119610697381 0)
(0.90292223661 -0.129812034822 0)
(0.506734887202 0.124274539696 0)
(1.13016982121 0.0241948028436 0)
(0.872464328323 0.0168671387275 0)
(0.985674165255 0.00804988429254 0)
(0.935456466524 -0.000847125784368 0)
(0.95212710788 -0.00974434800537 0)
(0.949648270408 -0.0178896870992 0)
(0.949570567272 -0.025778970729 0)
(0.948317068912 -0.0331298880006 0)
(0.946003237991 -0.0406720019478 0)
(0.943584945724 -0.0481412674252 0)
(0.939909458948 -0.0559226835637 0)
(0.93426405205 -0.0634969748918 0)
(0.928364080268 -0.0714588373756 0)
(0.922157148846 -0.0793316227246 0)
(0.915118312056 -0.0876544525078 0)
(0.908213370408 -0.0957664823532 0)
(0.90063947393 -0.103927820292 0)
(0.531627569517 0.146125850191 0)
(1.14180315962 0.0212278495679 0)
(0.886477284766 0.0158551626038 0)
(0.998421588926 0.00781392355569 0)
(0.946651964885 -0.000294431948253 0)
(0.961974757066 -0.00860099323827 0)
(0.958149021412 -0.0159789021998 0)
(0.956885213402 -0.0227901260283 0)
(0.954286649063 -0.0287916688838 0)
(0.950748212131 -0.0346965582552 0)
(0.947283204723 -0.0403838283646 0)
(0.942909897546 -0.0463174225513 0)
(0.93662974292 -0.0519512842943 0)
(0.930409360016 -0.0579849898441 0)
(0.923983247295 -0.0638956067384 0)
(0.916977316461 -0.0702733145575 0)
(0.910146091325 -0.0764833560163 0)
(0.902922400286 -0.0828217757521 0)
(0.551449871118 0.178646424356 0)
(1.15326201055 0.0236237655787 0)
(0.899717060365 0.0185357062642 0)
(1.01068408802 0.010403104059 0)
(0.957932939833 0.00226846147818 0)
(0.972279995349 -0.00579120119401 0)
(0.967609928316 -0.0128486531087 0)
(0.96531631677 -0.0188629020517 0)
(0.961776444726 -0.0241689033369 0)
(0.957312104543 -0.0287713153421 0)
(0.952941852408 -0.0334280728097 0)
(0.947947450828 -0.0377095844421 0)
(0.941186334432 -0.0422211005556 0)
(0.934576238457 -0.0465490827517 0)
(0.927949981363 -0.0513864387247 0)
(0.920814017922 -0.0560483281423 0)
(0.913999775628 -0.0612602304921 0)
(0.90670639234 -0.0660035258848 0)
(0.570932328942 0.200979398218 0)
(1.16504983057 0.0255910041054 0)
(0.912308003425 0.0212956829971 0)
(1.02276213479 0.0131854242363 0)
(0.969345094116 0.00521172434264 0)
(0.98297382108 -0.00264771219892 0)
(0.977636184165 -0.00909378805083 0)
(0.974554268737 -0.014588408333 0)
(0.970290439071 -0.0190594558158 0)
(0.964982119865 -0.0228739544052 0)
(0.960031689797 -0.0263682520695 0)
(0.954409319466 -0.0296302526515 0)
(0.947171056435 -0.0328257248245 0)
(0.940091611935 -0.0360679026376 0)
(0.933278924102 -0.0395315627996 0)
(0.925901204235 -0.0432710782693 0)
(0.918980616388 -0.0472605701592 0)
(0.911723856887 -0.0513140729206 0)
(0.59072279812 0.212349884324 0)
(1.17679446572 0.0257858656575 0)
(0.924752071603 0.0232211655213 0)
(1.03433151879 0.0144425006982 0)
(0.980234080987 0.0068239281088 0)
(0.993384315315 -0.000419981427036 0)
(0.987516906715 -0.00632715253432 0)
(0.983754070542 -0.0111273105452 0)
(0.978914487471 -0.0149125187497 0)
(0.973128934458 -0.0179922347666 0)
(0.967609987551 -0.0206013283736 0)
(0.961617203322 -0.0230525938329 0)
(0.954037010925 -0.0250143107538 0)
(0.946749731853 -0.0272574956618 0)
(0.939570059545 -0.0293862394273 0)
(0.931947583677 -0.0321324297528 0)
(0.924728168722 -0.0349885044717 0)
(0.91742981914 -0.0383707154303 0)
(0.612732909562 0.217180207059 0)
(1.18774262308 0.0267413525139 0)
(0.936885755955 0.0275270678642 0)
(1.04507626378 0.0167333717902 0)
(0.990932704373 0.00961352631023 0)
(1.00345001095 0.00277572373414 0)
(0.997035418269 -0.00250209352336 0)
(0.992785047421 -0.00677369973944 0)
(0.987465996933 -0.0101227157036 0)
(0.981202104513 -0.0128237497811 0)
(0.97528075755 -0.0151521326074 0)
(0.969104309172 -0.017056212909 0)
(0.961320100049 -0.0183694890087 0)
(0.953826180938 -0.019482662009 0)
(0.946541133414 -0.0207651130307 0)
(0.938636319543 -0.0223325804518 0)
(0.931080514248 -0.024435776629 0)
(0.923745275307 -0.027043944679 0)
(0.643370662248 0.216635800032 0)
(1.19848690595 0.025659430361 0)
(0.951355095236 0.0311595258465 0)
(1.05657679273 0.01537424207 0)
(1.00244842587 0.00793635627237 0)
(1.01420084298 0.00142368740921 0)
(1.00721002748 -0.00332939466885 0)
(1.00224514762 -0.00693172129182 0)
(0.996347662423 -0.00965019453241 0)
(0.989514278489 -0.0117718984251 0)
(0.983130614249 -0.0136610319377 0)
(0.976801607281 -0.0153537944534 0)
(0.969132317238 -0.0157897309377 0)
(0.961559153228 -0.0161481554602 0)
(0.954052596842 -0.0166064614064 0)
(0.945916888481 -0.017433768529 0)
(0.937902306081 -0.0189730487197 0)
(0.930416625262 -0.0209887225416 0)
(0.692830573978 0.377912400503 0)
(1.20979207391 0.171115764712 0)
(0.970893395196 0.189362445335 0)
(1.07109469268 0.164383573679 0)
(1.01804384897 0.151700891697 0)
(1.02868501491 0.136269569701 0)
(1.02076421484 0.120884360608 0)
(1.01501150883 0.10588813751 0)
(1.00828617484 0.0922377053779 0)
(1.00053590938 0.0802733060748 0)
(0.993135027127 0.0698720992137 0)
(0.986524441388 0.0615621546785 0)
(0.978678845572 0.0559041444337 0)
(0.970596941537 0.0519061991066 0)
(0.962758649178 0.049377427696 0)
(0.954060566226 0.0475099331884 0)
(0.945630333085 0.0452550048357 0)
(0.937433251293 0.0418622801018 0)
(0.785479829594 -1.06658125103 0)
(1.22697600429 -0.783227490403 0)
(1.00823244215 -0.758176731941 0)
(1.0959347879 -0.785695380486 0)
(1.04042900334 -0.764749847579 0)
(1.04609259328 -0.735489388306 0)
(1.03493462581 -0.694878400752 0)
(1.02695670088 -0.648977812209 0)
(1.01904193567 -0.602234780668 0)
(1.01061872375 -0.558019337981 0)
(1.00339101427 -0.519091909372 0)
(0.997488794751 -0.485112920611 0)
(0.990618642334 -0.454857156881 0)
(0.983819879888 -0.429797476919 0)
(0.977283456541 -0.410802355386 0)
(0.969573674141 -0.397618246664 0)
(0.961326121001 -0.389646695315 0)
(0.957014464623 -0.386100775868 0)
(0.997107408414 8.71696876849 0)
(1.33367781884 5.36885241641 0)
(1.07154314512 5.21357421861 0)
(1.16214127128 5.07032914287 0)
(1.11822788642 4.86030769288 0)
(1.12456239332 4.61497137048 0)
(1.11336660743 4.34998951481 0)
(1.10246266027 4.07368822565 0)
(1.08897533769 3.80003823264 0)
(1.07264803237 3.53826515214 0)
(1.05519405181 3.29521284265 0)
(1.0396179698 3.07110202198 0)
(1.02344834482 2.86362609354 0)
(1.00587619353 2.67479876618 0)
(0.9875805939 2.5077355493 0)
(0.96821385575 2.36016877482 0)
(0.948953057452 2.23076720306 0)
(0.929555281391 2.11682069373 0)
(1.17268339608 -23.9374353925 0)
(1.1149580922 -16.5609748711 0)
(1.09258857202 -15.3208490989 0)
(1.16357675185 -15.0015886342 0)
(1.0914675103 -14.2715819817 0)
(1.09064478039 -13.596009327 0)
(1.07270385033 -12.9032519978 0)
(1.05670515566 -12.2088233377 0)
(1.04276706301 -11.525610574 0)
(1.03262546223 -10.8605894665 0)
(1.02851517725 -10.2202209052 0)
(1.02658445879 -9.61099414188 0)
(1.02467863366 -9.02239523334 0)
(1.02787627869 -8.45346916495 0)
(1.03598862642 -7.90780739538 0)
(1.0449530866 -7.37691262106 0)
(1.05411294125 -6.85451976878 0)
(1.05761681024 -6.334485756 0)
(-0.100827719492 -0.0348010279628 2.43702528225e-19)
(0.0659027263216 0.0583750875496 0)
(0.123715907379 0.134726208123 0)
(0.15714094491 0.196810274317 0)
(0.181468312602 0.252594162803 0)
(0.201216217714 0.304036688919 -2.76154006373e-20)
(0.21838071247 0.352207444941 0)
(0.233883562385 0.397775288458 0)
(0.248086778525 0.441120800829 1.91781592895e-20)
(0.261214176679 0.482598991448 0)
(0.273400139024 0.522440570512 -1.62344095534e-20)
(0.28475717082 0.560887944394 0)
(0.295353091167 0.598090810779 -1.41956550874e-20)
(0.305274136586 0.634236444617 -1.33859065806e-20)
(0.314569335238 0.669425490425 0)
(0.323325248063 0.703808540376 1.20548360709e-20)
(0.331584253495 0.737448724538 1.1499188822e-20)
(0.339443253698 0.770470841371 1.09962400045e-20)
(0.346937950981 0.802904289218 0)
(0.354120537382 0.834841208059 0)
(0.361024487858 0.866285185698 0)
(0.367686835524 0.897304502103 0)
(0.374136334203 0.927881534622 0)
(0.380355574844 0.958058214458 0)
(0.386363689184 0.987807784547 -8.4927694911e-21)
(0.392121250946 1.0171532142 -8.2310765341e-21)
(0.397656750009 1.04607334013 0)
(0.402953531646 1.07459561238 7.76052364264e-21)
(0.408025672174 1.10269476818 7.54875355375e-21)
(0.412842350582 1.13038531506 7.34950794609e-21)
(0.417418208356 1.1576478129 0)
(0.421743618069 1.18450583962 0)
(0.42583156924 1.2109400873 -6.82785306834e-21)
(0.429658873453 1.2369619446 0)
(0.433242016403 1.26256153563 0)
(0.43659518931 1.28776418383 -6.40006219026e-21)
(0.439731819336 1.31255152406 0)
(0.44264035212 1.33694085517 0)
(0.445342072382 1.36092569688 0)
(0.447841101341 1.38452569231 0)
(0.450154825719 1.40774095196 0)
(0.452297651664 1.43060055764 1.15237622675e-20)
(0.454284511519 1.45311271963 0)
(0.456139158101 1.47531639418 0)
(0.457872425114 1.49722307864 1.10484254499e-20)
(0.459513354018 1.51887943383 1.09071638476e-20)
(0.46107369553 1.54029596433 0)
(0.462574149841 1.56152034526 0)
(0.464027553861 1.58255861904 1.05294448025e-20)
(0.465445488865 1.60345376825 0)
(0.466845375624 1.62420582732 -1.03067048743e-20)
(0.468219561601 1.64484577759 0)
(0.469577946136 1.66537034788 1.01034700247e-20)
(0.470904346109 1.68579727987 0)
(0.472203989728 1.70611557335 9.91834413431e-21)
(0.473467015526 1.72633680065 9.83187988202e-21)
(0.474690722525 1.7464408781 0)
(0.475859888442 1.76642791992 0)
(0.47697030036 1.78627605531 0)
(0.478013760875 1.80598787013 9.52932003966e-21)
(0.478988742977 1.82554531426 0)
(0.47988268521 1.84495698987 0)
(0.480696143662 1.86422270752 0)
(0.481437632439 1.88336682876 0)
(0.482112035462 1.90238856283 0)
(0.482715182398 1.92131186557 0)
(0.483257740638 1.94015103728 0)
(0.483747509564 1.9589353155 -9.10401552612e-21)
(0.484186970668 1.97768046526 0)
(0.484587970128 1.99642101192 -9.02403039184e-21)
(0.484951396967 2.01516711086 -8.98688474393e-21)
(0.485287008277 2.03395052645 0)
(0.485595615858 2.0527683105 8.91612500607e-21)
(0.485883337974 2.0716378565 0)
(0.486155119664 2.0905442572 -8.8497433872e-21)
(0.486417449154 2.10949693913 0)
(0.486664982572 2.12846927105 8.78747540486e-21)
(0.486884922023 2.1474669029 -8.7580942206e-21)
(0.487074260374 2.16646697373 0)
(0.487237259918 2.1854833872 0)
(0.48737194936 2.2044982917 0)
(0.487463935849 2.22353698822 0)
(0.487502430664 2.24260016963 -8.63876627075e-21)
(0.487465537568 2.26171362692 8.62093766103e-21)
(0.487384908473 2.28090049555 -1.72098543088e-20)
(0.487254769171 2.30019688433 -1.71810516007e-20)
(0.487128126298 2.31968271792 -1.71518914264e-20)
(0.487063858001 2.33941086701 0)
(0.487015197761 2.35945719164 0)
(0.487214485754 2.38003460747 0)
(0.487718692556 2.40095140277 -1.69816367236e-20)
(0.488359327989 2.4222961022 0)
(0.489071694516 2.44398347808 0)
(0.4897544205 2.46601851889 -1.67893351252e-20)
(0.490386989476 2.48834817505 0)
(0.490966307148 2.51098873599 1.66600616818e-20)
(0.491489566919 2.53387285875 0)
(0.491956969777 2.55699265684 -1.65298235773e-20)
(0.492364853853 2.58024718363 0)
(0.492704051066 2.60359544894 0)
(0.492937455916 2.62689342783 0)
(0.493014514251 2.65006722118 -1.62759436577e-20)
(0.492904689675 2.67298896275 0)
(0.492595994968 2.6956320288 -1.61762367777e-20)
(0.4921438106 2.718004125 -1.61336980393e-20)
(0.491591083994 2.74016470598 0)
(0.490999619644 2.76220172677 0)
(0.490404718497 2.78419448464 0)
(0.489823610551 2.8062124434 -1.59793852209e-20)
(0.489263406412 2.82831367353 0)
(0.488728178199 2.85055442055 0)
(0.488221589446 2.87299162096 -1.5864686729e-20)
(0.487747079569 2.89568873135 -1.58256535057e-20)
(0.487305259323 2.91870523394 0)
(0.486893031541 2.94209162699 1.57441951029e-20)
(0.486510434435 2.96588212299 1.57010074829e-20)
(0.486167290024 2.99009364563 -1.5655292272e-20)
(0.485893277384 3.01473008088 0)
(0.485673951502 3.03971693041 0)
(0.485466984999 3.06495064349 0)
(0.485182801563 3.09021087733 1.54624865912e-20)
(0.484776587535 3.11536950173 0)
(0.484257886013 3.14031075316 1.53844917362e-20)
(0.483635422756 3.16502068551 0)
(0.482964806181 3.18954369217 0)
(0.482275183774 3.21393092761 0)
(0.481583846264 3.23822578403 -1.52735391407e-20)
(0.480901595857 3.26245932177 -1.52546707325e-20)
(0.480235307405 3.28665473279 0)
(0.479591745215 3.31083380607 0)
(0.478978618809 3.33502538774 0)
(0.478403132768 3.3592743444 0)
(0.477869890691 3.38364526166 0)
(0.477377825442 3.40822025094 0)
(0.476924983442 3.43309705579 -3.04343070254e-20)
(0.476509696027 3.45838540544 0)
(0.476130183834 3.48420224029 0)
(0.475795190109 3.51066134726 0)
(0.475499520696 3.53781793722 3.0515805851e-20)
(0.475250851074 3.56569853911 3.05470204947e-20)
(0.475025784366 3.59420897442 -3.05843697514e-20)
(0.474853768965 3.62333517213 -3.0620074869e-20)
(0.474721280568 3.65294177697 0)
(0.474600808899 3.68300208247 0)
(0.474470626676 3.71340130093 0)
(0.474313298378 3.74413822679 -3.07968514607e-20)
(0.47413154051 3.77514114232 0)
(0.473934099642 3.80645267195 0)
(0.473732461418 3.83803100658 3.09843300392e-20)
(0.473535121678 3.86993491733 0)
(0.473348973408 3.9021274751 3.1121079552e-20)
(0.4731784474 3.93466834437 0)
(0.473026392838 3.96751768672 3.12586994065e-20)
(0.472892734675 4.00073139851 0)
(0.472774861204 4.03426106515 0)
(0.472666013582 4.06815288972 0)
(0.472551666628 4.10233861205 0)
(0.472407555008 4.13683433763 0)
(0.472183848129 4.17151929596 0)
(0.471811787138 4.20630895048 0)
(0.471155545981 4.24093411726 0)
(0.470054544717 4.27510700896 3.18160687981e-20)
(0.46826615383 4.30824101898 0)
(0.46544326961 4.33960301317 0)
(0.461097178816 4.3679850691 3.2062979849e-20)
(0.454663825453 4.39181745264 0)
(0.44543753787 4.40908423695 0)
(0.432784588255 4.41750301543 3.25826449989e-20)
(0.416178833839 4.41505541304 0)
(0.39474357559 4.3993881854 0)
(0.367886722727 4.36841867073 3.37409250848e-20)
(0.335487663491 4.32142059585 -3.43307225566e-20)
(0.297896183143 4.26005425121 3.50368187113e-20)
(0.256248379618 4.19028433066 0)
(0.212045657845 4.12348897387 0)
(0.16448887525 4.07251904613 7.49962526382e-20)
(0.114677284865 4.05138689753 0)
(0.0646808978109 4.08301569746 -7.78541805316e-20)
(0.0155378249382 4.19986382098 -7.86552964517e-20)
(-0.0335656592751 4.45503834495 0)
(0.00318087559501 -0.012681752522 -2.99502440118e-19)
(0.0454528989133 0.0282941049715 0)
(0.0857034139101 0.0477420259348 7.86383440351e-20)
(0.10660223756 0.0444740110634 -6.52860507794e-20)
(0.125484215562 0.0322519539134 -5.60350245406e-20)
(0.142292612037 0.0162993174344 2.54828844794e-20)
(0.15829579406 -0.000666642581058 4.3638855405e-20)
(0.173686832021 -0.0173755817443 0)
(0.188475837025 -0.0333637586817 -1.88281144086e-20)
(0.202666221484 -0.048422692294 3.26980882836e-20)
(0.216221857573 -0.0625974983894 4.62513986187e-20)
(0.229134541527 -0.0759177624705 -2.7995651447e-20)
(0.241410832782 -0.0885255144218 4.01847661519e-20)
(0.253081695032 -0.100484258014 1.32529019048e-20)
(0.26417122579 -0.111933627107 0)
(0.274734333555 -0.122920304862 -1.18955701499e-20)
(0.284805862695 -0.133565057906 -1.13261948175e-20)
(0.294455572928 -0.143889461075 -1.08106690653e-20)
(0.303724693633 -0.15400422054 1.85416918885e-20)
(0.312659560694 -0.163904929672 0)
(0.321295538865 -0.173681404124 1.68725345103e-20)
(0.329658628224 -0.183314082263 0)
(0.337784259279 -0.192881133501 -1.54561249891e-20)
(0.345661928209 -0.202347462457 0)
(0.353299894893 -0.21177260811 2.24974812507e-20)
(0.360674357104 -0.221115500319 -5.69489206639e-21)
(0.367810818453 -0.230411589069 -1.31816133273e-20)
(0.374687658407 -0.239623595546 -2.02260375512e-20)
(0.381306273757 -0.248783474034 -7.3086773037e-21)
(0.387646599182 -0.257855953628 -7.10870464117e-21)
(0.393723500296 -0.266862327021 0)
(0.399521908658 -0.27577162807 -1.10911404002e-20)
(0.405039685253 -0.284607453756 6.58579320267e-21)
(0.41026975322 -0.293339922959 0)
(0.415230478042 -0.301985280154 0)
(0.419917873043 -0.310517456766 6.15722530484e-21)
(0.42434466338 -0.31895935337 0)
(0.428514000264 -0.327285493117 0)
(0.43243393629 -0.335514746841 0)
(0.43610871353 -0.343626315022 0)
(0.439551722407 -0.351638263147 0)
(0.442776540925 -0.359534258373 6.00243636786e-21)
(0.445795455687 -0.367333388141 1.6681616263e-20)
(0.448627962552 -0.375021990717 0)
(0.451286435878 -0.382623546395 5.48463832304e-21)
(0.453793953153 -0.390123692537 -1.04084361668e-20)
(0.456166265493 -0.397552411617 0)
(0.458421882898 -0.404891954541 0)
(0.460578693315 -0.412174163555 -2.49710044161e-20)
(0.462649020466 -0.419377664128 -1.47077146736e-20)
(0.464651848186 -0.426531362963 9.79582834937e-21)
(0.466592040475 -0.433609902506 1.42615424902e-20)
(0.468477537093 -0.440633500143 4.46624632322e-21)
(0.470302245737 -0.447575336966 0)
(0.472075554367 -0.454444361692 -2.30589043516e-20)
(0.473793730794 -0.461213709439 -9.30660279204e-21)
(0.475453579753 -0.467887946338 0)
(0.477046614412 -0.474439587774 1.31391995132e-20)
(0.478569758519 -0.480872239079 -1.29809510434e-20)
(0.480013452911 -0.487164719895 -8.99092308308e-21)
(0.481371672877 -0.493331401852 0)
(0.482641442651 -0.499362119072 0)
(0.483825687294 -0.505277327961 0)
(0.484922596321 -0.511078171459 1.23061643589e-20)
(0.485935730766 -0.516796622474 0)
(0.486871032094 -0.522438054086 -1.20851880701e-20)
(0.487729833959 -0.528029912209 0)
(0.488519008911 -0.533579381516 -3.34823844795e-21)
(0.489243922244 -0.539111388961 0)
(0.489914570831 -0.544628607216 -3.25516525035e-21)
(0.490537674937 -0.550154479856 -3.21189408295e-21)
(0.491121053168 -0.555683986788 0)
(0.491669649008 -0.561238432245 -8.3359874435e-21)