/*--------------------------------*- C++ -*----------------------------------*\
| =========                 |                                                 |
| \\      /  F ield         | OpenFOAM: The Open Source CFD Toolbox           |
|  \\    /   O peration     | Version:  v1806                                 |
|   \\  /    A nd           | Web:      www.OpenFOAM.com                      |
|    \\/     M anipulation  |                                                 |
\*---------------------------------------------------------------------------*/
FoamFile
{
    version     2.0;
    format      ascii;
    class       volScalarField;
    location    "20";
    object      alpha;
}
// * * * * * * * * * * * * * * * * * * * * * * * * * * * * * * * * * * * * * //

dimensions      [0 0 -1 0 0 0 0];


internalField   nonuniform List<scalar> 
12225
(
0.391712530893
0.328801743063
0.349045928495
0.348774116764
0.360500921736
0.364689625981
0.37052253455
0.374449643403
0.376503463803
0.375520682491
0.370070057124
0.361526855439
0.354657082168
0.343091803538
0.320172550848
0.290088551012
0.251011706175
0.218373342925
0.222100712508
0.281172262846
0.312558204146
0.308024248361
0.316830149603
0.319090577915
0.322660635558
0.324830957936
0.325958917051
0.325382472502
0.321790279303
0.315435606861
0.308825605242
0.299111702562
0.281843659466
0.259338578054
0.234480131896
0.231885911291
0.37207570765
0.298823345727
0.317306325385
0.315393643462
0.324926624501
0.328128440878
0.332494635855
0.335378585663
0.337316858952
0.337815662759
0.336209469728
0.332385809703
0.326849607839
0.318027630974
0.30354817355
0.285214882722
0.268118873866
0.272671749665
0.305062017757
0.287365068892
0.312962797017
0.307316567305
0.315824502464
0.317464388303
0.320506565301
0.322285796818
0.323434164935
0.323552132343
0.322334155888
0.319631171641
0.315320444141
0.308476285538
0.298154212489
0.286300126791
0.278511338694
0.287711322579
0.339937536301
0.287545922107
0.311841989812
0.305000854027
0.312722685137
0.313439009982
0.315616024836
0.316501995485
0.316737473809
0.316011894098
0.314207366759
0.311248375304
0.306924241876
0.300792418995
0.292867104574
0.285343172929
0.283144100972
0.293254735515
0.325860362456
0.283898180582
0.308589225129
0.300483429661
0.307631666274
0.307647087223
0.30929019153
0.309691831377
0.309508933409
0.308489009897
0.306592886469
0.30379035072
0.299930380259
0.294897690349
0.289230045969
0.285091196245
0.286153889003
0.295735659727
0.329724364388
0.282572805089
0.306137389484
0.297183260045
0.303666608912
0.303040434901
0.304173200886
0.304138140222
0.303611059242
0.302389141215
0.300482490727
0.297902440496
0.294618586603
0.290742934963
0.287050711303
0.285417971698
0.288298250029
0.297052252165
0.327382781108
0.281116551065
0.303993713784
0.294310380345
0.300248327365
0.299106440823
0.299857516724
0.29951878781
0.298809425122
0.297544349562
0.295755918318
0.293495834382
0.290850500958
0.288079811699
0.286022539082
0.286153500425
0.289996699742
0.297905699064
0.326461375061
0.280385139297
0.30224796858
0.292073062046
0.297487900119
0.295907336949
0.296341320298
0.295793122814
0.295014151904
0.293812501689
0.2922300329
0.290364890905
0.288390016553
0.28664278148
0.285892963808
0.287244800788
0.291550730223
0.298739679736
0.325581163996
0.280065009758
0.301051319718
0.290516070021
0.295494216657
0.293553997552
0.293756662984
0.293089088517
0.292309762953
0.291219191062
0.289891714659
0.288471209788
0.287179350757
0.286356053191
0.286640026039
0.288808065508
0.293288859954
0.29980717068
0.325619473185
0.279996453716
0.300679364977
0.289819539273
0.294546743019
0.292403041088
0.292529072612
0.291841639567
0.291119393685
0.290189866925
0.289161859814
0.288183334373
0.287478911659
0.287349144541
0.288297563586
0.290844119875
0.295157653122
0.300935638415
0.329509213152
0.280116435477
0.302113810812
0.290698235734
0.295484465736
0.293250026116
0.293362581252
0.292680961248
0.292057210092
0.291290046305
0.290431726605
0.289650475053
0.289182195521
0.289314491653
0.290433358678
0.292894384623
0.296767072287
0.301755518106
0.33270999499
0.280778482851
0.303561989094
0.291753487684
0.296368979675
0.293971577498
0.293989900065
0.293238089045
0.292532421425
0.291692721061
0.290828485162
0.290112867965
0.289815284682
0.290144845976
0.29141750318
0.29384486737
0.29739851429
0.301817423333
0.336614419466
0.281605428832
0.305218136056
0.292893038547
0.297303813394
0.294566033674
0.294290524726
0.293329216092
0.292521365743
0.291683833366
0.290932550661
0.290455188289
0.290486198063
0.291171161139
0.292677325712
0.295131256883
0.29839447891
0.302320053627
0.341715278795
0.282511929874
0.307304423263
0.294278559198
0.298480281527
0.29533995092
0.294730794621
0.293521134919
0.292593587983
0.291798671271
0.291218606658
0.291049934062
0.29146642069
0.292491390413
0.2942068589
0.296639037455
0.299635050851
0.303055551154
0.347097488666
0.28348179831
0.309694047347
0.2959737772
0.300071248708
0.296585626122
0.29573068046
0.294340461987
0.293365684994
0.292623445452
0.292238160494
0.292322110231
0.29303199182
0.294266840324
0.296069292966
0.298389770888
0.301095260522
0.304088969725
0.351987637471
0.284370601198
0.312128216905
0.297842690049
0.301983475029
0.298294114386
0.297340817203
0.295899428524
0.294956166413
0.294332559043
0.294096038508
0.29436918771
0.2952326071
0.29655738488
0.298316107045
0.300479140637
0.30288084998
0.305524201998
0.356628483785
0.285056630204
0.314460327573
0.299713564461
0.304038813434
0.300288310961
0.299379512013
0.297982465188
0.297131150858
0.296625711666
0.296515081637
0.296903256547
0.297836689865
0.299154721684
0.300817948395
0.302800941246
0.304943280298
0.307279017606
0.359164572873
0.285145181971
0.315710762107
0.300786239203
0.30540510301
0.301799526578
0.301116038897
0.299922540577
0.29928432176
0.298980704103
0.299045445547
0.29956063895
0.300558856596
0.301864748848
0.303445337625
0.305286809502
0.307239956571
0.309347502279
0.35399728227
0.284553480957
0.314164074352
0.300078930211
0.305163496346
0.30221390829
0.302155095649
0.301599805012
0.301536058677
0.301743072347
0.302224790437
0.303046654394
0.30424515855
0.305658273756
0.307257678208
0.309039299762
0.310868890866
0.312780023078
0.349336016302
0.283407524047
0.312327180481
0.298859336369
0.304306831451
0.301879487821
0.302314987282
0.302222421606
0.30259927264
0.303169611833
0.303945215261
0.304967921025
0.306306909081
0.307776831781
0.309387567339
0.311116116114
0.312870755906
0.31465802648
0.34761941076
0.282617878446
0.310483507809
0.297535786745
0.303250053562
0.301282498705
0.302118772517
0.302428571139
0.303147827844
0.304007185022
0.305016978479
0.306197509891
0.307630933585
0.309154140039
0.310764904282
0.312464170263
0.314154258234
0.315880549108
0.339647201892
0.280855273521
0.308771412168
0.296318541122
0.302324648576
0.3007892262
0.302008302572
0.302679695208
0.303714185096
0.304850587821
0.306057688157
0.307397696679
0.30893444697
0.310525973509
0.312147630515
0.313847956924
0.315507555198
0.317170428526
0.346335211131
0.280451199242
0.306595853283
0.29468075418
0.300949604358
0.299863248113
0.301453585107
0.302493534351
0.303832964005
0.305218044274
0.306637974274
0.308132579242
0.309785940887
0.311451297937
0.313146066354
0.31488131975
0.316571489402
0.318228596841
0.319960752418
0.278186681581
0.305038258503
0.2939311913
0.30040713571
0.299740596458
0.301657880924
0.302974630279
0.304552244451
0.306134647416
0.307709017729
0.309295028387
0.311009212866
0.312710256683
0.314407092474
0.31615516303
0.317875542357
0.319552402524
0.36194467675
0.278062426769
0.302053422326
0.291287605733
0.29802469445
0.297733274358
0.299911779914
0.301512068125
0.303338699446
0.305163668454
0.30694413203
0.308706605401
0.310558990504
0.31239630575
0.314220643925
0.316067355714
0.317861816093
0.31947117385
0.269346294477
0.275108665802
0.299601725451
0.290983185222
0.297592815313
0.297890507762
0.300380632583
0.302297239966
0.304406751904
0.306512254457
0.308587249717
0.310502442178
0.312432279047
0.314338864401
0.31617349692
0.318028155631
0.31989993617
0.321940794295
0.412416971679
0.279197765269
0.292024011081
0.285013511397
0.291607952737
0.292035463795
0.294437293514
0.296189730861
0.298076361441
0.299950989169
0.301683531796
0.303299545909
0.304985663374
0.306660444768
0.308315975981
0.310098221328
0.311980134031
0.31349929246
0.152200355319
0.260731405434
0.284753653898
0.278702383162
0.284841676789
0.285910348821
0.288846562232
0.291493442017
0.294504461684
0.297759837341
0.301149495579
0.304326437196
0.30754574228
0.310898729869
0.314303046641
0.317773104079
0.321356567645
0.324830436329
0.329280738616
0.296719901016
0.301448204362
0.29981184513
0.307335501765
0.308308444938
0.310876330033
0.31286253788
0.314880093986
0.316652329636
0.318082418366
0.319417573408
0.320813493696
0.321890137767
0.322651591168
0.323290197279
0.323614758182
0.324358474597
0.476040521406
0.476400425336
0.476586502553
0.476568336084
0.476354550294
0.475979403508
0.475545549473
0.475086483076
0.474628800836
0.474190975408
0.473784978839
0.473417760773
0.473092619634
0.472810416454
0.472570285647
0.472370202748
0.472207556331
0.472079024256
0.471981542297
0.471912186736
0.471867739157
0.471846078844
0.471844028972
0.471860986824
0.471895174965
0.471947137818
0.472015374927
0.472100290782
0.4722013935
0.472319617462
0.472454837506
0.472607683234
0.472777880018
0.472966307006
0.473172845216
0.473397429287
0.473638977614
0.473898269554
0.474174156699
0.474466600766
0.474774228821
0.47509629574
0.475431097798
0.475776985299
0.476131813463
0.476493038404
0.476858045429
0.477223701106
0.477586735847
0.477944185934
0.478293187479
0.478632348827
0.478958532503
0.479267510799
0.479553920082
0.479812631516
0.480038252503
0.480225390746
0.480368529733
0.480462411738
0.480502968761
0.480488986489
0.480419515037
0.480291573786
0.480104215605
0.4798605494
0.47956264124
0.479212603251
0.478813742723
0.478368835666
0.477882139885
0.477357509119
0.476799694259
0.47621291319
0.475601813819
0.47497036125
0.474322502985
0.473662774002
0.472994954688
0.472321666066
0.471644940725
0.470968059734
0.470293064778
0.4696226472
0.468956031273
0.468295873971
0.467642266215
0.466988942717
0.466339639379
0.465690809714
0.465041698037
0.464392120374
0.463739912306
0.463111420659
0.462521167923
0.461931330613
0.46131027995
0.460672764639
0.460020676523
0.459359997708
0.458585374632
0.457717978214
0.457576944954
0.457530668061
0.457314740258
0.456875496909
0.456246411725
0.455902291284
0.455499826538
0.455137583847
0.454841390437
0.454585961246
0.454366515836
0.45416141845
0.453977716158
0.453806666908
0.453645067457
0.453490310627
0.453341547893
0.453199722638
0.453068140182
0.452948018849
0.452838083515
0.45273726702
0.452642765163
0.452553336328
0.452468250853
0.452387016411
0.452309277302
0.452234641022
0.452162743865
0.452093374801
0.452026353698
0.451961661453
0.451899235996
0.451839164392
0.451781461906
0.451725792202
0.451672618623
0.451622077827
0.451575905499
0.451532702315
0.451493286493
0.451459173483
0.451432059349
0.451413754842
0.451405371415
0.45140771551
0.451421490143
0.451447242728
0.451486061668
0.451539472883
0.451609195541
0.451696866107
0.45180425522
0.451933186038
0.452085709134
0.452264072455
0.452471234553
0.452710794354
0.452988085734
0.453308801238
0.45368096253
0.454115830586
0.454628776142
0.455236679856
0.455960399983
0.456816511174
0.457818245574
0.458988344785
0.460339827472
0.461869339728
0.463559880092
0.465369341756
0.467237789751
0.469221339676
0.471270144469
0.473305472923
0.475217562721
0.476694661297
0.476142450855
0.476375674234
0.476274610223
0.475988125876
0.475640141836
0.475284035876
0.474941277458
0.474622164823
0.474331212214
0.474070586439
0.473840599479
0.473641838182
0.473473392362
0.473334858644
0.473224845381
0.47314224387
0.473085229229
0.473052016095
0.473040149922
0.47304816047
0.47307353305
0.473114859189
0.473169825236
0.473238249328
0.473318758908
0.473412209681
0.473517761346
0.473636257009
0.473767913943
0.473914046163
0.474074829863
0.474251249998
0.474443893226
0.474653945341
0.474881073058
0.475125988835
0.475388386389
0.475668553252
0.475965979875
0.476280809559
0.476612065581
0.476958991372
0.47732010235
0.477693664183
0.478077419493
0.478468605449
0.478863844287
0.479259517007
0.479650978195
0.480033043413
0.480398112247
0.480741133144
0.481059201408
0.481349337645
0.481607639956
0.481830232343
0.482013301615
0.482151130613
0.482237778409
0.482271144652
0.482249766697
0.48217139061
0.482036409569
0.481848820977
0.481607596635
0.481310130592
0.48095625378
0.480546324432
0.480081295754
0.479562203953
0.47899098054
0.478369754055
0.477701853193
0.476990843317
0.476240832509
0.475456479945
0.474642899623
0.473805421151
0.472949562508
0.472079353076
0.471197895119
0.470309024881
0.469416908904
0.468523399557
0.467626827299
0.466732452847
0.465846959434
0.464960762149
0.464053068284
0.463142249153
0.462258893958
0.461369766686
0.460435237279
0.459485769501
0.458606441232
0.457802508857
0.456965851973
0.456278433606
0.455597398041
0.454884398195
0.45419922172
0.453383711078
0.452779955605
0.452129014252
0.451528886619
0.450950829301
0.450607167901
0.450343412789
0.450108535185
0.449865074775
0.449618058267
0.449362548476
0.4491011779
0.448837596839
0.448579289496
0.448322633827
0.448067534043
0.447812723526
0.447557696971
0.447305206235
0.447059053722
0.446821068389
0.446591351467
0.446368260485
0.446149887081
0.445935295321
0.445723766291
0.445514850383
0.445308048648
0.445103168267
0.4449001149
0.444698855525
0.444499245446
0.44430115427
0.444104183274
0.443907959683
0.443711858085
0.443515096718
0.443316949026
0.4431176835
0.442917475926
0.442715063852
0.442510048918
0.442302726198
0.44209396982
0.441884211109
0.441673053697
0.441459510417
0.441242358091
0.441020581487
0.44079306658
0.440558605742
0.440315985277
0.440064518432
0.439804343138
0.439536293392
0.439262357415
0.438985147408
0.438708246166
0.438434942307
0.438170227343
0.437919650654
0.437688609782
0.437481160057
0.43730100202
0.437151128315
0.437028055497
0.436939548012
0.436884844001
0.436862267524
0.436873474355
0.436925290942
0.437027367361
0.437181274762
0.437456962549
0.43776359092
0.438127479889
0.438539105375
0.438956822587
0.439394337609
0.475773824069
0.475849176198
0.475814448141
0.475699224692
0.475577389132
0.47547714793
0.475389352208
0.475307536428
0.475227969379
0.475150514922
0.475075721652
0.47500518517
0.474940541971
0.47488368671
0.474836019213
0.474798764127
0.474772426436
0.474757345341
0.474753129075
0.474759339583
0.474775081501
0.474800349705
0.474833618684
0.474875271131
0.474924948734
0.474983414567
0.475050509276
0.475127513665
0.475214892147
0.475314016094
0.475425481851
0.475550755992
0.475690222655
0.475844924817
0.476015206187
0.47620159625
0.47640364307
0.476621923378
0.476855875233
0.477105227846
0.477369061602
0.477646364624
0.477935561332
0.478234760612
0.478541597271
0.478853340275
0.479166688943
0.479478041796
0.47978334763
0.480078258606
0.480356597883
0.480611948825
0.480837395057
0.481028413017
0.481181487388
0.481293794775
0.481362989809
0.481389138258
0.481373119891
0.481313418265
0.481207356471
0.481052772083
0.480844279267
0.4805781345
0.480256096145
0.479877417613
0.479440971819
0.478946674762
0.478396126578
0.477791830483
0.477137590301
0.476437908615
0.475697926792
0.474923057647
0.474118787724
0.473290580719
0.472443673806
0.471583264692
0.470714228276
0.469841245076
0.468966414422
0.468092638744
0.467224302951
0.466364158417
0.465508369826
0.464655285051
0.463819040501
0.463002432543
0.462181542051
0.461346501676
0.46053086976
0.459762145173
0.458965079762
0.45816351874
0.457393097922
0.456652567046
0.455968659227
0.455439341032
0.454836658788
0.454046634621
0.45318805071
0.452574000418
0.452245800444
0.451904339281
0.451714795345
0.451476798497
0.451084248202
0.450520583324
0.449982255265
0.449513357714
0.449079399383
0.448677218821
0.448305734871
0.447961443357
0.447639844397
0.447333877434
0.447040003789
0.44675502971
0.446477538483
0.446209297399
0.445952407812
0.445707308916
0.445472646054
0.445246208559
0.445026873667
0.44481391175
0.444606826653
0.44440521758
0.444208736435
0.444016882952
0.443828957606
0.443644249874
0.4434622891
0.443282774377
0.443105450656
0.442929998816
0.442755860973
0.442582657586
0.442410231602
0.442239694045
0.442071110175
0.441903482746
0.441735624442
0.441567875345
0.441401738023
0.44123837512
0.441078291526
0.440921484197
0.440768071455
0.440618212604
0.440472094078
0.440329699236
0.440191150996
0.440056427776
0.439925281639
0.439797204349
0.439671476794
0.439546955606
0.43942245563
0.439296287076
0.439166748007
0.439032139334
0.438890727829
0.438740634756
0.438580482243
0.438408662129
0.438222587687
0.438021901351
0.437809864442
0.437589553343
0.437366089946
0.437149342005
0.43695148645
0.436796092294
0.436709598349
0.436709172694
0.43681378669
0.437030955135
0.437317181377
0.437519018669
0.475305584227
0.475424281764
0.475685423498
0.475825752485
0.475902169955
0.47596155511
0.475998060888
0.476012006116
0.476005586113
0.475981870767
0.475944019277
0.475895943879
0.475840918817
0.475782434526
0.475723228989
0.475665812808
0.475611918686
0.475562928461
0.475519366189
0.475482257878
0.475451265967
0.475426712433
0.475408452055
0.475397137911
0.475392410528
0.47539567757
0.475407280319
0.475428542213
0.475460271842
0.47550412707
0.475561010109
0.475632265213
0.475718759462
0.475821851024
0.47594148095
0.476078577974
0.476233074839
0.476405097438
0.476594047281
0.476799629439
0.477020629251
0.477255761568
0.477503076368
0.477760250114
0.478024474398
0.478292488907
0.47856046707
0.478824514912
0.479080119775
0.479322435681
0.479546799261
0.479749647621
0.479925278998
0.480068843054
0.48017587068
0.480242618828
0.480265668326
0.480243376771
0.480177159636
0.480069744988
0.47992180423
0.47973225582
0.479498406798
0.479214903352
0.478875240175
0.478475413146
0.47801334616
0.477487949252
0.476899494108
0.47624986277
0.475542468588
0.4747823873
0.473976133803
0.473130642058
0.472253287975
0.47135236726
0.47043525616
0.46950757218
0.468576455383
0.467648657077
0.466726426267
0.465809081511
0.464904654195
0.464022393659
0.463154017512
0.462291634216
0.461449285994
0.460660144399
0.459878118306
0.459092821151
0.458338261628
0.457631131337
0.456959238977
0.456301647124
0.455689496777
0.455073059306
0.454392953812
0.453657105938
0.452818745267
0.452021508652
0.451460117338
0.451207885797
0.451025892356
0.450805478639
0.450617309023
0.450297994111
0.449772598524
0.449106089015
0.448458659469
0.447875777096
0.447351340791
0.446886500325
0.446474203026
0.44610385297
0.445765660778
0.445450935893
0.445154393142
0.444871986901
0.444602348993
0.444346339455
0.444104948812
0.443877135211
0.443659936754
0.44345110415
0.443249481362
0.443054379636
0.442865147944
0.442681134286
0.442501643553
0.442326014035
0.442153352247
0.441983080477
0.44181498578
0.441648749765
0.441483978745
0.441319979406
0.441156181103
0.440992432777
0.440829490963
0.440668632627
0.440510135661
0.440352341041
0.440193368487
0.440033264969
0.439873190848
0.43971409525
0.439556265713
0.439399569823
0.439243790985
0.439088683134
0.438934077108
0.438779796467
0.438625989376
0.438472797084
0.438320352677
0.438168810299
0.438018463805
0.437869841659
0.43772360375
0.437580456571
0.437440794259
0.437305044931
0.437173536493
0.43704597728
0.436921626391
0.436799015375
0.436674738956
0.436546648822
0.436412996959
0.436271029058
0.436119317022
0.435959463558
0.435795019905
0.435633041055
0.435491530698
0.435376157075
0.435295298952
0.435251190428
0.435194051099
0.434994885785
0.474763891388
0.475426974947
0.476081529449
0.476321757182
0.476407088951
0.476462975783
0.476496437773
0.476510570467
0.476505016536
0.476481186656
0.476440191046
0.476384498024
0.476316753326
0.476240290361
0.476157825453
0.476072269479
0.475985544508
0.475899846636
0.475816276379
0.475735918862
0.475659275368
0.475587539782
0.475520379351
0.475458974755
0.475403795272
0.475355899494
0.475315903786
0.47528549772
0.475265619056
0.475257919056
0.475263421845
0.475283879737
0.475319938301
0.475372757898
0.475442883856
0.475531026994
0.475636835327
0.475760815653
0.475902317472
0.476060882693
0.476235320144
0.476424354548
0.476626007883
0.47683804154
0.477057647871
0.477281793575
0.477506809027
0.47772885383
0.47794383462
0.478147092577
0.478332454765
0.478495576118
0.478631139596
0.4787340213
0.478800197863
0.478826199331
0.478808228335
0.478743782651
0.478632433755
0.478472759669
0.478263639716
0.478004539108
0.4776953018
0.477336852679
0.476928286379
0.476467058265
0.475950806654
0.475377839827
0.474748213693
0.474063091421
0.47332525576
0.472539021391
0.471711215772
0.470847596389
0.469954803268
0.469041359003
0.468115917656
0.467181877081
0.466242953609
0.465311891237
0.464394929774
0.463481952549
0.462579215757
0.461704864456
0.460847197922
0.459991913312
0.459159134849
0.45836834741
0.457627833799
0.45690284543
0.456176351143
0.455500210492
0.454835741483
0.454199493188
0.453537829027
0.452765622988
0.451933924353
0.451121427083
0.450413409465
0.449945599719
0.44973313194
0.449649211761
0.449502632336
0.449284853197
0.449018612901
0.448618897532
0.448086310483
0.447492000866
0.446911802613
0.446370106626
0.445880428518
0.445448344481
0.445067337503
0.444727523947
0.444419619802
0.44413572886
0.443870242754
0.443619156173
0.443380963186
0.443155841428
0.442943718334
0.442742398804
0.442548681422
0.442360704575
0.442177854372
0.441999968755
0.441826888061
0.441658356751
0.441493995366
0.441333406069
0.441176305312
0.441022393887
0.440871222403
0.44072238144
0.440575308383
0.440429352705
0.440284181133
0.440140176696
0.439998906413
0.439861690059
0.439728690826
0.439597385422
0.439465468268
0.439332546978
0.439199377683
0.439066831744
0.438935217361
0.438804516225
0.438674541709
0.438545059883
0.438415934473
0.438287053052
0.438158276723
0.438029513903
0.437900697195
0.437771891639
0.437643122108
0.437514385598
0.437385799174
0.437257504187
0.437129340437
0.437001150713
0.436872664269
0.436743211032
0.436612123089
0.436478273336
0.436339339913
0.436194316892
0.436043012237
0.435884367175
0.435719291473
0.435550722029
0.435381790986
0.435217600219
0.4350682774
0.434934824738
0.434810068146
0.434678422195
0.434479464188
0.434099667882
0.474274397039
0.47610921816
0.476968483356
0.476964379689
0.47686015032
0.476812067501
0.476790343377
0.476775277397
0.476753092905
0.476717498605
0.476665509204
0.476598363397
0.476517448371
0.476425863407
0.476325837632
0.476220326636
0.476111197759
0.47600065202
0.475889774005
0.475780474722
0.475673055813
0.475568604797
0.475467782134
0.475371665364
0.475280459851
0.475195894564
0.475118761748
0.475050642495
0.47499266732
0.47494664589
0.474913738024
0.474895438172
0.47489273211
0.474906989936
0.474938286109
0.474987498553
0.475054539072
0.475139439325
0.475241424453
0.475359994953
0.475493649135
0.47564095601
0.475799687046
0.475967484394
0.476141423408
0.476318483416
0.47649502871
0.476667630554
0.476832308657
0.476984536956
0.477118419181
0.477229719253
0.477312694964
0.477362150881
0.47737344458
0.477342472813
0.47726548723
0.477143193732
0.476977174779
0.476768418776
0.476517011944
0.476222854775
0.475884022017
0.475498671058
0.475061834898
0.474569993534
0.47401959055
0.473408450045
0.472736946068
0.472008032054
0.471224205429
0.47039140035
0.469518625521
0.468614491644
0.467683090651
0.466734257989
0.46578170738
0.464830915635
0.46387808596
0.462932540241
0.462018720827
0.461101258671
0.460196595181
0.45931788234
0.458476227063
0.457675538868
0.45689324949
0.456135362599
0.455401495001
0.454673398812
0.45399266465
0.45331529383
0.452565960951
0.45180407636
0.451023491131
0.45025688152
0.449570944795
0.449009646149
0.448597324621
0.448367626274
0.44825409699
0.448132787681
0.447932121696
0.447673692697
0.447347529353
0.446922277735
0.446427869864
0.445910119817
0.445402010385
0.44491993949
0.444479028625
0.444083885587
0.443730238453
0.44341121169
0.443119930083
0.442850291569
0.44259757558
0.442358847989
0.442133165652
0.441920978932
0.441721969952
0.44153371874
0.441353613128
0.441180239146
0.441013238888
0.440852562151
0.440698096188
0.440549526575
0.440406355278
0.440267950831
0.440133585225
0.440002326954
0.439873422677
0.439746230135
0.439620025721
0.439494069999
0.439368146813
0.439243285965
0.439121372253
0.439004160393
0.438891383285
0.438780410358
0.43866895729
0.438556376802
0.438443255324
0.438330257922
0.43821771329
0.438105656189
0.437993984336
0.437882733615
0.437771853777
0.437661302134
0.437551016252
0.437440849502
0.437330718347
0.437220518915
0.437110196868
0.436999660689
0.436888899545
0.436777850241
0.436666215813
0.436553693959
0.436439793827
0.436323650335
0.436204243238
0.436080227495
0.435949339069
0.435810417888
0.435662914602
0.435505625025
0.435339576608
0.435167506793
0.434991858765
0.434816188554
0.43464897292
0.434489897039
0.434329078933
0.434144077218
0.433876443833
0.433437227051
0.474023014512
0.477517717628
0.478086068999
0.4775036766
0.477159214718
0.477009004676
0.476933647126
0.476879928014
0.47682227291
0.476752914555
0.47666794596
0.476568588776
0.476455853311
0.476332763746
0.476201029977
0.476063535418
0.475921672048
0.475777865531
0.475633045873
0.475488615787
0.475345312079
0.475204654101
0.475066632426
0.474932720636
0.4748036307
0.474680550425
0.474564318342
0.474456709408
0.474358745425
0.474272140753
0.474197976582
0.474137970386
0.474092800748
0.47406355817
0.474050758882
0.474054961226
0.474075765385
0.474113416681
0.474167011042
0.474235818726
0.474318302714
0.474412984452
0.474517640879
0.474630070076
0.474747561619
0.47486764081
0.47498719386
0.475103420065
0.4752134061
0.475313701318
0.475397718389
0.475461913146
0.475499935574
0.475504572818
0.475469442858
0.47538868681
0.475259082848
0.47508392117
0.474864986936
0.474604228929
0.474302695412
0.473963119919
0.473585801354
0.473168218136
0.472703148242
0.472186592976
0.471613019761
0.470978120389
0.47028225196
0.469529508023
0.4687230243
0.467865667227
0.46697023638
0.46605083842
0.465110467799
0.46415504166
0.463199565254
0.462249901657
0.461296506671
0.460356527284
0.459438608066
0.458556679556
0.457714057508
0.45688445661
0.456077188358
0.455302722772
0.454561730828
0.453853206164
0.453139902611
0.452397679407
0.451669518619
0.450922192299
0.45016655468
0.449447879024
0.448770092236
0.448178884916
0.447701558443
0.447342979658
0.447083442103
0.446909527679
0.446754150359
0.446560119634
0.446316157033
0.446029516886
0.445681401892
0.445268627932
0.444821578037
0.444367156171
0.443922860812
0.443500961321
0.44311177388
0.442757782139
0.442436769123
0.442144754989
0.441877402178
0.441630382308
0.44140026394
0.441184898725
0.440983716022
0.440796783159
0.440622973106
0.440459629025
0.440304043811
0.440154669312
0.440010839574
0.439872262848
0.439738652667
0.43960963146
0.439484687105
0.439363219339
0.43924464318
0.439128489557
0.439014387541
0.438901837887
0.438790139545
0.4386786136
0.438567311067
0.438457651849
0.438351736604
0.438251254602
0.438155443077
0.438061723312
0.437967829973
0.437873130459
0.43777803314
0.437682987715
0.437588184507
0.43749353246
0.43739904354
0.437304668464
0.437210424491
0.437116266194
0.437022144212
0.436928014709
0.436833768426
0.436739263901
0.436644406151
0.436549090981
0.436453271161
0.436356784458
0.436259255619
0.436160265109
0.436059267346
0.435955240377
0.435847039979
0.435733288138
0.435611876597
0.435481601221
0.435341731522
0.435190955194
0.435029973662
0.434861035086
0.434685539896
0.434505246657
0.434326424727
0.434147321594
0.433957135331
0.433729979068
0.43341267808
0.432938673271
0.474138806705
0.47944150504
0.479090373565
0.477808895371
0.477327851101
0.477111831688
0.476980883803
0.476867324663
0.476749559035
0.476622495583
0.476482727482
0.476332543876
0.476171934114
0.476003772925
0.47582881239
0.475649662337
0.475467155631
0.475283364132
0.475098761798
0.474915237364
0.474732943793
0.474553199174
0.474376626074
0.47420427728
0.474036346814
0.473874499779
0.473719344267
0.473572306271
0.473434307273
0.473306943176
0.473191106221
0.473088052768
0.472998533593
0.47292359498
0.472863192202
0.472817947361
0.47278759187
0.4727719298
0.472770058485
0.472781311269
0.472804093689
0.472837039238
0.472878156388
0.472925624303
0.4729774016
0.473031805147
0.47308711916
0.4731419421
0.473194727055
0.473243730469
0.473283747343
0.473308737281
0.473310755128
0.473278297284
0.473199804247
0.473065129592
0.472873891511
0.472632897763
0.472346385276
0.472019569054
0.471659312378
0.471273168816
0.470866014039
0.47042758103
0.469949559295
0.469424209637
0.468844034432
0.468200479059
0.467490633184
0.466722990862
0.465905437954
0.465037461989
0.464129551325
0.463208256536
0.462259161688
0.461296321065
0.460342380555
0.459405154023
0.458496277032
0.45762056669
0.45675682589
0.45591672663
0.455111474723
0.454339587542
0.453603152276
0.452896094627
0.452195096296
0.45147954112
0.450746380421
0.450011270369
0.449305835501
0.448609404974
0.447959707577
0.447370028323
0.446842395535
0.446398829337
0.446044054359
0.445770748504
0.445552139967
0.445366210836
0.445170920882
0.444948014906
0.444694116703
0.444400717028
0.444056847112
0.443673842242
0.443275576598
0.442878116233
0.442492302769
0.442126385361
0.441786180093
0.441473033972
0.441186049373
0.440923135712
0.440681503927
0.440457998372
0.440249997438
0.440055860615
0.439875153554
0.439707685766
0.439552085371
0.439405928797
0.439266998607
0.439134020291
0.439006468291
0.438884170277
0.438766988207
0.438654689988
0.43854688934
0.438443079837
0.438342709189
0.438245247898
0.438150075149
0.438056444882
0.437963387681
0.437870182272
0.437777118189
0.437685833641
0.437598590177
0.437516710469
0.437439227815
0.43736370935
0.437288144477
0.437211977069
0.437135449497
0.437058880169
0.436982288984
0.436905621291
0.436828811594
0.436751853911
0.436674794016
0.436597611043
0.436520267684
0.436442672736
0.436364695785
0.436286162528
0.436206920412