/*--------------------------------*- C++ -*----------------------------------*\
| =========                 |                                                 |
| \\      /  F ield         | OpenFOAM: The Open Source CFD Toolbox           |
|  \\    /   O peration     | Version:  v1806                                 |
|   \\  /    A nd           | Web:      www.OpenFOAM.com                      |
|    \\/     M anipulation  |                                                 |
\*---------------------------------------------------------------------------*/
FoamFile
{
    version     2.0;
    format      ascii;
    class       volScalarField;
    location    "20";
    object      pa;
}
// * * * * * * * * * * * * * * * * * * * * * * * * * * * * * * * * * * * * * //

dimensions      [0 2 -2 0 0 0 0];


internalField   nonuniform List<scalar> 
12225
(
78.9568074344
78.0374793347
78.8277681757
78.8836834333
79.1750449766
79.2243628572
79.2015402877
79.1968646776
79.4207130756
80.0635951131
81.1822199652
82.5484342735
83.6238559178
84.1355390764
85.5008733387
91.60439003
104.072891416
108.152334999
98.0733420822
90.9395154943
90.8590627059
91.204084
91.5247553045
91.8359795199
92.1918181971
92.7406909939
93.6195828882
94.9164140585
96.5519235739
98.1822385149
99.3045777475
99.9761743357
101.972883604
108.443170197
117.915118903
114.720912107
73.3852402291
83.4689391757
83.5388771332
83.4265396251
83.2723089662
83.1090414016
83.0307510701
83.1909380108
83.7243861201
84.6890729149
85.9672420848
87.1998871073
87.9747921386
88.5376265342
90.6369763714
96.536492011
103.871029441
102.078031453
94.213154776
87.0202476042
87.3161816415
87.2705377803
87.2395914554
87.144403376
87.12598523
87.3134328238
87.8206340563
88.6755872204
89.7276867073
90.6217500528
91.033166271
91.2547756574
92.6017823793
96.0867322092
99.0912502535
96.056407949
76.6370878546
84.0532872533
84.9750805155
84.8546970072
84.8822776482
84.8455776088
84.9220267594
85.2045323121
85.7975345997
86.715978967
87.8248542174
88.8490270993
89.6173457989
90.4666692579
92.2269998444
94.8984442057
96.0495943326
93.073996228
92.6942128377
86.1111383682
85.7584096831
85.8577509798
85.8364255238
85.8094372444
85.8562572763
86.0625603561
86.4910994879
87.1330214262
87.8682198076
88.5173487093
89.0608110826
89.8609312829
91.3910013207
93.1963192735
93.4541623852
91.0749871493
81.7786433801
84.7743048953
85.1856696632
85.2088237463
85.3124959637
85.4044239408
85.594613204
85.9261597729
86.4282106998
87.0580927909
87.6980251345
88.2291574214
88.7027754788
89.4149357912
90.5624751554
91.5983444327
91.3755793801
89.5403611519
86.6987518746
85.1081495852
85.2207838977
85.2290979767
85.2984406765
85.3807450564
85.5670079733
85.886060544
86.3465459214
86.8936666371
87.4267268526
87.8750726371
88.3086737675
88.9155955902
89.7033093739
90.1933447735
89.7453022274
88.3092426197
85.0981634965
85.0287770642
85.1546030948
85.177961
85.2618219548
85.365508918
85.5600526048
85.8624168404
86.2677677106
86.7223649836
87.1512257028
87.5210608623
87.8952195946
88.3657932713
88.847235409
88.9858803484
88.4571356718
87.3088556653
85.2610442054
84.9765322769
85.1097231548
85.1364493585
85.2278199236
85.3434002671
85.5373277734
85.8147831716
86.1618442911
86.5307638692
86.8697517868
87.1669238842
87.4652621542
87.7897469923
88.0305032102
87.9555667283
87.4167853639
86.4786359927
85.136711999
84.9599240138
85.0772406799
85.112295306
85.2017193363
85.3194373653
85.5006674058
85.7437490159
86.0298148605
86.3200793974
86.5804950435
86.8076013294
87.0219046831
87.2104414219
87.2750602866
87.0772533362
86.5597286024
85.779257965
85.056652333
84.9477304161
85.0476076076
85.0870469221
85.1699729412
85.2818776464
85.4434946173
85.6495544145
85.8801748102
86.1050033879
86.3007767124
86.4647977626
86.6014512978
86.6840813536
86.6373743038
86.3806767711
85.8959718469
85.2281332602
85.0080036044
84.9517487612
85.0249587516
85.0660932997
85.1385462485
85.2394053278
85.3769159279
85.544242868
85.7221656197
85.8875732832
86.0240072648
86.1271931743
86.1911624146
86.1874246012
86.0635270832
85.7760692922
85.3262888196
84.7481967706
84.960165533
84.9591843136
85.0023634663
85.0408392482
85.0970722179
85.1802182526
85.2865508721
85.4099195514
85.5323842343
85.6372487403
85.7122977954
85.7512211891
85.743781509
85.6660873479
85.4861768589
85.1846680617
84.7718219215
84.2735217818
84.9158306671
84.9619227771
84.9754580674
85.0029500863
85.0377421449
85.0945647957
85.1640487621
85.2391683191
85.3056397852
85.3504939355
85.3645689421
85.3409494562
85.2698046778
85.1353529999
84.920333996
84.6191243614
84.2442921226
83.815518286
84.9040212694
84.970259866
84.9471025362
84.956763105
84.9624102363
84.9871370326
85.0142347266
85.0399758621
85.050985306
85.0386676783
84.9952614398
84.9153776296
84.7926133382
84.6182663236
84.3852939794
84.0934115092
83.7556380785
83.3856901566
84.9263576383
84.9839827153
84.9242787647
84.906689187
84.8787712659
84.8657878701
84.8492767899
84.8262172981
84.7858751859
84.7218565034
84.628901388
84.5038379692
84.3440626669
84.1462572992
83.9081202597
83.6319907092
83.3286141344
83.0094397654
84.7382901581
84.8758333324
84.7857312792
84.7325920018
84.6663141862
84.6128128898
84.5527088648
84.4834246891
84.3964172683
84.287445942
84.1536573669
83.9946708055
83.8102247218
83.6004219765
83.3642226107
83.1049097311
82.8297763793
82.5449302189
85.8180148966
85.4426298325
85.2094763622
85.1003169515
85.0002113514
84.9123656522
84.8174249126
84.7116692559
84.5891247024
84.4470741293
84.2849196894
84.1039111211
83.9055582117
83.691517734
83.4609479661
83.2174657593
82.9690595539
82.7335888563
82.181673194
83.4962329161
83.6458329724
83.6084708754
83.510817069
83.4128443855
83.3022101782
83.1808077338
83.0418450073
82.8875418104
82.7156839907
82.5317910908
82.3352637492
82.1297220607
81.9127011526
81.687113452
81.4532144611
81.1947559479
89.5258893334
86.601336597
85.8991443075
85.7400867294
85.6239305704
85.5038020287
85.3689243665
85.2155749395
85.0457376667
84.8573932292
84.6546530074
84.4391220437
84.2160534609
83.9851731463
83.7471051372
83.5008825493
83.2580071415
83.0678702928
75.9826590366
81.9754586438
83.0182025374
83.0327899468
82.9250031447
82.8121581155
82.679231825
82.5381593157
82.385663304
82.2227478288
82.0505024288
81.8693288137
81.6817340825
81.4878371399
81.2884703881
81.0865655577
80.8859729312
80.6318934891
97.6827650208
87.7387356646
85.816396251
85.7344379348
85.6316663251
85.5144629137
85.3720915445
85.2151468301
85.045935198
84.867720251
84.6800465771
84.4867834999
84.2883553638
84.0871191154
83.879813258
83.6630572879
83.4363678891
83.2820899809
65.4037556916
80.9843345325
83.6906831351
83.5227698972
83.4134463589
83.2474867174
83.0642536995
82.8614293259
82.6435728332
82.4139624624
82.1756537836
81.9314702507
81.6839973389
81.4329560064
81.1800147968
80.9333178231
80.7068636778
80.4178006239
110.23202732
89.4293482978
85.8051064831
86.1470735406
86.0158335947
85.9324678256
85.7917359253
85.652354505
85.508834457
85.3685477011
85.230298195
85.0917917254
84.9493610638
84.798805456
84.6357924651
84.453963656
84.2491065356
84.1382383998
56.750500733
79.654115737
83.5149880404
83.0593795012
82.9742134379
82.7473024369
82.5456343442
82.3191088839
82.0902698535
81.8583304219
81.6229978798
81.3784719747
81.1198645929
80.843578896
80.5526976208
80.2654444994
80.0135300905
79.6778390051
107.475692069
88.7530833437
86.9783620773
87.2717663806
87.1026958212
86.9784196128
86.8049983108
86.6347686737
86.4576679484
86.284308977
86.1122765953
85.9381476773
85.7631822768
85.5901368767
85.4296276486
85.2925254091
85.1691709901
85.1669287456
63.4227416263
81.6665273498
82.1805527938
82.0960915635
81.8968154988
81.7419916207
81.571801272
81.3947181129
81.2129690427
81.0318538629
80.8500250544
80.6650184045
80.47792424
80.2878306954
80.0929698939
79.8911861695
79.6769984115
79.2773929339
101.348979321
90.9707263328
90.1061374564
89.9675043344
89.7765768814
89.5900253862
89.397445697
89.1926330803
88.9780820473
88.7565353522
88.5268748989
88.288326257
88.0431532205
87.7865102566
87.5059000065
87.1807666525
86.7681558684
86.4557743872
77.6591636111
76.8023720947
76.7708166021
76.6206560696
76.6454814199
76.6318140699
76.6218475098
76.5980114444
76.5617504662
76.5138487588
76.4548657556
76.3893484898
76.3250023487
76.2638806391
76.1976013245
76.129748245
76.1278803518
76.1851473501
76.1361207338
76.120993882
76.1049490674
76.0905103756
76.0850092523
76.0875567703
76.0947232956
76.102033571
76.1109132022
76.1255532623
76.1508839722
76.1921837873
76.25062456
76.3265723031
76.4157481289
76.5150339393
76.6184955024
76.7232623535
76.8248849355
76.922488207
77.0139873423
77.1002406296
77.1808198164
77.257450754
77.3304833077
77.4016040359
77.4715428374
77.5415002442
77.6121110424
77.6838572371
77.7573980044
77.8324524981
77.9096981432
77.9881941646
78.0685464418
78.1492618529
78.2308972756
78.3117837269
78.3922333972
78.4706599699
78.5471186118
78.6203565672
78.6900464164
78.7555653838
78.8161560573
78.8720985849
78.9221747838
78.9674998628
79.0067688479
79.0415952613
79.0706569125
79.0958459704
79.1158758133
79.1322008003
79.144225809
79.1529752215
79.1580773118
79.1600008707
79.1588195226
79.154493472
79.1474042108
79.1371332517
79.1244353889
79.1100830593
79.0964642659
79.0835131449
79.0706240193
79.057626025
79.0444617859
79.0321747388
79.0207518607
79.011460457
79.0038067486
78.9989812521
78.996048858
78.9958392025
78.9972839783
79.0010474898
79.0061434075
79.0135052077
79.0220325137
79.0326190202
79.0440134683
79.0570690343
79.0697008345
79.0823737341
79.0929377833
79.101845081
79.1085597561
79.1138296893
79.1204723882
79.1251212254
79.1244846856
79.1146221782
79.0931235644
79.056318521
79.0018435486
78.9268177754
78.8301379187
78.7098696377
78.5661438306
78.4007210718
78.2190793059
78.0302615408
77.8433746646
77.6731893249
77.5387593393
77.4484406452
77.3742429898
77.2913408146
77.1930732568
77.0637627342
76.9365911935
76.8264180074
76.7138642277
76.612317118
76.5419311974
76.5058428265
76.5002587469
76.5218192102
76.567023028
76.6329745714
76.716273724
76.8149853943
76.9271543321
77.0526244754
77.1903323441
77.3406583417
77.5026057046
77.6768028186
77.8623884265
78.0605237984
78.2710587574
78.4966005658
78.7386731937
79.0014732525
79.2876048852
79.6013591107
79.944613857
80.3199596656
80.728791499
81.172271763
81.6507357287
82.1636160416
82.7100061513
83.2878009904
83.8949884188
84.5277087509
85.1822088529
85.8519218595
86.5305088284
87.2076034476
87.8735090899
88.512750035
89.1111689047
89.6460741714
90.0968710812
90.4305320562
90.6173837403
90.6105723415
90.3691795465
89.8299285011
88.9396838187
87.6170091894
85.7962975446
83.3768009229
80.2797608681
76.3809689683
71.5838175577
65.7401994724
58.740690497
50.4172501592
40.6335608265
29.1975370353
15.9721722758
0.719501401017
-16.8490250808
-37.1492435807
-60.486581674
-86.9896723318
76.1060780875
76.0854289837
76.070365674
76.0536588016
76.0352186714
76.0159923672
75.998985285
75.9888963509
75.9889985595
76.0035094281
76.0355317216
76.087339951
76.1576981802
76.2450031015
76.3449797999
76.454747634
76.569971951
76.6885647203
76.8074759256
76.9258610887
77.0419749497
77.1559670137
77.267028327
77.3756922231
77.48167578
77.5855861897
77.6873327707
77.7872916092
77.8854102146
77.9816287207
78.0758850201
78.1676783411
78.2569440608
78.3426933044
78.424758524
78.5018526103
78.5736795576
78.6387924575
78.6967474141
78.7461436526
78.7863489534
78.8162332299
78.8350057737
78.8420187377
78.8364042431
78.8181856613
78.7865636213
78.7422034643
78.6844807694
78.614698222
78.5325933359
78.4394773128
78.3354470646
78.2218490383
78.0991412174
77.9685361274
77.8307399809
77.6866054392
77.5370569133
77.3827411197
77.2248453769
77.0639421862
76.9003156507
76.7319390134
76.5583050675
76.3816713376
76.2044298045
76.0278435477
75.8529888103
75.6811551631
75.5134379268
75.3513305651
75.1957805982
75.0480405651
74.9087638991
74.778748193
74.6580917836
74.5472307091
74.446067084
74.354816123
74.2731148492
74.201184984
74.1386844376
74.0860145086
74.0428266921
74.0101172205
73.9885197033
73.9804010205
73.9878520374
74.0167507039
74.0702678786
74.1493360674
74.2509425078
74.3712644318
74.5056261423
74.6485292822
74.7932356527
74.9329201618
75.0619117599
75.1753194672
75.2694418954
75.3462654495
75.4145714548
75.4825112523
75.5604708413
75.6734956183
75.8386493759
76.044523441
76.2736951206
76.5089543523
76.7206855452
76.8829654826
77.0063127071
77.1176363629
77.2243405433
77.3001656572
77.381044463
77.474107589
77.5784786801
77.6928265166
77.8158689774
77.9459808077
78.0814070841
78.2208428695
78.3637385736
78.5101178083
78.6602102267
78.8144672051
78.97332811
79.1375840274
79.3080618406
79.4863471893
79.6743676101
79.8752509532
80.0924200648
80.329859116
80.5906120765
80.8775261302
81.192745657
81.5388081734
81.9175025991
82.3303240561
82.7777178797
83.2592836042
83.7738175608
84.3195011969
84.8939092269
85.4937201613
86.1146130808
86.7507849833
87.3950494653
88.0381527649
88.6692133541
89.2743496104
89.8377416803
90.3388767578
90.7548532235
91.0555221957
91.2081609724
91.1696810055
90.8952712725
90.3264975622
89.4054977512
88.0566940745
86.2087212085
83.7676481327
80.6471936996
76.728593991
71.9046732559
66.0329352897
58.9959633176
50.6309932977
40.7976417496
29.327112118
16.10694436
0.933175866741
-16.4803796679
-36.6341887381
-59.7816420166
-86.2009673301
76.0689712957
76.0369640174
76.0053149041
75.9624662439
75.9060298227
75.8478420223
75.7972854936
75.75671951
75.7272462415
75.7116115428
75.7113231859
75.7267527669
75.7549339064
75.7931450146
75.8371797353
75.8848253928
75.9331981917
75.9814484691
76.0279466858
76.0726363507
76.1146620361
76.1542714314
76.1910596053
76.2254404431
76.2572967905
76.2870586266
76.3148652183
76.34109574
76.3660295348
76.3899135823
76.4131363991
76.4357652224
76.4582346411
76.4804032824
76.5026904449
76.5246999378
76.546780878
76.5683999315
76.5897093899
76.6101317463
76.6296404348
76.6477469862
76.6642353282
76.6788657631
76.691288253
76.7016363618
76.7094932532
76.715340681
76.7188649721
76.7207125823
76.7206748195
76.7195269961
76.7170798124
76.7139442365
76.7101865234
76.7062205065
76.7021269764
76.6980008447
76.6939258066
76.6897259155
76.6853729593
76.680853958
76.6778742341
76.6779455768
76.6803525342
76.6836095169
76.6876975868
76.6928112206
76.69868246
76.7049912465
76.7112150731
76.7171015617
76.722181838
76.726316804
76.7289997575
76.7299474459
76.728644929
76.7247336324
76.7177251314
76.7072467906
76.6927158099
76.6736682238
76.6494207313
76.6193141876
76.5824587009
76.5383871977
76.487004506
76.4288467796
76.3667365207
76.3050573957
76.2500864604
76.2052256519
76.1717433223
76.1514591144
76.1442514295
76.150125866
76.1655850832
76.1857706599
76.2034179351
76.2115700996
76.2027227578
76.1753164226
76.1300042692
76.0659616045
75.9955225694
75.9435930313
75.9297885587
75.9699354172
76.057616237
76.1715155153
76.3050498342
76.4677298349
76.6354225149
76.7639386684
76.8716766788
76.9401048177
76.9886180288
77.0347515771
77.0877956737
77.1519701749
77.2291683797
77.3189993223
77.4206048032
77.5325185951
77.6543472129
77.7854069695
77.9260183999
78.0759678059
78.2360642785
78.4065867201
78.5891258963
78.7847793152
78.995806894
79.223682547
79.4706942046
79.7383165007
80.0290164636
80.3445659645
80.6876222425
81.0604362734
81.4654611995
81.9039544307
82.3762407261
82.8816827584
83.4190079707
83.9862429677
84.5809930563
85.1998302079
85.8385832215
86.4913550867
87.1512896411
87.8090859065
88.4544016691
89.0733351413
89.6508147954
90.1663581522
90.5979941884
90.9156016948
91.087431634
91.070366969
90.8203638477
90.2787795724
89.3882081886
88.073288558
86.2632060244
83.8647980421
80.7912263385
76.9251973715
72.1586702679
66.3472447264
59.3599411567
51.0228399408
41.1845252349
29.6742630633
16.3562693233
1.02826665854
-16.5112883253
-36.5387590573
-59.2162111419
-84.7592245632
76.0084772791
75.8896898278
75.8679626963
75.8539811633
75.8138261059
75.7724012622
75.7437685916
75.7252774741
75.7136876136
75.7107897764
75.7184424536
75.7376824449
75.7662511877
75.802293946
75.8427097584
75.8862935931
75.9311627972
75.9770646511
76.0229457801
76.0688266061
76.1139487446
76.158333029
76.2014202829
76.243156668
76.2831908865
76.3214935004
76.3578644133
76.3923080792
76.424772832
76.4552751715
76.483854655
76.5105122963
76.5353740348
76.5583291149
76.5795086339
76.5987150345
76.6160197317
76.6310798311
76.6439232543
76.6541413366
76.6616571528
76.6661268728
76.6673942772
76.6652943597
76.6596278209
76.6504781525
76.6376655666
76.6214904826
76.6017534481
76.5789708623
76.5530145861
76.5243341365
76.4929049067
76.4591696823
76.4230878586
76.3849837131
76.3448656797
76.3028257493
76.2588728638
76.2129686449
76.1652637887
76.1148914954
76.0606149099
76.0021961403
75.9414459983
75.8787946993
75.814673005
75.7498586184
75.685514957
75.6228169215
75.5628650609
75.5068006504
75.4555214252
75.4098210158
75.3702468612
75.3371696014
75.3106443763
75.2906961374
75.2771788892
75.2699022822
75.2685733879
75.2728989129
75.2824565225
75.2967579917
75.3151397939
75.336950029
75.3614995221
75.3885130584
75.4180952426
75.4533086153
75.4960773971
75.5467684689
75.604733894
75.669554734
75.7419226374
75.822396855
75.9106503657
76.0040572919
76.0986595284
76.1883089076
76.2657409396
76.3234018553
76.3516354382
76.3450817266
76.3088673118
76.2506230747
76.1914514938
76.1508993385
76.1142460385
76.0914295657
76.1314459047
76.2778137136
76.4756653877
76.6595845753
76.8169037768
76.9410687935
77.0461789886
77.146621185
77.250989201
77.3633726536
77.4851121271
77.6155893002
77.7535239475
77.8976064398
78.0471725979
78.2018008718
78.3616658382
78.5269613073
78.6984945675
78.8770711631
79.0643142569
79.2616224391
79.471078587
79.6943057016
79.9336162402
80.1912184788
80.4704857506
80.7746190604
81.1062460456
81.4682490521
81.8630351658
82.2917708695
82.7545681381
83.2510096088
83.7797206719
84.3390667715
84.9264566583
85.5388204138
86.1716524905
86.8195137245
87.4750513194
88.1295468935
88.7719341515
89.3891128392
89.9649606744
90.4800864737
90.9111299819
91.2294781641
91.4014976058
91.3859774527
91.1362868716
90.5961335177
89.7047523646
88.3902352878
86.5781151302
84.1799497003
81.1053196776
77.2447825622
72.487171092
66.6937625748
59.7176572639
51.3839231776
41.5236384763
29.9498003718
16.4845509617
0.920731265455
-16.8468127575
-36.7936135907
-58.9995288523
-83.4918614478
75.9494387973
75.6266973177
75.664249324
75.7404026357
75.7549743398
75.7542239636
75.7576339527
75.7591709189
75.7556027981
75.7512820068
75.75050707
75.755990122
75.7670411596
75.7830595555
75.8021685964
75.8238301363
75.8467407162
75.8707417795
75.8949357798
75.9192091078
75.9428924338
75.9657782138
75.9873685101
76.0074534063
76.0257017872
76.0419407456
76.0560236059
76.067874391
76.0774717543
76.0848519315
76.0900958197
76.0933280274
76.0946679397
76.0942992075
76.0923761209
76.088993466
76.0843301953
76.0784022707
76.0713340551
76.0630731095
76.0537320044
76.0432607525
76.0317619695
76.0192798871
76.0059273544
75.9918887838
75.9772770229
75.9623913245
75.9473750383
75.9325404044
75.9180012818
75.9041659375
75.8910779745
75.879086379
75.8682515436
75.858830742
75.8507864226
75.8442072477
75.8389625605
75.8350027503
75.8324891717
75.8322316276
75.834436812
75.8375181735
75.8400625936
75.8414379371
75.841302366
75.8393170241
75.8353289287
75.8293438478
75.8215426098
75.8122577233
75.8019021056
75.7910266057
75.7800320415
75.7693410418
75.7592384108
75.7499146063
75.7414255203
75.7337387296
75.7266956458
75.7200376113
75.7134157007
75.7063772321
75.6984713479
75.6892864306
75.6787696345
75.667052281
75.6558900904
75.6477911253
75.6472487366
75.6542192628
75.6684435289
75.688822591
75.716630911
75.7530183304
75.8001037019
75.8587155292
75.9308365776
76.0146126928
76.1061426819
76.1991151514
76.2842798433
76.3505984367
76.3895591823
76.4073784087
76.4150231715
76.3855798357
76.3036154399
76.2183979618
76.2125138641
76.3252544782
76.496711189
76.6676279186
76.8169920436
76.9399905464
77.0444080247
77.1404683676
77.2356156885
77.3349432205
77.4406131994
77.5536399682
77.6734713769
77.8002104192
77.9333261708
78.0733693854
78.2201757515
78.3747392872
78.5372963896
78.7093955274
78.8917288385
79.0864500501
79.2948789525
79.5196158632
79.7623330217
80.0259841305
80.3130383054
80.6263549868
80.9675761888
81.3391508775
81.7431420091
82.180382174
82.6509695015
83.1542612824
83.689217684
84.2540097133
84.8464289821
85.4631518012
86.1001121599
86.7516058299
87.410791013
88.0686421799
88.7146601694
89.3354151774
89.9153763966
90.4347464692
90.8707043901
91.1942262716
91.3721373865
91.3627365008
91.1196315919
90.5859444128
89.7008462971
88.3917885567
86.5840223086
84.1885488193
81.1149626896
77.2542385259
72.4957044318
66.700985284
59.720607772
51.3789400927
41.5019675392
29.8954573201
16.3643386758
0.704186156276
-17.1495554889
-37.0519866872
-59.0292822846
-83.0145089125
75.9065719146
75.2318806638
75.4128583717
75.6347973053
75.7158363109
75.7542661451
75.7826100803
75.7977023506
75.80035625
75.7976103094
75.7947962915
75.7950203768
75.7983823506
75.8049828414
75.8137957973
75.8246544069
75.8366743971
75.849720335
75.863111423
75.8766627132
75.8898378828
75.9023939372
75.9139354982
75.9241719001
75.9328472534
75.9397058958
75.9445890174
75.947333454
75.9478665575
75.9461638822
75.9422067937
75.936119282
75.9279556332
75.9179094239
75.9060727507
75.8926900365
75.8778565255
75.8617472236
75.8444991896
75.8262164438
75.807044539
75.787067536
75.7664626803
75.7453415705
75.7239189762
75.7023497138
75.6808751154
75.6596637892
75.6389050006
75.6187895946
75.599448927
75.5810069684
75.5635438974
75.5471975375
75.5319230102
75.5177928664
75.5046223491
75.4922937322
75.4804039264
75.4686102779
75.4561324278
75.4421738124
75.4270791471
75.4119647299
75.3972022124
75.3828288225
75.3690274123
75.3559681799
75.343941995
75.333230965
75.324143931
75.3169828043
75.3119623512
75.3092221773
75.308838467
75.310837119
75.3151292918
75.3216942011
75.3304612784
75.3414076003
75.3544875554
75.3696538501
75.3868193321
75.4057806261
75.42633438
75.448084113
75.4708478798
75.4946085583
75.5196176134
75.5492185638
75.5844115872
75.6252732819
75.6682500611
75.7104684309
75.7495649679
75.7854396285
75.8192743549
75.8551681383
75.8988764855
75.954605822
76.0249994991
76.1084950351
76.1941009294
76.2693213725
76.3389557439
76.4230402412
76.5054512059
76.5247437777
76.4636921907
76.385809049
76.3719137733
76.4474580516
76.5732525529
76.7101713656
76.8397482961
76.9558869835
77.0613507142
77.1617623756
77.262390124
77.3669287547
77.4771708283
77.5935832637
77.7159184742
77.8440165115
77.9777657993
78.1174606382
78.2633919349
78.416316013
78.5769494024
78.7466172199
78.9266225786
79.1190406097
79.3256900205
79.5489657993
79.7908566594
80.0540422507
80.3412427932
80.6550497961
80.9972359284
81.3703061767
81.7762971475
82.2157347777
82.6885715243
83.1941603455
83.7314491154
84.2987164359
84.8937097623
85.5132166299
86.1530555995
86.8076709771
87.4700344865
88.1313572858
88.7808397503
89.4054148771
89.9891477724
90.5128227754
90.9529523841
91.2813034697
91.463693159
91.4595422655
91.2209830018
90.6925999798
89.8113815978
88.5063563423
86.6994545901
84.3032745793
81.2231012274
77.3517866649
72.5740739791
66.7559113956
59.7482442635
51.384248227
41.4919505677
29.8884748985
16.3835475285
0.783969897167
-16.9999350319
-36.8899837984
-58.9340673827
-83.1150976143
75.8316970386
74.7143311529
75.1676545247
75.5524593261
75.6735000195
75.7303626035
75.769085966
75.7914966454
75.8003736807
75.8024113805
75.802009601
75.8016205626
75.8016683387
75.8025904892
75.8040213253
75.8060633111
75.808288818
75.8106841942
75.8128763486
75.814763413
75.8160610623
75.8165819192
75.8161247003
75.8144673036
75.8114703623
75.8069159781
75.8007228713
75.7927426098
75.7829385092
75.7712855244
75.7577999263
75.7425971573
75.7257200266
75.70742336
75.6877951813
75.6671049491
75.6454925739
75.6232120766
75.6004048119
75.5772700317
75.5539840839
75.5307012788
75.5076397873
75.4849436697
75.4628785527
75.4415898063
75.4213640282
75.4023345408
75.384782099
75.3687946051
75.3545814268
75.3422549455
75.331921444
75.3236792227
75.3175668215
75.3136672553
75.3118662988
75.3120943902
75.3140317089
75.3176454069
75.3229791387
75.3298560573
75.337207028
75.3442148589
75.350323523
75.3548208848
75.3570104466
75.35646282
75.35321372
75.3477009374
75.3407581733
75.3333524943
75.3264880158
75.3210422603
75.3176221772
75.3166082994
75.318159056
75.3222349184
75.3286679368
75.3372449556
75.3476866863
75.3597418695
75.3731003759
75.3874552445
75.4025787914
75.4183402907
75.4350704253
75.4531367282
75.4748041625
75.50297739
75.541411427
75.5899320239
75.6447330452
75.7027073199
75.7595587693
75.813176781
75.8615354759
75.9068377037
75.9523690197
76.0000836036
76.0492875449
76.0901375345
76.1098881548
76.124864711
76.1830614171
76.3090888802
76.4535667544
76.5353688868
76.5346243755
76.5034881103
76.5034241707
76.5559239095
76.6455921279
76.7515221729
76.8604162767
76.965387764
77.0659038334
77.1639985208
77.2630528019
77.3653292255
77.4727080914
77.5854980433
77.7044275035
77.8293300714
77.9609634706
78.099212534
78.2449849965
78.3982784948
78.560332951
78.7315570583
78.9138131329
79.1080285514
79.3165245798
79.5407146149
79.7834528165
80.0471367099
80.3351223853
80.6496272668
80.9927202987
81.3668484418
81.7737053533
82.2136305003
82.686422206
83.1916361458
83.728117274
84.2944326314
84.8882335754
85.5065852398
86.1452173354
86.7988148559
87.4602900647
88.1210656568
88.7703191525
89.395121507
89.9795703676
90.5045453216
90.9466678507
91.2776584576
91.4634525224
91.4633040242
91.2294806889
90.7062772331
89.8305849372
88.5307113258
86.7275728978
84.3324453404
81.2484280737
77.3665797712
72.568962477
66.7227869511
59.6839157484
51.294033046
41.3908241148
29.8064180027
16.3710921405
0.898445342323
-16.7492281804
-36.6541945515
-58.9351436202
-83.6988102175
75.6648699734
74.134032387
74.9753625414
75.4789253365
75.5988181892
75.6596415789
75.7021854492
75.7319495393
75.7490244288
75.7585085274
75.7635421976
75.7660807577
75.7668569423
75.766539126
75.7652714619
75.7633611778
75.7607891367
75.7576793458
75.7539746264
75.7496681113
75.7446948611
75.7389502896
75.7323762973
75.7248015157
75.7161806216
75.7063309044
75.6952169684
75.6827055305
75.6687834513
75.6534207855
75.6366267535
75.6184998401
75.5991002601
75.5786116742
75.5571268172
75.5348995754
75.5120303311
75.4887458592
75.4651740832
75.4414841545
75.4178122485
75.3942804962
75.3710547147
75.3482301633
75.3260127199
75.3044857396
75.2838894415
75.2642979803
75.245946431
75.2289244943
75.2134441324
75.1995821994
75.1874858312
75.1772372941
75.1688572523
75.16242688
75.1578777191
75.1551826359
75.1538905234
75.1534863356
75.1533424537
75.1539092449
75.1556571007
75.1589230925
75.1636176035
75.1692693447
75.1749596959
75.1796712771
75.1826922907
75.1837891572
75.1832768176
75.1818556394
75.1804214083
75.1798365238
75.1808808629
75.1841114694
75.1898475059
75.198245715
75.2092923395
75.222880698
75.2388738491
75.2572132634
75.2775412623
75.2996973952
75.3228624085
75.3469818399
75.3714058247
75.397006579
75.4246550217
75.4589565784
75.5028245541
75.5571765451
75.620372057
75.6903294495
75.7652386676
75.8430543509
75.9207515124
75.9930285645
76.0548358935
76.094705696
76.0943778696
76.0427995432
75.9628687857
75.921881591
75.9883588789
76.1625795993
76.3614629085
76.5002650752
76.5605553069
76.5790561305
76.6000532366
76.645407446
76.7148378613
76.8001262495
76.893033296
76.9881295862
77.0835198088
77.1797469197
77.278461856
77.3811568012
77.4888346717
77.6019071757
77.7206705472
77.8451992693
77.9757834673
78.1125603436
78.2560334656
78.4065902138
78.5652152879
78.7328477723
78.9111739258
79.1016923161
79.3066598163
79.5281253737
79.7689503086
80.0319444265
80.3200112698
80.635185988
80.9796044342
81.3555218161
81.7641391999
82.2056064477
82.6797288004
83.1860063617
83.7233784779
84.2903588647
84.8847037966
85.5033960285
86.1422881937
86.7959513594
87.4574692905
88.1181323665
88.7673777282
89.3921160852
89.9767699535
90.5019887679
90.9448192061
91.2766687069
91.4639708491
91.4655055388
91.2340994465
90.7133595269
89.8406419057
88.5429885212
86.7411394925
84.3442609806
81.2544052176
77.3597565853
72.5409427603
66.6647841599
59.5920665401
51.1717051895
41.2511336212
29.6775880225
16.3008805369
0.942195597061
-16.5839270848
-36.5060326276
-59.0350657452
-84.3942430864
75.3846308695
73.5773952952
74.8328498904
75.3728839824
75.4709473312
75.5373415738
75.5838676131
75.6228289926
75.6482008116
75.6653847179
75.6764976391
75.6834219153
75.687161922
75.6884854766
75.6878834563
75.6857650733
75.6824115041
75.6780378645
75.6728216797
75.6668265902
75.6601498888
75.6527285242
75.644603955
75.6356389698
75.625843817
75.6150645891
75.6033062408
75.5904472966
75.5765032886
75.5614265875
75.545268446
75.5280721195
75.5099174804
75.4909394131
75.4712541541
75.4510125505
75.4303599602
75.4094360313
75.3883722533
75.3672605986
75.3462362204
75.3253435705
75.3047320845
75.284417818
75.2645758391
75.245210234
75.2265207025
75.2085177457
75.1914364907
75.1753258687
75.1604558575
75.1469584969
75.1350895206
75.1249908421
75.1168509455
75.110817122
75.1070528277
75.1057693445
75.1068696896
75.109805406
75.1134000406
75.1169458996
75.1203954662
75.1242553393
75.1288825344
75.1341325612
75.1392923947
75.1434796975
75.1460599632
75.1468535704
75.1462217221
75.1448409037
75.1435415088
75.1431828093
75.1443407618
75.1475582869
75.1529863521
75.1608592608
75.1709141936
75.1831724816
75.1973464744
75.2137048223
75.2323319005
75.2530016968
75.2756269785
75.2995510098
75.3252470348
75.3527143762
75.3844968509
75.4233987267
75.4733639041
75.5344133985
75.6065617341
75.6889640413
75.7805163462
75.8781466684
75.9759206465
76.0595519106
76.1083902762
76.0987336504
76.0156289484
75.8779219093
75.7538231609
75.7315480849
75.8521720684
76.0733841807
76.3022963238
76.4709010596
76.5666607535
76.6161083445
76.651732188
76.694508773
76.7509599942
76.8202917017
76.8984631916
76.9822760459