/*--------------------------------*- C++ -*----------------------------------*\
| =========                 |                                                 |
| \\      /  F ield         | OpenFOAM: The Open Source CFD Toolbox           |
|  \\    /   O peration     | Version:  v1806                                 |
|   \\  /    A nd           | Web:      www.OpenFOAM.com                      |
|    \\/     M anipulation  |                                                 |
\*---------------------------------------------------------------------------*/
FoamFile
{
    version     2.0;
    format      ascii;
    class       surfaceScalarField;
    location    "20";
    object      phi;
}
// * * * * * * * * * * * * * * * * * * * * * * * * * * * * * * * * * * * * * //

dimensions      [0 3 -1 0 0 0 0];
oriented        oriented;


internalField   nonuniform List<scalar> 
24170
(
3.07344435746e-06
1.14963197691e-07
2.98642990966e-06
8.70157589095e-08
2.90633477175e-06
8.00968504062e-08
2.82914648342e-06
7.71907420645e-08
2.75509097334e-06
7.40572663894e-08
2.68429173606e-06
7.08015426055e-08
2.6165880901e-06
6.7705226258e-08
2.5517510474e-06
6.48391386072e-08
2.48953904853e-06
6.22135355054e-08
2.42969735598e-06
5.98436325015e-08
2.37194524004e-06
5.77535940602e-08
2.31596792485e-06
5.59790934531e-08
2.26139737625e-06
5.45720656342e-08
2.20777973543e-06
5.36193220895e-08
2.15449962961e-06
5.32817887997e-08
2.10057573036e-06
5.39261217063e-08
2.0438895861e-06
5.66891616271e-08
6.62364426774e-08
1.97765580359e-06
3.43153753375e-06
1.00675900402e-07
3.42638757231e-06
9.21668524305e-08
3.41936177257e-06
8.71241638713e-08
3.40928467865e-06
8.72699476772e-08
3.39663145975e-06
8.67121254227e-08
3.38204498047e-06
8.53900261433e-08
3.36587158214e-06
8.38801519888e-08
3.34831960741e-06
8.23929475991e-08
3.32953065384e-06
8.10040187555e-08
3.30958795768e-06
7.97880672988e-08
3.28850918888e-06
7.88338961124e-08
3.2662413486e-06
7.82486145702e-08
3.24264410936e-06
7.81709368513e-08
3.21745687662e-06
7.88082836745e-08
3.19022384149e-06
8.05166912412e-08
3.16015306053e-06
8.39991806058e-08
3.12597060769e-06
9.08745488581e-08
1.03425470924e-07
3.08878342241e-06
3.67995396169e-06
8.32401401139e-08
3.684281052e-06
8.78410454904e-08
3.68683337246e-06
8.45734162151e-08
3.68823975893e-06
8.5865575631e-08
3.6882724179e-06
8.66810100592e-08
3.68713972734e-06
8.65245168594e-08
3.68496028361e-06
8.60609308063e-08
3.68176222276e-06
8.55925623233e-08
3.67754045218e-06
8.52270157162e-08
3.67226854673e-06
8.50613359654e-08
3.66589060348e-06
8.52129490565e-08
3.65831482189e-06
8.58255747614e-08
3.64940112765e-06
8.7085672525e-08
3.63894471707e-06
8.92657269132e-08
3.62665742976e-06
9.28049931731e-08
3.61220130036e-06
9.84564888548e-08
3.5955347129e-06
1.07542461134e-07
1.20857373661e-07
3.57810282098e-06
3.93966083217e-06
6.89687749975e-08
3.94564753794e-06
8.18554701086e-08
3.94901222294e-06
8.12101813767e-08
3.95164659091e-06
8.32330344922e-08
3.95334003425e-06
8.49891485339e-08
3.95418221265e-06
8.56840754391e-08
3.95428607803e-06
8.59585526546e-08
3.9536774329e-06
8.62028062501e-08
3.95233735662e-06
8.65685545786e-08
3.95022603245e-06
8.71741727152e-08
3.94728215143e-06
8.81582589709e-08
3.94342109277e-06
8.96880931479e-08
3.93853196202e-06
9.19762343586e-08
3.93247996866e-06
9.53191460443e-08
3.92512822229e-06
1.00158183805e-07
3.91643142853e-06
1.07154834914e-07
3.90673316262e-06
1.17242315296e-07
1.30757171802e-07
3.89683443654e-06
4.21847131707e-06
5.76258466186e-08
4.22491603572e-06
7.54120495754e-08
4.22839264425e-06
7.77350707995e-08
4.23110383597e-06
8.05236078559e-08
4.23301286556e-06
8.30815777808e-08
4.23411906248e-06
8.45794379305e-08
4.23452104253e-06
8.55578396577e-08
4.23425770931e-06
8.64674790311e-08
4.23331935261e-06
8.75080590898e-08
4.23167506841e-06
8.88196214591e-08
4.22927792999e-06
9.05564238712e-08
4.22606650289e-06
9.29005271211e-08
4.22196855081e-06
9.60751090207e-08
4.21691521833e-06
1.00373331538e-07
4.21087992376e-06
1.0619427526e-07
4.20397234878e-06
1.14063227748e-07
4.19662713033e-06
1.24588281124e-07
1.37926133655e-07
4.18945787818e-06
4.51808227157e-06
4.8631809181e-08
4.52453143708e-06
6.89640373576e-08
4.5281586696e-06
7.41092524158e-08
4.53089265548e-06
7.77912171092e-08
4.53288855828e-06
8.10872013415e-08
4.53409514252e-06
8.33743802234e-08
4.53458060621e-06
8.50738219893e-08
4.53438968817e-06
8.66598219355e-08
4.53352177415e-06
8.83773640646e-08
4.53195478748e-06
9.03879520652e-08
4.52965563802e-06
9.28569000123e-08
4.52658509903e-06
9.59723494001e-08
4.5227064314e-06
9.99550135861e-08
4.51800582678e-06
1.05075085063e-07
4.51253500951e-06
1.11666160472e-07
4.50648784749e-06
1.20111367311e-07
4.50030979221e-06
1.30767148903e-07
1.43639025128e-07
4.49459783374e-06
4.83983883203e-06
4.15141721647e-08
4.84600333996e-06
6.28008029474e-08
4.84976082764e-06
7.03531931135e-08
4.85251723783e-06
7.50363151972e-08
4.85456834229e-06
7.90374825499e-08
4.85585820867e-06
8.20858452355e-08
4.85642225382e-06
8.45109939582e-08
4.85630354487e-06
8.67796896541e-08
4.85550912038e-06
8.91728775385e-08
4.85402584727e-06
9.18722466687e-08
4.85183450494e-06
9.50492126309e-08
4.84891817791e-06
9.88895912261e-08
4.8452740484e-06
1.03599994132e-07
4.84093590011e-06
1.09413983655e-07
4.836012738e-06
1.16589972134e-07
4.83074350527e-06
1.25381212161e-07
4.82555051198e-06
1.35960863752e-07
1.48221812675e-07
4.82096681384e-06
5.18522960562e-06
3.58666255029e-08
5.19093604448e-06
5.70955619228e-08
5.19476578806e-06
6.65247902321e-08
5.19756228969e-06
7.22412659176e-08
5.19967382727e-06
7.69273431895e-08
5.20106451936e-06
8.06965585387e-08
5.20174089269e-06
8.38359427816e-08
5.20173786601e-06
8.67840402448e-08
5.20106887342e-06
8.98431150767e-08
5.19973152417e-06
9.32108390433e-08
5.19772244337e-06
9.70594791096e-08
5.19504835576e-06
1.01564831087e-07
5.1917392754e-06
1.06910115852e-07
5.18786978966e-06
1.13284405685e-07
5.18358976733e-06
1.208707793e-07
5.17915881684e-06
1.29812885504e-07
5.17496554979e-06
1.40154116713e-07
1.51713328748e-07
5.17147447678e-06
5.55584180985e-06
3.13633884e-08
5.56100876855e-06
5.1929822423e-08
5.56483948937e-06
6.26953733917e-08
5.56768635892e-06
6.93957279564e-08
5.56986736326e-06
7.47475984398e-08
5.5713726738e-06
7.91924460243e-08
5.57219000993e-06
8.30197326569e-08
5.57234434188e-06
8.66307737673e-08
5.57185508237e-06
9.03333895891e-08
5.57073241335e-06
9.43344701501e-08
5.56899042875e-06
9.88024147799e-08
5.56665946632e-06
1.03896679189e-07
5.56379936447e-06
1.09771048436e-07
5.56051718519e-06
1.16567294578e-07
5.55698875453e-06
1.24399818136e-07
5.55347601255e-06
1.33326073227e-07
5.55032558754e-06
1.43305115496e-07
1.54120335894e-07
5.54791764753e-06
5.95339884652e-06
2.77417698914e-08
5.95801282669e-06
4.73170395471e-08
5.96177926605e-06
5.89302360455e-08
5.96467969876e-06
6.64966165368e-08
5.96694719482e-06
7.24814474259e-08
5.96859049538e-06
7.75504438066e-08
5.96958847675e-06
8.202305404e-08
5.96995665365e-06
8.6263838681e-08
5.96971883299e-06
9.05724485249e-08
5.9688976655e-06
9.51568903448e-08
5.96752440869e-06
1.00176865099e-07
5.96565107807e-06
1.05771103939e-07
5.96336235651e-06
1.120607981e-07
5.96078865766e-06
1.19141881307e-07
5.95811886175e-06
1.27070406707e-07
5.9556054385e-06
1.35840201854e-07
5.95355249575e-06
1.45357969066e-07
1.55397891884e-07
5.95227541996e-06
6.37976065161e-06
2.47944124463e-08
6.38385474455e-06
4.32242080719e-08
6.38751156093e-06
5.5274727207e-08
6.39046708057e-06
6.35424410237e-08
6.39284546743e-06
7.01043447593e-08
6.39465931775e-06
7.57378746637e-08
6.39588485204e-06
8.07987265665e-08
6.39653015649e-06
8.5619741409e-08
6.39662196126e-06
9.04818344653e-08
6.39619443457e-06
9.55856005375e-08
6.39529490554e-06
1.01077515973e-07
6.3939942329e-06
1.07072919519e-07
6.39239623842e-06
1.13659807497e-07
6.39064582596e-06
1.20893277604e-07
6.3889342397e-06
1.28782844415e-07
6.38749582925e-06
1.37279276234e-07
6.38659179572e-06
1.46262859709e-07
1.55518861777e-07
6.38647060595e-06
5.74293340413e-06
2.26967201119e-08
5.7460375658e-06
4.01214030624e-08
5.74902639217e-06
5.22872472981e-08
5.75157030065e-06
6.09998916543e-08
5.75369001167e-06
6.79859506236e-08
5.75538752747e-06
7.40416559423e-08
5.75664259117e-06
7.95448945805e-08
5.75745817187e-06
8.48053678134e-08
5.75785817861e-06
9.00829822089e-08
5.75787885553e-06
9.5566068798e-08
5.75757062471e-06
1.01386955037e-07
5.75700437647e-06
1.07639779054e-07
5.75627752405e-06
1.14387561995e-07
5.75551672813e-06
1.21654552875e-07
5.7548789334e-06
1.29421289014e-07
5.75454490468e-06
1.37613731004e-07
5.75470643456e-06
1.4610112287e-07
1.54677515203e-07
5.75554809706e-06
7.00021191472e-06
2.06413727853e-08
7.00341717199e-06
3.69173577546e-08
7.00672185205e-06
4.89838357743e-08
7.00969214121e-06
5.80308384384e-08
7.01226923471e-06
6.54101253806e-08
7.01443684461e-06
7.18752566096e-08
7.01617109381e-06
7.78118771425e-08
7.01747300222e-06
8.35046425268e-08
7.01837133841e-06
8.91858598031e-08
7.01891455738e-06
9.50241900915e-08
7.01916983278e-06
1.01132152725e-07
7.0192285415e-06
1.07581975574e-07
7.01920803501e-06
1.14408257252e-07
7.01925403901e-06
1.21609132916e-07
7.01953558837e-06
1.29139785722e-07
7.0202374097e-06
1.36911956244e-07
7.02154409616e-06
1.4479446757e-07
1.52604360013e-07
7.02361709134e-06
8.53285686151e-06
1.86327861355e-08
8.53615014027e-06
3.36253652006e-08
8.53978922495e-06
4.53458143164e-08
8.54327033303e-06
5.45509278846e-08
8.5464474393e-06
6.2234040597e-08
8.54927277347e-06
6.90510857864e-08
8.55171538866e-06
7.53702664608e-08
8.55377423742e-06
8.1446929127e-08
8.55548230945e-06
8.74789251474e-08
8.55689945477e-06
9.36076264452e-08
8.55811011843e-06
9.99222661082e-08
8.55922297031e-06
1.06469283669e-07
8.56037273755e-06
1.13258954828e-07
8.56171602576e-06
1.2026594391e-07
8.56342623861e-06
1.27429833203e-07
8.56568158895e-06
1.34656594726e-07
8.56865164585e-06
1.41824306866e-07
1.4877773341e-07
8.57247822668e-06
1.04012163056e-05
1.66367064069e-08
1.04046403459e-05
3.0202324553e-08
1.04086834417e-05
4.13039100103e-08
1.04128136512e-05
5.04215626163e-08
1.04168061419e-05
5.82426511092e-08
1.04205706437e-05
6.52873364609e-08
1.04240638078e-05
7.18781449009e-08
1.04272805843e-05
7.82308914263e-08
1.04302562939e-05
8.45039844727e-08
1.04330594529e-05
9.08049692965e-08
1.04357865491e-05
9.71955394184e-08
1.0438558483e-05
1.03697566935e-07
1.04415178058e-05
1.10300207446e-07
1.04448220144e-05
1.16962116471e-07
1.04486362587e-05
1.23616102006e-07
1.04531211122e-05
1.30172065833e-07
1.04584211832e-05
1.36524610711e-07
1.42548990769e-07
1.04646504319e-05
1.26788666603e-05
1.45609358481e-08
1.26825613297e-05
2.6508814632e-08
1.26871875846e-05
3.66784524129e-08
1.2692219365e-05
4.53907969391e-08
1.26973704464e-05
5.30922647834e-08
1.27025042002e-05
6.01545582791e-08
1.27075562055e-05
6.68267283101e-08
1.27125136637e-05
7.3274328337e-08
1.27174082204e-05
7.96098468805e-08
1.27223100758e-05
8.5903761606e-08
1.27273176407e-05
9.21881395109e-08
1.27325529937e-05
9.84631903168e-08
1.27381519118e-05
1.04701811631e-07
1.27442594583e-05
1.10855704659e-07
1.27510175348e-05
1.1685878793e-07
1.27585574784e-05
1.22633146827e-07
1.27669884492e-05
1.28094500701e-07
1.33149949855e-07
1.27763883011e-05
1.54555136195e-05
1.22283239482e-08
1.54597713442e-05
2.22519229709e-08
1.54653502276e-05
3.11004761588e-08
1.54717365738e-05
3.90053139123e-08
1.54785991942e-05
4.62305601326e-08
1.5485753722e-05
5.30008750013e-08
1.54931070604e-05
5.94743065081e-08
1.55006283045e-05
6.57538628044e-08
1.55083364013e-05
7.19025743113e-08
1.55162890939e-05
7.79517005634e-08
1.55245728793e-05
8.39052986593e-08
1.55332919758e-05
8.97449452804e-08
1.55425603736e-05
9.5434595037e-08
1.55524919757e-05
1.0092518712e-07
1.55631928899e-05
1.06159142557e-07
1.55747525619e-05
1.11074681279e-07
1.55872376457e-05
1.15610597804e-07
1.19703660114e-07
1.56006852115e-05
1.88405306716e-05
9.33593786508e-09
1.88458774275e-05
1.69061203498e-08
1.88530756205e-05
2.39033254265e-08
1.88615876334e-05
3.04943067707e-08
1.88710314977e-05
3.67878252877e-08
1.88811710022e-05
4.28623996787e-08
1.88918732231e-05
4.87732959278e-08
1.89030754346e-05
5.45526855333e-08
1.89147680878e-05
6.02111659324e-08
1.89269794571e-05
6.57413393185e-08
1.89397644507e-05
7.11215952372e-08
1.89531911794e-05
7.63193178432e-08
1.89673329584e-05
8.12941681065e-08
1.89822582617e-05
8.60010947358e-08
1.89980250058e-05
9.03936732608e-08
1.90146740959e-05
9.44268337904e-08
1.90322257679e-05
9.80599006277e-08
1.01253869775e-07
1.90506766971e-05
2.29673588431e-05
5.31560250663e-09
2.297474689e-05
9.51939847559e-09
2.29847413007e-05
1.39103342748e-08
2.29966703616e-05
1.85665405932e-08
2.30100585184e-05
2.3401163689e-08
2.30246030175e-05
2.83191952455e-08
2.30401168439e-05
3.32610346261e-08
2.30564884246e-05
3.8182430031e-08
2.30736620033e-05
4.30392055282e-08
2.30916190608e-05
4.77856604894e-08
2.31103650532e-05
5.23772273801e-08
2.31299154704e-05
5.67704228472e-08
2.31502874751e-05
6.09237572458e-08
2.31714923108e-05
6.47979427984e-08
2.31935295716e-05
6.83578973626e-08
2.32163848728e-05
7.15733652497e-08
2.32400252402e-05
7.44207358941e-08
7.68803361342e-08
2.32644006952e-05
1.68143167634e-05
1.70529370042e-09
1.68208130083e-05
3.02455541706e-09
1.68294253222e-05
5.29955466003e-09
1.68395409161e-05
8.45237238766e-09
1.68507881809e-05
1.21553040846e-08
1.68629481169e-05
1.61606531742e-08
1.68758762546e-05
2.0334155517e-08
1.68894763485e-05
2.45837905039e-08
1.69036884668e-05
2.88281822933e-08
1.69184779606e-05
3.29976766964e-08
1.69338219805e-05
3.70341724083e-08
1.69497046353e-05
4.08893302955e-08
1.69661083653e-05
4.45207791599e-08
1.69830149654e-05
4.78929699418e-08
1.70003976111e-05
5.0975772425e-08
1.70182259921e-05
5.37466155937e-08
1.70364580452e-05
5.61887437549e-08
5.82909483541e-08
1.70550488121e-05
1.46384332144e-05
-2.15791199104e-09
1.46452327951e-05
-3.77351073203e-09
1.46539424229e-05
-3.4086985843e-09
1.4663890919e-05
-1.49458790516e-09
1.46747711166e-05
1.27659771241e-09
1.46864202206e-05
4.5130478009e-09
1.46987191594e-05
8.03679057173e-09
1.47115839775e-05
1.17202740164e-08
1.4724962774e-05
1.54509735569e-08
1.47388201182e-05
1.91415164386e-08
1.47531283833e-05
2.27274294463e-08
1.47678607224e-05
2.61580278886e-08
1.47829911337e-05
2.93919006877e-08
1.4798489861e-05
3.23951077242e-08
1.48143261147e-05
3.51410952947e-08
1.483046357e-05
3.76097276952e-08
1.48468663037e-05
3.97875921079e-08
4.16655757555e-08
1.48634917879e-05
1.274442585e-05
-6.4504846834e-09
1.27516815775e-05
-1.10280123108e-08
1.27604764043e-05
-1.22020725516e-08
1.27701386718e-05
-1.11554707406e-08
1.27804930881e-05
-9.0763228898e-09
1.27914423371e-05
-6.43477646844e-09
1.28028914971e-05
-3.41088889358e-09
1.28147781965e-05
-1.64869640704e-10
1.28270669575e-05
3.16363677798e-09
1.2839731929e-05
6.47801840712e-09
1.28527479808e-05
9.71283705555e-09
1.28660883388e-05
1.28189548519e-08
1.28797249542e-05
1.57567173685e-08
1.28936262513e-05
1.84949522066e-08
1.29077582996e-05
2.10103978325e-08
1.29220835963e-05
2.32854470239e-08
1.29365626106e-05
2.53096186345e-08
2.70765130347e-08
1.29511527613e-05
1.10959183563e-05
-1.14386538062e-08
1.11037739776e-05
-1.88824250489e-08
1.11125707424e-05
-2.09977388123e-08
1.11218148098e-05
-2.03982367347e-08
1.11315366107e-05
-1.87969004322e-08
1.11416949064e-05
-1.65916886029e-08
1.11522175027e-05
-1.39321164656e-08
1.11630680776e-05
-1.10140928307e-08
1.11742290694e-05
-7.99598264172e-09
1.11856830639e-05
-4.97463246798e-09
1.11974091514e-05
-2.01200808211e-09
1.12093846093e-05
8.45028771365e-10
1.12215824649e-05
3.55995603145e-09
1.12339738833e-05
6.10521926441e-09
1.12465262811e-05
8.4587538684e-09
1.12592094407e-05
1.0603875878e-08
1.12719942053e-05
1.25253059267e-08
1.42111695983e-08
1.12848609931e-05
9.661248604e-06
-1.74716178232e-08
9.66979353053e-06
-2.74262859003e-08
9.67842927435e-06
-2.96322934881e-08
9.68712848082e-06
-2.90963158189e-08
9.69613317543e-06
-2.78004239997e-08
9.70541389361e-06
-2.58712828757e-08
9.7149252781e-06
-2.34422910155e-08
9.72466842648e-06
-2.07560573047e-08
9.73464885256e-06
-1.79753586475e-08
9.74485983368e-06
-1.51844205068e-08
9.7552858151e-06
-1.24368518947e-08
9.7659060785e-06
-9.77405728195e-09
9.77669538261e-06
-7.22804004839e-09
9.7876247791e-06
-4.82307530092e-09
9.79866219003e-06
-2.57736379572e-09
9.80977349036e-06
-5.0646052875e-10
9.8209243218e-06
1.37551889467e-09
3.05536445442e-09
9.83208103561e-06
8.41299168839e-06
-2.51097889341e-08
8.42218143792e-06
-3.66149070386e-08
8.43043406348e-06
-3.78838856382e-08
8.43853454854e-06
-3.71956420484e-08
8.44683554347e-06
-3.61003387849e-08
8.45527634909e-06
-3.43110347445e-08
8.46384472647e-06
-3.2009538759e-08
8.47257249273e-06
-2.94827815036e-08
8.48147706554e-06
-2.68789209765e-08
8.49055776716e-06
-2.42642981229e-08
8.49980513684e-06
-2.16832302163e-08
8.50920377661e-06
-1.9171748968e-08
8.51873326952e-06
-1.67564810433e-08
8.52836727676e-06
-1.44560287259e-08
8.53807482262e-06
-1.22839242044e-08
8.54782284763e-06
-1.02535796985e-08
8.55758480713e-06
-8.38528898043e-09
-6.71609948206e-09
8.56735693618e-06
7.32711932392e-06
-3.49437657411e-08
7.33665456472e-06
-4.61490964551e-08
7.34426545624e-06
-4.54937297589e-08
7.35168498578e-06
-4.46140375289e-08
7.3591949272e-06
-4.36092079275e-08
7.36672830728e-06
-4.18434090846e-08
7.37433068958e-06
-3.96108827845e-08
7.38205600739e-06
-3.72071298922e-08
7.38992430402e-06
-3.4746418496e-08
7.39793694111e-06
-3.22760802092e-08
7.40608734542e-06
-2.98328443295e-08
7.41436303233e-06
-2.74465790003e-08
7.42274579954e-06
-2.51384152734e-08
7.43121094552e-06
-2.29203297858e-08
7.43972596332e-06
-2.07981308599e-08
7.4482484499e-06
-1.8775361769e-08
7.45672673829e-06
-1.68626653676e-08
-1.50992891835e-08
7.46511092093e-06
6.38304867347e-06
-4.79255183551e-08
6.39236893471e-06
-5.54683691749e-08
6.39934854141e-06
-5.24723971037e-08
6.40622113537e-06
-5.14855230172e-08
6.4130053134e-06
-5.03924435324e-08
6.41969478344e-06
-4.85320725689e-08
6.42639839618e-06
-4.63135536809e-08
6.43318181664e-06
-4.39897019016e-08
6.44006832494e-06
-4.16321910004e-08
6.44706462317e-06
-3.92717624726e-08
6.45416961924e-06
-3.69369219536e-08
6.46137514763e-06
-3.4651554448e-08
6.46866779659e-06
-3.24304147684e-08
6.47602792691e-06
-3.02797584099e-08
6.48342714646e-06
-2.81967402699e-08
6.49082148179e-06
-2.61690919914e-08
6.49814364856e-06
-2.41842171046e-08
-2.22623888268e-08
6.50530778645e-06
5.56211279979e-06
-6.45728146424e-08
5.56989902789e-06
-6.32535889767e-08
5.57603043495e-06
-5.86028693369e-08
5.58205447643e-06
-5.75082686271e-08
5.58775346931e-06
-5.60903059767e-08
5.59324297872e-06
-5.40207456107e-08
5.59865627994e-06
-5.17259295965e-08
5.60405204646e-06
-4.93846314969e-08
5.60945748768e-06
-4.70369609266e-08
5.61488973911e-06
-4.47032620803e-08
5.62035854381e-06
-4.24049270666e-08
5.62586687846e-06
-4.01592416313e-08
5.63141322904e-06
-3.79762203729e-08
5.63699192232e-06
-3.58578405726e-08
5.64259021478e-06
-3.37944884898e-08
5.64817450146e-06
-3.17529417188e-08
5.65364669896e-06
-2.96556303443e-08
-2.72902752119e-08
5.65867530527e-06
4.84617190847e-06
-8.31363675722e-08
4.84801200883e-06
-6.50925806343e-08
4.84905699037e-06
-5.96467224623e-08
4.8488695753e-06
-5.73193683523e-08
4.84756732227e-06
-5.47867744633e-08
4.84558359978e-06
-5.20360373791e-08
4.84317123503e-06
-4.93125223537e-08
4.84047769437e-06
-4.66901434517e-08
4.83761643185e-06
-4.41748907465e-08
4.83468053096e-06
-4.17664888082e-08
4.83174333312e-06
-3.94667723796e-08
4.82886124856e-06
-3.72764413472e-08
4.82607861815e-06
-3.51929553353e-08
4.82343195593e-06
-3.32105016135e-08
4.82095508043e-06
-3.13170228572e-08
4.81868166088e-06
-2.94789267064e-08
4.81663557193e-06
-2.76088151769e-08
-2.48970189238e-08
4.81424322867e-06
4.11953994903e-06
4.0544474567e-06
3.99480086657e-06
3.93748162461e-06
3.88269495099e-06
3.83065903116e-06
3.78134662618e-06
3.73465658843e-06
3.69048181656e-06
3.64871547843e-06
3.60924882768e-06
3.57197249486e-06
3.5367796684e-06
3.50356929193e-06
3.47225238768e-06
3.44277362465e-06
3.41516503688e-06
3.3902681416e-06
7.00640402223e-08
-7.00220095076e-08
1.04881047409e-07
-3.47781879853e-08
9.80140682606e-08
6.90640827913e-09
4.97067205719e-08
4.83466688158e-08
-5.44348153269e-08
1.0417516698e-07
-1.96761206913e-07
1.42349078572e-07
-3.50058909913e-07
1.5331367409e-07
-5.12179394044e-07
1.62134063024e-07
-6.82510891137e-07
1.70342437668e-07
-8.60272009554e-07
1.77772124423e-07
-1.04465767674e-06
1.8439446885e-07
-1.23489529327e-06
1.90247334412e-07
-1.43027428071e-06
1.95386338668e-07
-1.63013514651e-06
1.99869710662e-07
-1.8338813891e-06
2.03752413383e-07
-2.04095822054e-06
2.07085019724e-07
-2.25086567779e-06
2.09912498914e-07
-2.46313287631e-06
2.12274935218e-07
-2.67733490301e-06
2.14206609683e-07
-2.89306452436e-06
2.15737126065e-07
-3.10995069945e-06
2.16890379011e-07
-3.32762877782e-06
2.17685652356e-07
-3.54576077893e-06
2.18136431454e-07
-3.76400475796e-06
2.18251840723e-07
-3.98203515357e-06
2.18035287984e-07
-4.19951313367e-06
2.17486048451e-07
-4.41610626945e-06
2.16598146301e-07
-4.6314603167e-06
2.15362218316e-07
-4.8452195099e-06
2.13764471564e-07
-5.05700027481e-06
2.11788903027e-07
-5.26641186308e-06
2.094166165e-07
-5.4730324423e-06
2.06628465645e-07
-5.67643191806e-06
2.03404452735e-07
-5.87615109997e-06
1.99726750856e-07
-6.07172608566e-06
1.95579431456e-07
-6.26267051248e-06
1.90951666402e-07
-6.4485033841e-06
1.8583721241e-07
-6.62873405728e-06
1.80237762314e-07
-6.8028918545e-06
1.7416209406e-07
-6.97051386376e-06
1.67628965827e-07
-7.13117522587e-06
1.60665552062e-07
-7.28447806232e-06
1.53309564465e-07
-7.43008072214e-06
1.45606613112e-07
-7.56768562914e-06
1.37611351039e-07
-7.69706572377e-06
1.29383667673e-07
-7.81804835897e-06
1.20988857733e-07
-7.93053760735e-06
1.12492743136e-07
-8.03449282822e-06
1.03961513763e-07
-8.12994590011e-06
9.54566764525e-08
-8.21697431498e-06
8.70352472844e-08
-8.29571469971e-06
7.87447555027e-08
-8.36633171534e-06
7.06249083675e-08
-8.42902956161e-06
6.27034593762e-08
-8.48402072347e-06
5.50000681511e-08
-8.53153820007e-06
4.75237297346e-08
-8.57180454496e-06
4.0276194873e-08
-8.60504763469e-06
3.32504425136e-08
-8.63147128739e-06
2.64343568155e-08
-8.65127521764e-06
1.9811640379e-08
-8.66463007639e-06
1.33662652478e-08
-8.6716965025e-06
7.07500253657e-09
-8.67259098343e-06
9.06366983951e-10
-8.66749563804e-06
-5.08693163801e-09
-8.65670084775e-06
-1.0782628023e-08
-8.64057249851e-06
-1.61195380605e-08
-8.61949140129e-06
-2.10683735635e-08
-8.59387077286e-06
-2.56113672353e-08
-8.56412536664e-06
-2.97322454296e-08
-8.53068976948e-06
-3.34263078616e-08
-8.49397863975e-06
-3.66978740398e-08
-8.45440142446e-06
-3.95679767939e-08
-8.41231871704e-06
-4.20690759757e-08
-8.36805722258e-06
-4.42517280695e-08
-8.32186482149e-06
-4.6177303838e-08
-8.27392942359e-06
-4.7923681655e-08
-8.22433512138e-06
-4.95761669216e-08
-8.17308597258e-06
-5.12339262027e-08
-8.12006448923e-06
-5.30007605336e-08
-8.06505595641e-06
-5.49919948215e-08
-8.00770681164e-06
-5.73264822035e-08
-7.94755199621e-06
-6.01360224385e-08
-7.88397068486e-06
-6.35568279905e-08
-7.81621317777e-06
-6.77375965143e-08
-7.74335677708e-06
-7.28285782081e-08
-7.66434363856e-06
-7.89883353695e-08
-7.57794286615e-06
-8.63677379234e-08
-7.48280002003e-06
-9.51143852319e-08
-7.37741307885e-06
-1.05354507168e-07
-7.26019039121e-06
-1.17199442871e-07
-7.12944573384e-06
-1.3071973193e-07
-6.98346758807e-06
-1.45944158065e-07
-6.82059235115e-06
-1.62827365146e-07
-6.63930065429e-06
-1.8123849556e-07
-6.43831141094e-06
-2.00931609119e-07
-6.21671009581e-06
-2.21544097543e-07
-5.97406206653e-06
-2.42589668311e-07
-5.71052129739e-06
-2.63484115724e-07
-5.42689534302e-06
-2.83568538133e-07
-5.12467303078e-06
-3.02165809894e-07
-4.8059849605e-06
-3.18628577431e-07
-4.47348875608e-06
-3.32433478457e-07
-4.1302549759e-06
-3.43150422659e-07
-3.77970786798e-06
-3.5045379368e-07
-3.42540813859e-06
-3.54172854905e-07
-3.07105677119e-06
-3.54232228207e-07
-2.72032687975e-06
-3.50588974956e-07
-2.37674380438e-06
-3.43474256804e-07
-2.04359099147e-06
-3.33031842243e-07
-1.72396115629e-06
-3.19553379232e-07
-1.41955916723e-06
-3.04314732033e-07
-1.13394079746e-06
-2.85576491818e-07
-8.65089407032e-07
-2.68773108762e-07
-6.3254955077e-07
-2.32498597932e-07
-4.34255688887e-07
-1.98231477463e-07
-1.93719438754e-07
-2.40485773116e-07
1.05041334526e-07
-2.98678729472e-07
4.00118604031e-07
-2.95047650809e-07
6.52081412732e-07
-2.51923393369e-07
8.65718188682e-07
-2.13641346307e-07
1.05058548823e-06
-1.848333818e-07
1.21267204113e-06
-1.6204332226e-07
1.35571695434e-06
-1.42936536606e-07
1.48212185907e-06
-1.26308272547e-07
1.59369907496e-06
-1.11463067697e-07
1.69180440241e-06
-9.80484346346e-08
1.77765508642e-06
-8.57939037187e-08
1.85222766144e-06
-7.4569019702e-08
1.9164689368e-06
-6.42297175163e-08
1.9711557474e-06
-5.47167473214e-08
2.01707221931e-06
-4.59329750913e-08
2.05486733984e-06
-3.78454351181e-08
2.08521148907e-06
-3.03795920935e-08
2.1086638005e-06
-2.35166778736e-08
2.1258180296e-06
-1.72051133469e-08
2.13719880185e-06
-1.14576218651e-08
2.14343621012e-06
-6.30402013767e-09
2.14532147654e-06
-1.97647396063e-09
2.14365685854e-06
1.57260874798e-09
2.13885664894e-06
4.67955458269e-09
2.13119393245e-06
7.53873411846e-09
2.12090731232e-06
1.01600455218e-08
2.10827640419e-06
1.25215999954e-08
2.09355933275e-06
1.46230023787e-08
2.0769944814e-06
1.6486401352e-08
2.05879306211e-06
1.81305439484e-08
2.03915257591e-06
1.95778078546e-08
2.01824976771e-06
2.08433838999e-08
1.99624981526e-06
2.19452690613e-08
1.97330065255e-06
2.28953977361e-08
1.94954074666e-06
2.37085720051e-08
1.92509446571e-06
2.43942588399e-08
1.90007868675e-06
2.49648926718e-08
1.87459847975e-06
2.54280239553e-08
1.84875309824e-06
2.5794120918e-08
1.82263151192e-06
2.6069294547e-08
1.79631813488e-06
2.62624890584e-08
1.76988826607e-06
2.63786328423e-08
1.74341349297e-06
2.64255927271e-08
1.7169567285e-06
2.64078852311e-08
1.69057763489e-06
2.63327124109e-08
1.66432756983e-06
2.62043704059e-08
1.63825434749e-06
2.60301579824e-08
1.61239699221e-06
2.58151257679e-08
1.58679015241e-06
2.55671615977e-08
1.56145810167e-06
2.52932386508e-08
1.53641795071e-06
2.50036979871e-08
1.51167298098e-06
2.47093391162e-08
1.48721406164e-06
2.44253389444e-08
1.46301165553e-06
2.41694877601e-08
1.43901326723e-06
2.3967060044e-08
1.41513110169e-06
2.38511999004e-08
1.39123227014e-06
2.38688545073e-08
1.36711607388e-06
2.40862183929e-08
1.34248440963e-06
2.4602129157e-08
1.31688626776e-06
2.5568437476e-08
1.28962510513e-06
2.72316781025e-08
1.25957801737e-06
3.00176222919e-08
1.22472683669e-06
3.48217074039e-08
1.18142346856e-06
4.32734287509e-08
6.88996943782e-08
1.11249281665e-06
-3.92217990918e-08
-3.07585897e-08
-1.30618931871e-07
5.66488487284e-08
-2.54072170972e-07
1.30377806432e-07
-3.85342471909e-07
1.79629517978e-07
-5.06709964281e-07
2.2555291404e-07
-6.29260694712e-07
2.6490881031e-07
-7.69608860146e-07
2.93670113762e-07
-9.24085673218e-07
3.16618899415e-07
-1.08945945643e-06
3.35723626566e-07
-1.26363167832e-06
3.51951846797e-07
-1.44510998471e-06
3.65879494623e-07
-1.63274197171e-06
3.7788646169e-07
-1.8255925029e-06
3.88242971862e-07
-2.02286942147e-06
3.97153398775e-07
-2.22389115559e-06
4.04779621159e-07
-2.42805388229e-06
4.11254137448e-07
-2.63482400914e-06
4.16687471212e-07
-2.84371578711e-06
4.21172710504e-07
-3.05429276584e-06
4.24788022788e-07
-3.2661480661e-06
4.27598368824e-07
-3.47890970208e-06
4.29656297088e-07
-3.69222093727e-06
4.31002745674e-07
-3.90574715323e-06
4.31667177237e-07
-4.11915710208e-06
4.31668065478e-07
-4.3321300086e-06
4.31013074845e-07
-4.54433718944e-06
4.2969968531e-07
-4.75544936546e-06
4.27715570236e-07
-4.96511989265e-06
4.25039591938e-07
-5.17299257688e-06
4.21642709246e-07
-5.37868645339e-06
4.17489628851e-07
-5.58180453907e-06
4.12540327627e-07
-5.7819215276e-06
4.06752342163e-07
-5.97859451527e-06
4.00082987313e-07
-6.1713535429e-06
3.92492406536e-07
-6.35971496592e-06
3.83946215284e-07
-6.5431757638e-06
3.74418893941e-07
-6.72122987308e-06
3.63896572288e-07
-6.89336605801e-06
3.52380269995e-07
-7.05908682542e-06
3.39888067926e-07
-7.21790914434e-06
3.2645744753e-07
-7.36938452138e-06
3.12145991497e-07
-7.51310093345e-06
2.97031882097e-07
-7.64870198842e-06
2.8121247485e-07
-7.77588748803e-06
2.64802441258e-07
-7.89442908416e-06
2.4792974344e-07
-8.00416642673e-06
2.30731473691e-07
-8.10501715694e-06
2.13347799893e-07
-8.19696727763e-06
1.95916964679e-07
-8.28007500512e-06
1.78568875115e-07
-8.35445424169e-06
1.61420062262e-07
-8.42027325473e-06
1.44568961331e-07
-8.47773418973e-06
1.28092473758e-07
-8.52707088534e-06
1.12046342649e-07
-8.56852906456e-06
9.6465636563e-08
-8.60236169667e-06
8.13635252183e-08
-8.62881301923e-06
6.67361047763e-08
-8.64811392394e-06
5.25595548191e-08
-8.66047946097e-06
3.88092575446e-08
-8.66611524687e-06
2.54565324869e-08
-8.66519587335e-06
1.2457282383e-08
-8.657876232e-06
-2.34716411168e-10
-8.6444960657e-06
-1.24628971106e-08
-8.62553974867e-06
-2.40329060725e-08
-8.60137974069e-06
-3.49312709873e-08
-8.57234446257e-06
-4.51439484224e-08
-8.53876713217e-06
-5.46337563873e-08
-8.50100749078e-06
-6.33596627116e-08
-8.4594375543e-06
-7.12899809445e-08
-8.41444054732e-06
-7.84120044067e-08
-8.3663910122e-06
-8.47354172783e-08
-8.31564998009e-06
-9.02978340778e-08
-8.26254180909e-06
-9.51650334042e-08
-8.20734937362e-06
-9.9432539425e-08
-8.15029167741e-06
-1.03221737024e-07
-8.09152293705e-06
-1.06678691561e-07
-8.03111470097e-06
-1.09968196481e-07
-7.96905954179e-06
-1.13272552186e-07
-7.90525514217e-06
-1.16786827172e-07
-7.83950848408e-06
-1.20720164239e-07
-7.77151947623e-06
-1.25294898364e-07
-7.70088344955e-06
-1.30751701367e-07
-7.62706832102e-06
-1.37349794507e-07
-7.54941222985e-06
-1.45371078741e-07
-7.46709847514e-06
-1.55116356475e-07
-7.37915652352e-06
-1.66903027085e-07
-7.28444068268e-06
-1.81052722583e-07
-7.18163992574e-06
-1.97882712628e-07
-7.06927356591e-06
-2.17691221989e-07
-6.94570385303e-06
-2.40743138989e-07
-6.80915116682e-06
-2.67250199868e-07