/*--------------------------------*- C++ -*----------------------------------*\
| =========                 |                                                 |
| \\      /  F ield         | OpenFOAM: The Open Source CFD Toolbox           |
|  \\    /   O peration     | Version:  v1806                                 |
|   \\  /    A nd           | Web:      www.OpenFOAM.com                      |
|    \\/     M anipulation  |                                                 |
\*---------------------------------------------------------------------------*/
FoamFile
{
    version     2.0;
    format      ascii;
    class       surfaceScalarField;
    location    "20";
    object      phia;
}
// * * * * * * * * * * * * * * * * * * * * * * * * * * * * * * * * * * * * * //

dimensions      [0 3 -1 0 0 0 0];
oriented        oriented;


internalField   nonuniform List<scalar> 
24170
(
2.11598535698e-07
1.09886169235e-07
2.78628428794e-07
-6.48161363578e-08
2.65577263979e-07
1.33213357732e-08
2.75034954264e-07
-1.09792001655e-08
2.81947531047e-07
-8.59286797621e-09
2.91135177523e-07
-1.00472751705e-08
3.01067996694e-07
-1.10289143762e-08
3.12895614561e-07
-1.14096334949e-08
3.25311528911e-07
-1.20413742953e-08
3.39053815721e-07
-1.24020082745e-08
3.53973879014e-07
-1.36867151296e-08
3.72782899363e-07
-1.74651741715e-08
4.01078169119e-07
-2.71332794329e-08
4.45415234846e-07
-4.3332719237e-08
5.02611243979e-07
-5.63927629634e-08
5.48743294367e-07
-4.55513571463e-08
6.06932896434e-07
-5.7861721959e-08
-5.43270393116e-07
1.15033665784e-06
7.45944877768e-07
-2.86440695142e-07
3.71943691558e-07
3.13443550906e-07
4.33818010705e-07
-4.78988689417e-08
4.43086215629e-07
-2.18527061788e-08
4.59067023566e-07
-2.66463365661e-08
4.75440511967e-07
-2.79181708383e-08
4.93368900092e-07
-3.0266863382e-08
5.13209571763e-07
-3.11393066574e-08
5.34163003637e-07
-3.23906867574e-08
5.56771708174e-07
-3.34881163555e-08
5.81129732024e-07
-3.64477962979e-08
6.09408985334e-07
-4.41655373327e-08
6.44286164987e-07
-6.06967352895e-08
6.85925172606e-07
-8.39155069882e-08
7.25952538238e-07
-9.56134603657e-08
7.59860283524e-07
-7.88857286968e-08
8.48738574588e-07
-1.46408257513e-07
-6.61482530122e-07
9.6721111932e-07
-1.18397829129e-07
1.9705639954e-07
4.34176892741e-07
-2.4003785777e-07
3.5443124098e-07
3.07317750735e-08
3.66712911332e-07
-3.58651996633e-08
3.65052420083e-07
-2.65676278185e-08
3.70192613155e-07
-3.39417825337e-08
3.74215711406e-07
-3.51502441947e-08
3.80485287047e-07
-3.74094685305e-08
3.87673097458e-07
-3.95752320823e-08
3.96901359027e-07
-4.2279763614e-08
4.08853445339e-07
-4.80230660953e-08
4.25927415762e-07
-6.07916497776e-08
4.49818508601e-07
-8.41851595397e-08
4.79058614478e-07
-1.12785377239e-07
5.10491085306e-07
-1.2673917249e-07
5.62351961288e-07
-1.30513411518e-07
6.7657212225e-07
-2.60470093384e-07
-6.83290841576e-07
6.9857222107e-07
7.89110604149e-07
-1.96036852613e-07
3.27667030615e-07
2.22331350868e-07
4.43908859141e-07
-8.67545027815e-08
4.30607775957e-07
-2.50416336774e-08
4.43883929038e-07
-4.24217342739e-08
4.49931674498e-07
-4.19658406361e-08
4.58759650172e-07
-4.54740152865e-08
4.67873476868e-07
-4.70291027554e-08
4.77587055071e-07
-4.92974244631e-08
4.88209199356e-07
-5.23727076403e-08
5.00250729758e-07
-5.94169627904e-08
5.14663014803e-07
-7.45167702221e-08
5.30665051225e-07
-9.95786853883e-08
5.44879270475e-07
-1.26483515795e-07
5.59235279304e-07
-1.40683125076e-07
5.97100576194e-07
-1.68065875041e-07
6.59669426705e-07
-3.22800699145e-07
-6.30231897712e-07
6.06854853997e-07
7.04192412044e-09
2.1394127163e-07
4.88947211686e-07
-2.62088398533e-07
4.09722112012e-07
-9.39284697303e-09
4.23825349967e-07
-4.07386667852e-08
4.2671128639e-07
-4.66205495441e-08
4.35036107728e-07
-5.10411271947e-08
4.43268868284e-07
-5.43361234273e-08
4.53480218608e-07
-5.7411041989e-08
4.65177692097e-07
-6.11395874518e-08
4.79273720801e-07
-6.6430664038e-08
4.9638648465e-07
-7.64954838877e-08
5.16683504543e-07
-9.4711186957e-08
5.37969033378e-07
-1.20735603566e-07
5.57239320434e-07
-1.45601575176e-07
5.7995479358e-07
-1.63245410788e-07
6.20870055055e-07
-2.08833859581e-07
6.52224561259e-07
-3.5401257825e-07
-5.61026273463e-07
5.83206377537e-07
7.91772925556e-07
-1.28270995622e-07
4.25515666538e-07
1.02306032854e-07
4.61736142635e-07
-4.77081401631e-08
4.72510730852e-07
-5.38069623611e-08
4.77125622184e-07
-5.32613123433e-08
4.83500044032e-07
-5.89707936198e-08
4.90010635627e-07
-6.19177683487e-08
4.97645728119e-07
-6.55849512521e-08
5.06348122912e-07
-7.00399782981e-08
5.1705581014e-07
-7.70872956839e-08
5.30379927345e-07
-8.96507153174e-08
5.45980960733e-07
-1.10073611581e-07
5.61716563863e-07
-1.36208269004e-07
5.77029598555e-07
-1.60651015664e-07
5.99116870383e-07
-1.85086167642e-07
6.32203080675e-07
-2.41698979024e-07
6.41687287795e-07
-3.63283467731e-07
-4.99385279534e-07
5.80282564895e-07
2.67927514815e-07
8.28035451561e-08
4.97992120976e-07
-1.30862700703e-07
4.88882155889e-07
-4.05318325985e-08
4.92966450017e-07
-5.91526467915e-08
5.00282242017e-07
-6.13686286825e-08
5.07903313995e-07
-6.70360112257e-08
5.16270072926e-07
-7.05657283412e-08
5.25579801166e-07
-7.50231149845e-08
5.3597644161e-07
-8.05410290774e-08
5.48010214217e-07
-8.91879885988e-08
5.61739291441e-07
-1.03419353578e-07
5.76103516679e-07
-1.24428121669e-07
5.89289668639e-07
-1.49335437622e-07
6.0244498482e-07
-1.73709536782e-07
6.21287218612e-07
-2.03803699169e-07
6.42292362774e-07
-2.62560588275e-07
6.37112468127e-07
-3.5794066625e-07
-4.48364129666e-07
5.86265683901e-07
5.94311987404e-07
2.20898678822e-09
5.14525301125e-07
-5.42585547796e-08
5.22661634791e-07
-5.09074209842e-08
5.30106353562e-07
-6.82348115251e-08
5.35684756147e-07
-6.81542544228e-08
5.42514364405e-07
-7.4666246767e-08
5.49975236973e-07
-7.85396829949e-08
5.58590852096e-07
-8.38900946846e-08
5.68523115326e-07
-9.05923625386e-08
5.80104654965e-07
-1.00774207093e-07
5.92925592081e-07
-1.16187040839e-07
6.05612680363e-07
-1.36993930731e-07
6.16952729011e-07
-1.60520595344e-07
6.28589618077e-07
-1.85160826626e-07
6.43136701756e-07
-2.18156857606e-07
6.53295142282e-07
-2.72522036928e-07
6.40062772702e-07
-3.44514293752e-07
-4.05879977472e-07
5.97824545879e-07
5.3116863465e-07
2.26017247365e-08
5.57675765486e-07
-8.34614039345e-08
5.61053393812e-07
-5.59219849057e-08
5.66703199172e-07
-7.47598019854e-08
5.72670369808e-07
-7.45338093197e-08
5.79192149528e-07
-8.13340324492e-08
5.86392376161e-07
-8.57763117351e-08
5.94564465887e-07
-9.20578096135e-08
6.03946310352e-07
-9.99752684105e-08
6.14600948283e-07
-1.11435743232e-07
6.2586512807e-07
-1.27431191077e-07
6.36464987459e-07
-1.47550451617e-07
6.45855981191e-07
-1.69824335889e-07
6.55343251749e-07
-1.94534695288e-07
6.64830352922e-07
-2.27501582223e-07
6.66665511424e-07
-2.74203341506e-07
6.49768859656e-07
-3.27408015017e-07
-3.69902859282e-07
6.13928639028e-07
5.95347987588e-07
1.77806450049e-08
5.95275375228e-07
-8.65918987583e-08
6.01498881843e-07
-6.41179042319e-08
6.0639348937e-07
-8.08887444806e-08
6.12177183271e-07
-8.10202187532e-08
6.18278163983e-07
-8.78497027048e-08
6.25099109598e-07
-9.27780440104e-08
6.32753735451e-07
-9.97894520183e-08
6.41417721101e-07
-1.0862735794e-07
6.50888882579e-07
-1.20836146176e-07
6.60371367125e-07
-1.36813145371e-07
6.68864287113e-07
-1.55908062177e-07
6.76190687517e-07
-1.76986241867e-07
6.82902841718e-07
-2.01062568677e-07
6.87317438838e-07
-2.31726928246e-07
6.83254734704e-07
-2.69940436792e-07
6.64930312523e-07
-3.08926836222e-07
-3.38585347889e-07
6.33876122553e-07
6.37194045226e-07
1.55337671221e-08
6.39036963725e-07
-9.06022042092e-08
6.44798387514e-07
-7.13140695215e-08
6.49111898111e-07
-8.59460449589e-08
6.54460165211e-07
-8.67441195653e-08
6.60022924941e-07
-9.35082620498e-08
6.66272185352e-07
-9.904909857e-08
6.73218055335e-07
-1.06685063554e-07
6.80896158776e-07
-1.16249882099e-07
6.88921553503e-07
-1.28786516109e-07
6.96502767616e-07
-1.44302615045e-07
7.02905701737e-07
-1.62181233208e-07
7.0801869071e-07
-1.81951030944e-07
7.11638694737e-07
-2.04512376428e-07
7.11562772612e-07
-2.31468751465e-07
7.03501998715e-07
-2.61710745531e-07
6.84874196181e-07
-2.90048356046e-07
-3.10905685784e-07
6.57317380472e-07
5.73891239014e-07
1.22644883694e-08
5.75187415868e-07
-9.43427080378e-08
5.79688505565e-07
-7.7410165563e-08
5.82841837364e-07
-9.00246879928e-08
5.86932204848e-07
-9.13732506852e-08
5.91119578946e-07
-9.79617395177e-08
5.95838477033e-07
-1.03906593854e-07
6.0099681008e-07
-1.11904965663e-07
6.06532258903e-07
-1.21811790661e-07
6.12043666065e-07
-1.34290136066e-07
6.16935504397e-07
-1.49142535736e-07
6.20713414195e-07
-1.65982774936e-07
6.23234462116e-07
-1.84401681601e-07
6.23921449969e-07
-2.05158448219e-07
6.210658115e-07
-2.28546837634e-07
6.12338737614e-07
-2.52901434481e-07
5.96772277175e-07
-2.74469489629e-07
-2.89672092007e-07
5.75703358337e-07
7.00692241412e-07
9.82687860847e-09
7.01234981291e-07
-9.6394008736e-08
7.05778454352e-07
-8.30329619388e-08
7.08851288687e-07
-9.38825826442e-08
7.12932754206e-07
-9.59030888511e-08
7.17057308855e-07
-1.02399737495e-07
7.21681885195e-07
-1.08702728732e-07
7.26613087464e-07
-1.16961969854e-07
7.31692283482e-07
-1.26960647535e-07
7.36441863749e-07
-1.39053693168e-07
7.402203844e-07
-1.53067442874e-07
7.42672017503e-07
-1.68452139336e-07
7.43375505463e-07
-1.85208502647e-07
7.41588224136e-07
-2.03394693703e-07
7.35700154767e-07
-2.22720549331e-07
7.24159267826e-07
-2.41437916599e-07
7.06738046136e-07
-2.57002039211e-07
-2.67522165209e-07
6.84536791508e-07
8.54179788694e-07
6.91560071808e-09
8.54572563022e-07
-9.81475061036e-08
8.58739396668e-07
-8.82272209641e-08
8.61519572137e-07
-9.70714566294e-08
8.65182379762e-07
-1.00045163446e-07
8.68896779443e-07
-1.06247651093e-07
8.72930264718e-07
-1.12953931498e-07
8.77081806352e-07
-1.21185021583e-07
8.81043531594e-07
-1.31016137838e-07
8.84255151649e-07
-1.42428753485e-07
8.86236285383e-07
-1.55148517808e-07
8.86473306648e-07
-1.68884501171e-07
8.84557456796e-07
-1.83379551967e-07
8.79539090241e-07
-1.98515481608e-07
8.70258723131e-07
-2.13540100411e-07
8.55871981748e-07
-2.27143155167e-07
8.36500343724e-07
-2.37754555976e-07
-2.44333849887e-07
8.13320719495e-07
1.04089735989e-06
4.74274527734e-09
1.04094008097e-06
-9.93915545072e-08
1.04438981198e-06
-9.24084011796e-08
1.04611133014e-06
-9.94759993815e-08
1.04890746443e-06
-1.02912840963e-07
1.05142919332e-06
-1.09059282074e-07
1.05423294891e-06
-1.15703011058e-07
1.05671483993e-06
-1.23807264598e-07
1.05867599889e-06
-1.33011825693e-07
1.05948490123e-06
-1.43373322606e-07
1.05869366824e-06
-1.54519264431e-07
1.05587026369e-06
-1.6618239001e-07
1.05044485384e-06
-1.78075565471e-07
1.04170485093e-06
-1.89824082112e-07
1.02882313857e-06
-2.00792716107e-07
1.01160393832e-06
-2.09972929279e-07
9.90350514839e-07
-2.16615108729e-07
-2.20114296725e-07
9.66080947293e-07
1.27103894725e-06
1.13220508666e-10
1.26846495182e-06
-9.79354288458e-08
1.27010812976e-06
-9.48289023102e-08
1.27020623859e-06
-9.98609661374e-08
1.27096369197e-06
-1.03947863997e-07
1.27157125573e-06
-1.09582919733e-07
1.27191000057e-06
-1.16125218194e-07
1.27176746543e-06
-1.23553476141e-07
1.27054084719e-06
-1.31860649613e-07
1.26789622133e-06
-1.40748283395e-07
1.26330576761e-06
-1.50030906698e-07
1.25643875861e-06
-1.59348774921e-07
1.24680853458e-06
-1.68445436122e-07
1.23385198136e-06
-1.76934844927e-07
1.21737942953e-06
-1.84283669894e-07
1.19723727435e-06
-1.89974950601e-07
1.17420771078e-06
-1.93544173506e-07
-1.94927656639e-07
1.14881200177e-06
1.55305878204e-06
-8.22721960609e-09
1.54496227225e-06
-9.04030719046e-08
1.54311264689e-06
-9.34203626086e-08
1.5403346684e-06
-9.72962576464e-08
1.53788749892e-06
-1.01512538556e-07
1.53508387698e-06
-1.06711487089e-07
1.53181345814e-06
-1.12697368456e-07
1.52758856803e-06
-1.19225884123e-07
1.52205383947e-06
-1.26202989956e-07
1.51472257851e-06
-1.33401470483e-07
1.50535528837e-06
-1.40597433548e-07
1.49354241071e-06
-1.47537290332e-07
1.47906394409e-06
-1.53936409347e-07
1.46164836409e-06
-1.59539185204e-07
1.44131323166e-06
-1.63985306788e-07
1.41829678645e-06
-1.67017153629e-07
1.39299573428e-06
-1.6837969663e-07
-1.67861708165e-07
1.36585155007e-06
1.86277534e-06
1.14631871005e-08
1.87895449238e-06
-1.0727679091e-07
1.8743907877e-06
-8.95679085106e-08
1.86695503715e-06
-8.98391365906e-08
1.85959938726e-06
-9.40494235598e-08
1.85205945694e-06
-9.88505331226e-08
1.84384662497e-06
-1.04150445143e-07
1.83446102577e-06
-1.0953822294e-07
1.82356315761e-06
-1.15041556345e-07
1.81080211336e-06
-1.20458266438e-07
1.79594163146e-06
-1.25635428656e-07
1.77887428258e-06
-1.30383090862e-07
1.75938204608e-06
-1.34498499126e-07
1.73768109552e-06
-1.37828897365e-07
1.71368773357e-06
-1.40185657827e-07
1.68808028986e-06
-1.41489223559e-07
1.66112105839e-06
-1.417749136e-07
-1.41560372906e-07
1.63465328125e-06
2.44388940094e-06
-1.38051959506e-07
2.30820193444e-06
2.57738464665e-08
2.27266723165e-06
-5.43952223119e-08
2.25436453567e-06
-7.23946774016e-08
2.24012756959e-06
-7.94499905458e-08
2.22589665016e-06
-8.44230750244e-08
2.21114415378e-06
-8.86092052755e-08
2.19481569768e-06
-9.27727073043e-08
2.17688373327e-06
-9.6533458546e-08
2.15700509657e-06
-1.00257166893e-07
2.13510615933e-06
-1.035125932e-07
2.11137920898e-06
-1.06474866438e-07
2.0856008591e-06
-1.08796817705e-07
2.05842473251e-06
-1.10586130902e-07
2.02954069143e-06
-1.1161276288e-07
1.99996875759e-06
-1.11961293862e-07
1.96897738888e-06
-1.11306025042e-07
-1.08467362425e-07
1.93570992365e-06
1.35008114449e-06
1.86756330037e-07
1.62682844004e-06
-2.54135477523e-07
1.65429576918e-06
-8.62573350793e-08
1.64947968377e-06
-6.87132969034e-08
1.63959341917e-06
-7.0751470271e-08
1.62938074189e-06
-7.35940262709e-08
1.61728147131e-06
-7.68800543194e-08
1.60500152548e-06
-7.94832351964e-08
1.59059810932e-06
-8.24107696802e-08
1.57597323317e-06
-8.47617479292e-08
1.55928491636e-06
-8.7180999106e-08
1.54234777298e-06
-8.88954766572e-08
1.52350375613e-06
-9.0390830831e-08
1.50452709575e-06
-9.11352814423e-08
1.48392494655e-06
-9.14465566714e-08
1.46312039805e-06
-9.07906303172e-08
1.44115137126e-06
-8.97585062746e-08
-9.05475877543e-08
1.42351916732e-06
2.06720173361e-06
-4.18630878936e-07
1.49184578678e-06
3.17322127675e-07
1.43219955108e-06
-2.64641496937e-08
1.42272393627e-06
-6.16446079903e-08
1.41449792211e-06
-6.29883305428e-08
1.40430452893e-06
-6.46644921691e-08
1.39371933749e-06
-6.56523116073e-08
1.3811849888e-06
-6.74381828301e-08
1.36831292028e-06
-6.89827791321e-08
1.35399829444e-06
-7.07514505452e-08
1.33947834411e-06
-7.23010286695e-08
1.32403692852e-06
-7.3780643419e-08
1.30881299525e-06
-7.49181468156e-08
1.29312489826e-06
-7.57865360581e-08
1.27821413543e-06
-7.63432225877e-08
1.26412589728e-06
-7.70454328848e-08
1.25226921272e-06
-7.77569121829e-08
-7.50165103439e-08
1.23635284052e-06
2.64715605607e-07
5.8850219027e-07
1.22505928229e-06
-6.42460997512e-07
1.27436453448e-06
-7.84906111597e-08
1.26051034726e-06
-4.75843076756e-08
1.24918958566e-06
-5.20996635172e-08
1.23806106029e-06
-5.26976817785e-08
1.22568395033e-06
-5.35459677686e-08
1.21255843412e-06
-5.41869970543e-08
1.19857277907e-06
-5.50525911129e-08
1.18383899475e-06
-5.59811541626e-08
1.16839405199e-06
-5.67730035865e-08
1.15205406225e-06
-5.75022815148e-08
1.13508429392e-06
-5.79176364735e-08
1.11733596711e-06
-5.8127116173e-08
1.09872248168e-06
-5.77270884627e-08
1.07793903369e-06
-5.63599750728e-08
1.05363238888e-06
-5.35251362586e-08
-5.41278614722e-08
1.03268597409e-06
2.54538215752e-06
-8.43716560091e-07
1.09575583136e-06
8.09150052433e-07
1.07458594248e-06
-5.37119659972e-08
1.08761844813e-06
-5.9675317848e-08
1.08632683724e-06
-4.97267110865e-08
1.08160517961e-06
-4.79240235966e-08
1.07578227538e-06
-4.72849589604e-08
1.06958857538e-06
-4.77959055852e-08
1.06317990347e-06
-4.85551807285e-08
1.05693052569e-06
-4.95050389907e-08
1.05057062911e-06
-5.04616412585e-08
1.04438780587e-06
-5.11107568694e-08
1.03798644043e-06
-5.16027718726e-08
1.03185473075e-06
-5.17529193723e-08
1.02577993225e-06
-5.17938657735e-08
1.02168389653e-06
-5.208879124e-08
1.02126288703e-06
-5.3275061278e-08
-4.84317922394e-08
1.01572322095e-06
-9.46546993407e-07
1.07252638631e-06
1.04548848507e-06
-1.1787204543e-06
9.91441936872e-07
1.79786641389e-09
9.60080004635e-07
-2.56918043291e-08
9.44436590567e-07
-3.2495947609e-08
9.31671666182e-07
-3.3635910049e-08
9.17666543134e-07
-3.2811759243e-08
9.0247616711e-07
-3.23525890111e-08
8.86414678258e-07
-3.23801680214e-08
8.69650026459e-07
-3.26778850596e-08
8.52435669201e-07
-3.3160802208e-08
8.3504629415e-07
-3.36581601778e-08
8.17736403632e-07
-3.41142242073e-08
8.00662300036e-07
-3.46159057735e-08
7.84082941133e-07
-3.50871065721e-08
7.66828289528e-07
-3.47810513332e-08
7.46440068517e-07
-3.28294708023e-08
-3.89338101349e-08
7.37016410826e-07
3.11568019877e-06
-1.1949902557e-06
6.80223309525e-07
1.26228368978e-06
8.36022867316e-07
-1.49230584405e-07
8.52334053522e-07
-3.88021200306e-08
8.59973343558e-07
-3.84425396954e-08
8.56957905477e-07
-2.9898269635e-08
8.55192317025e-07
-3.021396468e-08
8.52990931799e-07
-2.97886936359e-08
8.50677392591e-07
-2.9923683383e-08
8.48255596145e-07
-3.02010692164e-08
8.45623867799e-07
-3.04783144577e-08
8.42720146079e-07
-3.07138518062e-08
8.39530911622e-07
-3.0836651732e-08
8.35774139002e-07
-3.07406521575e-08
8.31257790172e-07
-3.04595477638e-08
8.27342017935e-07
-3.08039844908e-08
8.27762608775e-07
-3.30715672764e-08
-2.40677686259e-08
8.12919945362e-07
-1.43298533935e-06
9.77244368053e-07
1.02893691807e-06
-1.19384867696e-06
7.1129077246e-07
1.72242042022e-07
7.2559921948e-07
-4.98936924683e-08
6.96497629552e-07
-6.65538388745e-09
6.89872778256e-07
-2.17094389906e-08
6.77081956847e-07
-1.67228458565e-08
6.65382415237e-07
-1.77663570963e-08
6.5306451304e-07
-1.75183963204e-08
6.40738605142e-07
-1.78532496121e-08
6.28369833294e-07
-1.81213477368e-08
6.15897515947e-07
-1.81574333646e-08
6.03455274921e-07
-1.83013406715e-08
5.91141364901e-07
-1.83448054056e-08
5.79045898871e-07
-1.82867449188e-08
5.65685146142e-07
-1.73620914734e-08
5.46404229005e-07
-1.36719962604e-08
-2.35979044717e-08
5.46097377775e-07
2.35136189095e-06
-7.29885434077e-07
3.29358110093e-07
8.33720742639e-07
7.33405609288e-07
-2.27865474899e-07
6.73332887251e-07
1.65028210321e-08
6.96483288551e-07
-2.98292352223e-08
6.85276530176e-07
-9.45881061161e-09
6.84499275251e-07
-1.51130898627e-08
6.80264108075e-07
-1.31340166173e-08
6.76639069544e-07
-1.37387823139e-08
6.72613319745e-07
-1.37675265854e-08
6.6865756344e-07
-1.38629388405e-08
6.64434225878e-07
-1.40644268115e-08
6.60417534633e-07
-1.42463457817e-08
6.56616372222e-07
-1.44690660071e-08
6.53029433499e-07
-1.4641873877e-08
6.51333745294e-07
-1.56080522329e-08
6.58049669614e-07
-2.03089551761e-08
-9.25519188598e-09
6.43874672513e-07
-8.00844667077e-07
6.33292645409e-07
8.04888950548e-07
-7.66298148496e-07
4.91525205031e-07
9.08842175009e-08
5.40895452948e-07
-2.67397273957e-08
5.12389729661e-07
3.65329743992e-10
5.1191609866e-07
-7.96821620951e-09
5.02722907241e-07
-4.97902530702e-09
4.96068278129e-07
-6.00951594498e-09
4.88432922357e-07
-5.91086966693e-09
4.81211553671e-07
-6.24919336934e-09
4.74034623124e-07
-6.49055419036e-09
4.66882513653e-07
-6.87383688022e-09
4.5993072999e-07
-7.2949651365e-09
4.53220500203e-07
-7.69674473175e-09
4.46625541265e-07
-8.00409686679e-09
4.38411427994e-07
-7.36610601128e-09
4.19646330773e-07
-1.42505463134e-09
-1.4658619828e-08
4.25148815992e-07
1.33243517216e-06
-2.07768599417e-07
4.66158373903e-07
1.06594148422e-07
6.05904892844e-07
-4.25294029145e-08
5.79511431247e-07
6.68216366438e-09
5.85940929916e-07
-3.82131132873e-09
5.80315086238e-07
-1.07276454854e-09
5.78550410843e-07
-2.15450815867e-09
5.75194647113e-07
-2.08733756473e-09
5.7195347381e-07
-2.36210167461e-09
5.68438023887e-07
-2.38804272363e-09
5.64688197188e-07
-2.44408996126e-09
5.6044396229e-07
-2.58311926192e-09
5.5581944125e-07
-2.65422235797e-09
5.50690725339e-07
-2.50859602279e-09
5.44651001734e-07
-1.92249822441e-09
5.39412411158e-07
-2.07106640786e-09
5.45183064175e-07
-7.10213779424e-09
1.12915586911e-08
5.19374376649e-07
2.13004950667e-07
3.20098216207e-07
2.78239678453e-07
2.8514900115e-07
2.81460280507e-07
2.80513402174e-07
2.78433285161e-07
2.76385970492e-07
2.74072085281e-07
2.71736299768e-07
2.69302416725e-07
2.6671983307e-07
2.6407708008e-07
2.61578052089e-07
2.59664621636e-07
2.5761418458e-07
2.5054709739e-07
2.61857141259e-07
-1.0544151138e-08
2.17730773287e-09
-5.44782035346e-08
3.39855337046e-08
-8.42995418611e-08
2.55848181309e-08
-1.10987744172e-07
2.17724790328e-08
-1.45246429636e-07
3.28785356722e-08
-1.78732042586e-07
3.40746547642e-08
-2.03701123112e-07
2.50858692419e-08
-2.21041775823e-07
1.91894488137e-08
-2.35926920342e-07
1.44844682481e-08
-2.45455095362e-07
1.07509889955e-08
-2.54249436008e-07
7.75367287148e-09
-2.59640647551e-07
5.57828030979e-09
-2.651260066e-07
4.0324160751e-09
-2.6885411945e-07
3.12336807474e-09
-2.73032831588e-07
2.61874117562e-09
-2.76499374097e-07
2.45796331135e-09
-2.80417269755e-07
2.45624207766e-09
-2.84108938923e-07
2.57032050416e-09
-2.88095472653e-07
2.69921882539e-09
-2.9206745766e-07
2.83414170027e-09
-2.96153162942e-07
2.9475879656e-09
-3.00304268527e-07
3.0348247673e-09
-3.04472952903e-07
3.09653800901e-09
-3.08701240844e-07
3.13412542566e-09
-3.12818154365e-07
3.14773214146e-09
-3.1698190699e-07
3.12143201606e-09
-3.2092943121e-07
3.07102583329e-09
-3.24867392712e-07
2.97302904851e-09
-3.28471735361e-07
2.84076993699e-09
-3.31995288408e-07
2.65173871599e-09
-3.35030082898e-07
2.42660688901e-09
-3.37920400165e-07
2.13588938022e-09
-3.40194391201e-07
1.80969318004e-09
-3.42223505042e-07
1.42337528383e-09
-3.4351969734e-07
1.01088937369e-09
-3.44502897853e-07
5.40368824688e-10
-3.44712496281e-07
5.38426359591e-11
-3.44532646547e-07
-4.75656020363e-10
-3.43579155943e-07
-1.00847055466e-09
-3.42167064805e-07
-1.56901325008e-09
-3.40027451004e-07
-2.12042792368e-09
-3.3735767522e-07
-2.68261586823e-09
-3.34059996673e-07
-3.23045941339e-09
-3.30165133348e-07
-3.77365784007e-09
-3.25793408195e-07
-4.30611968452e-09
-3.20771523313e-07
-4.81835558926e-09
-3.15422047517e-07
-5.33169797225e-09
-3.09433557363e-07
-5.816825351e-09
-3.03241501397e-07
-6.30455156226e-09
-2.96447599712e-07
-6.75694153306e-09
-2.89540790072e-07
-7.22209430145e-09
-2.82087734053e-07
-7.63443631757e-09
-2.74517274218e-07
-8.053075755e-09
-2.66513786676e-07
-8.43042763207e-09
-2.58390174136e-07
-8.80541064127e-09
-2.49894957212e-07
-9.13136274217e-09
-2.41237074094e-07
-9.44814684941e-09
-2.32284701689e-07
-9.72205139061e-09
-2.23128688918e-07
-9.98009115796e-09
-2.1372616892e-07
-1.02058824586e-08
-2.0405320557e-07
-1.04344584525e-08
-1.94101351037e-07
-1.06699504609e-08
-1.838576663e-07
-1.08610232663e-08
-1.7339406863e-07
-1.09973468426e-08
-1.62780908061e-07
-1.10782867891e-08
-1.51977018673e-07
-1.11245650957e-08
-1.41113742901e-07
-1.11951670019e-08
-1.30012100777e-07
-1.12609485615e-08
-1.18930391822e-07
-1.13733199037e-08
-1.07575646435e-07
-1.146460827e-08
-9.63179825273e-08
-1.16097336035e-08
-8.47682227141e-08
-1.17174560349e-08
-7.33873405989e-08
-1.18873399907e-08
-6.17094509981e-08
-1.19899836301e-08
-5.02057393549e-08
-1.21514882977e-08
-3.84322411179e-08
-1.22386134496e-08
-2.68457310398e-08
-1.23639767777e-08
-1.50622381402e-08
-1.24104910815e-08
-3.53801751783e-09
-1.24983630137e-08
8.17839840941e-09
-1.24877527355e-08
1.96138801813e-08
-1.25200283515e-08
3.12129226755e-08
-1.24786738541e-08
4.24907155591e-08
-1.25226496201e-08
5.40587200234e-08
-1.25123829606e-08
6.54114984731e-08
-1.26588283391e-08
7.71435915241e-08
-1.28547929515e-08
8.88266577383e-08
-1.33257275435e-08
1.00890470335e-07
-1.40094521162e-08
1.13150961485e-07
-1.49586540007e-08
1.2556951393e-07
-1.64680029763e-08
1.39428498043e-07
-1.81823798369e-08
1.55127501726e-07
-2.03639810331e-08
1.73242858126e-07
-2.28647505908e-08
1.93840145359e-07
-2.57980743247e-08
2.1745354399e-07
-2.89793567331e-08
2.44038013476e-07
-3.24712913696e-08
2.74068916267e-07
-3.6086640039e-08
3.07572836955e-07
-4.01349199081e-08
3.45631672798e-07
-4.48538051121e-08
3.89217603764e-07
-5.09617080546e-08
4.40399896335e-07
-5.85913983128e-08
5.00574564101e-07
-6.74531171044e-08
5.70706271459e-07
-7.7062930056e-08
6.50209067516e-07
-8.56165460316e-08
7.31248942757e-07
-8.73463802315e-08
8.01599409065e-07
-7.63887371066e-08
8.5021939169e-07
-5.60424991659e-08
8.68730180956e-07
-2.68489303511e-08
8.55684370253e-07
1.80036158274e-09
8.754692633e-07
-3.3251355119e-08
9.67407252087e-07
-1.11109928599e-07
9.23843317841e-07
1.64031543727e-08
7.45952211182e-07
1.41258324313e-07
5.98842504218e-07
1.02854714682e-07
3.87654630033e-07
1.71775585344e-07
2.62339070766e-07
9.94620159188e-08
1.88427810813e-07
5.33976645507e-08
1.40656546383e-07
3.06998810483e-08
1.07553531518e-07
1.80218021036e-08
8.39853185396e-08
1.07869970632e-08
6.63954101521e-08
6.42282919974e-09
5.30669896286e-08
3.95651887713e-09
4.17179898008e-08
2.38430305245e-09
3.16499481712e-08
1.69303010341e-09
2.13011778404e-08
1.19141566003e-09
1.09903595319e-08
1.29820911292e-09
-5.0012030427e-10
1.36789300499e-09
-1.25575782435e-08
1.94916572518e-09
-2.64897065753e-08
2.36264159404e-09
-4.16097328268e-08
3.27599488149e-09
-5.95212264111e-08
3.90724108729e-09
-7.95401628369e-08
5.04294794678e-09
-1.03706638635e-07
5.81239782652e-09
-1.31497670846e-07
7.04665297395e-09
-1.64978276474e-07
7.76079908165e-09
-2.03548722036e-07
8.41719562189e-09
-2.47976062766e-07
8.8010259809e-09
-2.96234034112e-07
8.82065985351e-09
-3.46036515084e-07
9.56843115231e-09
-3.96313473543e-07
9.87273166884e-09
-4.46188652513e-07
1.08510827966e-08
-4.97483985055e-07
1.12979670369e-08
-5.49047099467e-07
1.25147415514e-08
-6.02188975608e-07
1.27399450026e-08
-6.54181230396e-07
1.41391791128e-08
-7.06982041062e-07
1.42482664825e-08
-7.5686974222e-07
1.59415187568e-08
-8.06112826621e-07
1.593500959e-08
-8.49285375979e-07
1.80067292655e-08
-8.89000571071e-07
1.77658956643e-08
-9.17592792543e-07
2.03194056229e-08
-9.38679200935e-07
1.96611077934e-08
-9.41479137228e-07
2.27934665211e-08
-9.31282639138e-07
2.13769137199e-08
-8.92547524649e-07
2.50394475736e-08
-8.32702331635e-07
2.22525819714e-08
-7.29116984966e-07
2.61409439469e-08
-5.91991425991e-07
2.10130874204e-08
-3.89227127924e-07
2.45786472194e-08
-1.35530491778e-07
1.59901654072e-08
2.12588987619e-07
1.87085201468e-08
6.32952533177e-07
5.56361322717e-09
1.18246317393e-06
6.84420238156e-09
1.82840457777e-06
-1.20665465225e-08
2.6442643322e-06
-1.32399618794e-08
3.58592347494e-06
-4.01736673922e-08
4.74733738869e-06
-4.60563756178e-08
6.07104988023e-06
-8.16695023257e-08
7.67062875209e-06
-9.03821596766e-08
9.46978338106e-06
-1.27402321663e-07
1.15965356325e-05
-1.28896796184e-07
1.39563283886e-05
-1.54544831866e-07
1.66871890244e-05
-1.37374919213e-07
1.97251308447e-05
-1.83684928753e-07
2.32755132281e-05
-2.46543287699e-07
2.73541274569e-05
-4.54241451367e-07
3.2304060238e-05
-8.20064092335e-07
3.81677553167e-05
-1.39461186919e-06
4.5225498621e-05
-2.13108293053e-06
-2.64594153818e-06
5.29949210677e-05
-1.17715183745e-08
7.34789380664e-09
-3.62172532127e-08
5.34197711908e-08
-7.27337059098e-08
6.06909266823e-08
-9.01789726772e-08
3.87074242043e-08
-7.66041724963e-08
1.97267739065e-08
-5.01576624863e-08
8.59474328463e-09
-2.7195024418e-08
2.83129743291e-09
-6.9619982925e-09
2.21692628661e-10
8.23729069756e-09
-3.83044128826e-10
1.95471967387e-08
2.07644932382e-10
2.56390350131e-08
1.39192073045e-09
2.84497592915e-08
2.82108044351e-09
2.74842341085e-08
4.26196373736e-09
2.44851905338e-08
5.61504403532e-09
1.9352119748e-08
6.78404149817e-09
1.32711206516e-08
7.73311867813e-09
6.30671799663e-09
8.41738747772e-09
-8.65253621891e-10
8.83441607815e-09
-8.10472878769e-09
8.98694015413e-09
-1.50586189274e-08
8.89972521271e-09
-2.15832499772e-08
8.59088352721e-09
-2.75258004497e-08
8.10469185812e-09
-3.27143686031e-08
7.46965046893e-09
-3.71382854494e-08
6.71434665573e-09
-4.06266878776e-08
5.86934690901e-09
-4.32358311126e-08
4.95661181228e-09
-4.48431055268e-08
3.98891333955e-09
-4.55734500169e-08
2.98012260883e-09
-4.52819223594e-08
1.94310332273e-09
-4.41538052447e-08
8.79652757524e-10
-4.20355848347e-08
-2.02213996257e-10
-3.91629894067e-08
-1.30529301148e-09
-3.5337339386e-08
-2.41895704584e-09
-3.08160356759e-08
-3.55213610309e-09
-2.53981450133e-08
-4.69783564858e-09
-1.93368255587e-08
-5.8612845334e-09
-1.24369018326e-08
-7.03758429956e-09
-4.91704918283e-09
-8.23006184972e-09
3.39285852657e-09
-9.43129035908e-09
1.23390177412e-08
-1.06411587586e-08
2.20333468843e-08
-1.18555082534e-08
3.2405071456e-08
-1.30694992755e-08
4.34768383642e-08
-1.42829769499e-08
5.52702351195e-08
-1.54865078184e-08
6.76968455247e-08
-1.66855358797e-08
8.08647316192e-08
-1.78651524564e-08
9.45913926157e-08
-1.90332144635e-08
1.09046597855e-07
-2.01717864001e-08
1.23967813269e-07
-2.12961884684e-08
1.39543097702e-07
-2.23737329164e-08
1.55532671224e-07
-2.34145969647e-08
1.72087127322e-07
-2.44012419218e-08
1.88993938276e-07
-2.53343242887e-08
2.06355016998e-07
-2.61941442222e-08
2.24008320026e-07
-2.69870918117e-08
2.42003927802e-07
-2.76950001659e-08
2.60240292927e-07
-2.83203514516e-08
2.78698544813e-07
-2.88527511512e-08
2.97327392045e-07
-2.92896107998e-08
3.16035613927e-07
-2.96118736055e-08
3.34729671941e-07
-2.97700486728e-08
3.53383076229e-07
-2.994303699e-08
3.72043596603e-07
-3.00618084513e-08
3.9063796668e-07
-3.00735419997e-08
4.09157008687e-07
-2.99964975603e-08
4.27503627799e-07
-2.98075862078e-08
4.45521835177e-07
-2.9503275246e-08
4.63130258896e-07
-2.90998602572e-08
4.80137912254e-07
-2.86279506317e-08
4.96539645329e-07
-2.80830614835e-08
5.12123475967e-07
-2.74907303406e-08
5.26932954027e-07
-2.68258270474e-08
5.40760129387e-07
-2.61143879904e-08
5.53663238213e-07
-2.53348932932e-08
5.65475586365e-07
-2.45055272606e-08
5.76281667946e-07
-2.36027222099e-08
5.85909296493e-07
-2.26683281902e-08
5.94436837754e-07
-2.16739433277e-08
6.01749305994e-07
-2.06500576958e-08
6.07968869823e-07
-1.95700109974e-08