/*--------------------------------*- C++ -*----------------------------------*\
| =========                 |                                                 |
| \\      /  F ield         | OpenFOAM: The Open Source CFD Toolbox           |
|  \\    /   O peration     | Version:  v1806                                 |
|   \\  /    A nd           | Web:      www.OpenFOAM.com                      |
|    \\/     M anipulation  |                                                 |
\*---------------------------------------------------------------------------*/
FoamFile
{
    version     2.0;
    format      ascii;
    class       volScalarField;
    location    "20";
    object      sensitivity;
}
// * * * * * * * * * * * * * * * * * * * * * * * * * * * * * * * * * * * * * //

dimensions      [0 2 -3 0 0 0 0];


internalField   nonuniform List<scalar> 
12225
(
-3.94855788739
-10.08248445
-7.49661102522
-8.33909016037
-8.00306485476
-8.03245826613
-7.88613819674
-7.80284167753
-7.77571445093
-7.89629739323
-8.18834726031
-8.59270194046
-8.91635450784
-8.99998448842
-9.2663455503
-11.2136424222
-15.9815015938
-18.9455830497
-24.0534482389
-9.82787289235
-12.0740561723
-11.751853699
-12.1973383428
-12.4557896002
-12.7821618134
-13.1605056703
-13.655293824
-14.2958160097
-15.0664943737
-15.8506417919
-16.4556220443
-16.8272586078
-17.5358112598
-19.892803475
-23.9424701652
-24.3155282444
7.84952870705
-12.1539475706
-9.11468830248
-10.1990544679
-9.80588127843
-9.89887090026
-9.84708786468
-9.92971801365
-10.1178160949
-10.4668659544
-10.9412868558
-11.4250442499
-11.7505950591
-11.9440680456
-12.6088555153
-14.774951161
-18.0433576118
-18.4949335583
-25.780221414
-7.64779191284
-11.3457013556
-10.3749814134
-10.7794570588
-10.7664081576
-10.8906317876
-11.0515426757
-11.3288795478
-11.7285673934
-12.2086714324
-12.6417654175
-12.8839027667
-12.9878836082
-13.4327247524
-14.7760897725
-16.312807768
-15.6983721442
7.35430898353
-12.0715065552
-8.78983253328
-10.0267156538
-9.71792753162
-9.88741151481
-9.94012856206
-10.1136183336
-10.3842491796
-10.7846289721
-11.2686119573
-11.7372728704
-12.1028538882
-12.4543786606
-13.1244692797
-14.2604576237
-15.0444274971
-14.1547784802
-19.4323202981
-9.65246947925
-10.0859474628
-10.0851141428
-10.1432466928
-10.2097833223
-10.2784650146
-10.4115587674
-10.6180218219
-10.9080496037
-11.2407285908
-11.5468871616
-11.7973151109
-12.1104527544
-12.706634583
-13.5210977044
-13.8615262633
-13.0391517255
-4.82738252861
-9.83901421648
-9.5712630576
-9.86601059945
-9.87190973111
-9.99653962972
-10.1079180803
-10.2851610097
-10.5190266497
-10.8063621983
-11.103256377
-11.3589181123
-11.5741305215
-11.8557975302
-12.3207729379
-12.8224049303
-12.879299754
-12.1790205272
-10.5325940573
-10.0492522095
-9.59423235665
-9.86184338396
-9.85102037456
-9.96123016479
-10.0618407927
-10.2255786192
-10.4368451872
-10.6866294616
-10.935113604
-11.1487619736
-11.3412147015
-11.5871545826
-11.9220466289
-12.1876265741
-12.0862262877
-11.4994660928
-9.1840631908
-9.81025968311
-9.63016177892
-9.80955420288
-9.82775469293
-9.92775037549
-10.0291734618
-10.1795235692
-10.3655652739
-10.5743494346
-10.7748622973
-10.9483030013
-11.1116971758
-11.3071725878
-11.5226990611
-11.6254074539
-11.4471178061
-10.9561779249
-9.43692223297
-9.80423788599
-9.62558721707
-9.78385483891
-9.80741600143
-9.89953386367
-9.99673163554
-10.1314069861
-10.2907978665
-10.4608701231
-10.6190736589
-10.756153836
-10.8856167371
-11.023933143
-11.1393151013
-11.1357322583
-10.9260371297
-10.5123965211
-9.46708064149
-9.75617792726
-9.64529909402
-9.76261963971
-9.79540541272
-9.87459046099
-9.96430797114
-10.0798769982
-10.2116171267
-10.3456058694
-10.4666093246
-10.5700241876
-10.6630739789
-10.7456912443
-10.7834105623
-10.7137976059
-10.4963495733
-10.144050472
-9.491558095
-9.71800786202
-9.65230204375
-9.73719602603
-9.77514012734
-9.84122109628
-9.92110472224
-10.0173811542
-10.1238187003
-10.2273786565
-10.3176324737
-10.3913612517
-10.4505018997
-10.4876893582
-10.473729705
-10.3697158349
-10.1577535259
-9.85211629155
-9.55401780301
-9.68710747593
-9.66445660841
-9.71725212735
-9.75774821091
-9.80978234086
-9.87796376158
-9.95448751989
-10.0363322988
-10.1116557702
-10.1734504771
-10.218750791
-10.2457277811
-10.2443930914
-10.1930245774
-10.0689160602
-9.86659462001
-9.5989872327
-9.61583590109
-9.65391807703
-9.67402263153
-9.69322572356
-9.73348104609
-9.76876510149
-9.82180694884
-9.87590067716
-9.93158377548
-9.97797353036
-10.0106762171
-10.0263712935
-10.0212794918
-9.98618666012
-9.90672005795
-9.77173950802
-9.58214337243
-9.34935972528
-9.68694215538
-9.61767459057
-9.68170204394
-9.66477014416
-9.70107937524
-9.7168170302
-9.75136570719
-9.78121127072
-9.80977112513
-9.8275371335
-9.83138039206
-9.81824862322
-9.7840977264
-9.72220492243
-9.62442488469
-9.48638462988
-9.31184172318
-9.11002702281
-9.79061446101
-9.59005741643
-9.69057967478
-9.63838735012
-9.6658901746
-9.66039774399
-9.67404387605
-9.67876914199
-9.68051023857
-9.67054066651
-9.6471849154
-9.6076149729
-9.54918299495
-9.46775998188
-9.35977943919
-9.22415840241
-9.06547156563
-8.89110305566
-9.86316518376
-9.57511090246
-9.68573628692
-9.60549280655
-9.61802858871
-9.59109620634
-9.5824196362
-9.5627236604
-9.53903766557
-9.50387795803
-9.45637165821
-9.39486685433
-9.31805130751
-9.22417235586
-9.11193669145
-8.98191537881
-8.83802724372
-8.6861171894
-9.85012459869
-9.53537237971
-9.67432471759
-9.56794585291
-9.5627243845
-9.51547022464
-9.48562129388
-9.44437785671
-9.39901982795
-9.34346516253
-9.27774389501
-9.20122174343
-9.11371317136
-9.01492956308
-8.90465081086
-8.7839326101
-8.65617241769
-8.5260009273
-10.2837704855
-9.6487234091
-9.64723344796
-9.50714207702
-9.4772569612
-9.41222870041
-9.3626390375
-9.30227393596
-9.23763353795
-9.16412082607
-9.08213232034
-8.99252666255
-8.89586302408
-8.79247247387
-8.682351656
-8.56648274407
-8.44760840749
-8.33207751087
-8.62809139158
-9.20898043772
-9.59632939657
-9.5063661882
-9.4926575028
-9.42482314837
-9.37146911857
-9.30629046589
-9.23687458871
-9.15972380673
-9.07608146313
-8.98592804326
-8.89049849173
-8.7899635876
-8.68452424849
-8.57441300593
-8.46152517283
-8.34202073443
-13.1504126029
-10.0250441291
-9.62246055151
-9.4445873889
-9.40500030324
-9.34005900507
-9.28164015272
-9.2121382471
-9.1378628334
-9.05669404203
-8.97014948
-8.88064322908
-8.78949819506
-8.69756203772
-8.60498979031
-8.51218759768
-8.42198249599
-8.3539349406
-2.34943285651
-8.86383404872
-9.56726207814
-9.60910858413
-9.57655195232
-9.48392324932
-9.40817787329
-9.31489272462
-9.21932906199
-9.11573252164
-9.0060428356
-8.89019621856
-8.76977073293
-8.64407139707
-8.51317618333
-8.37784938739
-8.23967353995
-8.07807558436
-24.7226629029
-9.8758312741
-9.98643504233
-9.45747852571
-9.53979472942
-9.4910235264
-9.46027216197
-9.42017615085
-9.37917505187
-9.33734495766
-9.29557764176
-9.25305323452
-9.21063207119
-9.16888562384
-9.12706043071
-9.08316401654
-9.0365004586
-9.01676674478
16.0034115957
-10.3107603276
-8.92556914035
-9.86895500608
-9.5372041628
-9.46536378957
-9.32955500118
-9.18759276255
-9.03825692623
-8.88033040165
-8.71792772384
-8.55356201335
-8.38878668451
-8.22424147329
-8.06152437193
-7.90494494931
-7.76130475703
-7.60658427903
-49.5228366394
-6.8997792838
-11.5038852185
-9.38365281361
-10.0470076955
-9.86978002426
-9.90584845177
-9.87826178718
-9.86584308955
-9.85023692561
-9.83520614941
-9.81828255416
-9.79858211524
-9.77280674825
-9.73866139337
-9.6928201586
-9.63225419378
-9.59401887826
41.9883714065
-15.9487153533
-6.92555345384
-10.3973857788
-9.20058624674
-9.37076655409
-9.13837953917
-9.01191319802
-8.8530045547
-8.70141605607
-8.54804703652
-8.39355107641
-8.23621977341
-8.07484175004
-7.91035553205
-7.74956726229
-7.60612443592
-7.44594601628
-58.6596951664
-1.5830121406
-13.5634482546
-9.40135389886
-10.7916214969
-10.3247026712
-10.4314816556
-10.3518764382
-10.3263925771
-10.2834384129
-10.2451456979
-10.20263888
-10.1583159386
-10.1132183034
-10.0710408427
-10.0363916532
-10.0068399603
-10.015655829
31.6091809378
-16.4738274776
-7.08235097427
-10.2067816192
-9.05791164461
-9.2606830852
-9.03876171406
-8.94667088967
-8.81126748348
-8.68993417088
-8.56627776287
-8.44498653941
-8.32530418469
-8.20805348791
-8.0927045172
-7.97874480736
-7.86375674234
-7.68623983745
-36.2568122743
-7.0489037685
-13.0807789228
-10.9673065784
-11.589803144
-11.3445620828
-11.3698670379
-11.3027058912
-11.2564095719
-11.1970020916
-11.13512817
-11.0646943423
-10.9882148663
-10.9045078696
-10.8085011429
-10.691328401
-10.5362552894
-10.4003299297
-1.36965100927
-9.20301284123
-5.95061111194
-6.7064350291
-6.28995004952
-6.25294580526
-6.10503118679
-5.98802798549
-5.86245131225
-5.73897189689
-5.61616725882
-5.49605907941
-5.38143225502
-5.27325222283
-5.16947687572
-5.07102409767
-5.00183349877
-4.96884902681
-0.00013010856504
-7.12603872177e-05
0.00739784055743
0.0127393878583
0.0060579839301
-0.0240106710064
-0.0508195406182
-0.0781640147449
-0.105370054439
-0.13337305718
-0.164426505225
-0.200677888966
-0.243676186395
-0.293893106167
-0.350813897822
-0.413333757809
-0.479948804309
-0.549265928206
-0.61995951977
-0.691155057852
-0.762149691054
-0.832657871733
-0.902492634651
-0.971736460898
-1.04039967702
-1.10869382035
-1.17667732788
-1.24448295357
-1.31201391672
-1.3792509308
-1.44592380151
-1.51183906299
-1.57660101568
-1.63982495025
-1.7009906242
-1.75957461056
-1.81506544632
-1.86685468278
-1.91445158117
-1.95724329181
-1.99484756168
-2.0266940628
-2.05255830566
-2.0719816343
-2.08493683825
-2.09116295183
-2.09075058459
-2.08371557444
-2.07028011634
-2.05064173986
-2.02507686664
-1.99395881183
-1.95743066147
-1.9159495026
-1.86976831671
-1.81929852647
-1.76469867214
-1.70637112971
-1.6444894948
-1.57938101567
-1.51120455731
-1.44028399346
-1.36647166388
-1.28983947288
-1.21202036322
-1.13301191804
-1.05276906375
-0.971182815972
-0.888556084587
-0.805121270238
-0.721273936283
-0.637235334522
-0.553286477753
-0.469585377793
-0.386213272337
-0.303264683768
-0.220800303343
-0.138940584776
-0.0578936746469
0.0221547573503
0.10095720412
0.178261358804
0.25373008442
0.327244983097
0.398753168432
0.468099692012
0.535401828885
0.600241324813
0.662680433295
0.721652494604
0.777289454123
0.831111001827
0.884171874881
0.936938950316
0.989538468676
1.04159588356
1.09195342532
1.13896158237
1.18124291111
1.21906510883
1.25286972239
1.27844760712
1.28833251627
1.2807938047
1.24659570797
1.16129493897
1.03753947538
0.885714166203
0.658503498037
0.427165062782
0.296886167314
0.118733087488
-0.115413511338
-0.316069331009
-0.208941664696
-0.127849604347
-0.105736157552
-0.0992614518714
-0.100821373157
-0.107054943559
-0.116214175818
-0.127092697378
-0.138450595208
-0.149245768255
-0.158662579419
-0.166337151648
-0.17200676839
-0.175550990815
-0.176745359414
-0.175458417624
-0.171527275016
-0.164733778431
-0.154656830471
-0.140879426942
-0.122974434436
-0.100492912037
-0.073488280647
-0.040939571931
-0.00388649932751
0.0356646681881
0.0753278128185
0.114040957493
0.151828818006
0.189434626695
0.227345773487
0.266167048697
0.306392778704
0.348747733844
0.39374127798
0.442106702722
0.494226998795
0.550885327022
0.612416800646
0.67985787778
0.753681746926
0.835311373534
0.925255335175
1.02503453474
1.13484490812
1.25607106289
1.3880231979
1.53161112839
1.6858168892
1.85167582215
2.02789011017
2.21185025887
2.40098605136
2.59637229706
2.79298396794
2.98207938571
3.1613509143
3.33252903924
3.57752083692
3.80979337922
4.00327276946
4.22183355048
4.60455319965
4.93423041577
5.06227184642
3.2782996894
0.0195921348531
-0.00339656286682
-0.046324853764
-0.0556447098999
-0.0465336841281
-0.0254250529054
0.00109190799801
0.0296590528145
0.058610091246
0.0857597658432
0.108721913851
0.125808282885
0.136212820173
0.139940407347
0.137649971747
0.130243007452
0.11884691996
0.104470590236
0.0881616625139
0.0707690864084
0.0531296466476
0.0358843548364
0.0197101747051
0.00511571532176
-0.00736911911301
-0.0173529438748
-0.0244370732127
-0.0283684413972
-0.0288452407555
-0.0257039723733
-0.0187535507341
-0.00792513072929
0.00689736354051
0.025784074069
0.0488061785337
0.0760510682213
0.107589406989
0.143575495448
0.184108876313
0.229430180807
0.279672933284
0.335132628673
0.395946180235
0.462400156946
0.53458248505
0.612668114406
0.696655254831
0.786560169396
0.882251555231
0.983473193468
1.09001999006
1.20153425527
1.31768672187
1.4379695429
1.56195673124
1.68905582216
1.81880265099
1.95059287013
2.08392276055
2.21816415222
2.35271725401
2.48694605104
2.62017914449
2.7525661135
2.88429618247
3.01388077729
3.13989525819
3.26139891037
3.37750975054
3.48747035188
3.59051745179
3.68600246913
3.77338026624
3.85221573203
3.9222116309
3.9832349572
4.03525057335
4.07827740228
4.11239943995
4.13776030234
4.15440223633
4.16226219161
4.16104012599
4.15024838879
4.12892867293
4.09559271441
4.04807485048
3.98376995401
3.89906339708
3.79018288881
3.65544723314
3.49529557922
3.31206713543
3.10925434621
2.89180660191
2.66613572541
2.44024381914
2.22302913412
2.02143155273
1.83651578521
1.66613624133
1.51303592375
1.37697393775
1.23884331649
1.08498549864
0.936829756876
0.765066373806
0.531541907791
0.358770058693
0.222531865262
0.00238772272681
-0.201518929615
-0.335136097392
-0.437215384624
-0.420571181533
-0.471181560089
-0.547981396585
-0.626027424595
-0.700648347392
-0.770391052212
-0.834865157613
-0.893757999048
-0.946568268326
-0.992720898924
-1.03190837767
-1.06407735331
-1.08934214394
-1.1078322814
-1.11977918543
-1.12551768006
-1.12539475168
-1.11978026111
-1.10893215134
-1.09305759177
-1.07231898432
-1.04631526161
-1.01390803043
-0.97496554565
-0.930834408481
-0.883763460303
-0.836049855759
-0.788797196755
-0.741900701141
-0.694710361701
-0.646655435413
-0.597150650845
-0.545598448555
-0.49129295247
-0.433536127293
-0.37156469997
-0.304741527348
-0.232308837788
-0.153617615802
-0.0676229762233
0.0265708391807
0.130352669194
0.244682130984
0.371090891074
0.510319475402
0.663381424383
0.82991183133
1.01049911207
1.20487523416
1.41400990369
1.63717980943
1.87508754208
2.13435361427
2.41779670226
2.72332305015
3.03534196964
3.35157869141
3.66376273644
3.97041546009
4.10959272394
4.23395347593
4.42106915371
5.09028670492
6.02660063267
7.30058200902
8.50488313685
-0.0265083004059
-0.0538374539626
-0.039367002723
0.00327408956718
0.0593690421361
0.115784303706
0.166774728132
0.212646900618
0.253971543396
0.290655062884
0.3223111303
0.34912041019
0.371821849773
0.39145438247
0.409130710101
0.42572905004
0.441994594342
0.458370558802
0.475234656202
0.492724705977
0.511005645456
0.530083331178
0.549998181714
0.570702369375
0.592214039754
0.614470018582
0.637474535583
0.661190364146
0.685645047541
0.710832828572
0.736801556808
0.763570769307
0.791195891493
0.819711534224
0.849170615606
0.879621713292
0.911077608313
0.943589875558
0.97714101969
1.01176055897
1.04737015413
1.083959454
1.12137708447
1.15954277637
1.19822650094
1.23725420604
1.27635664189
1.31526138805
1.35367851112
1.39131686473
1.42789615988
1.46312289674
1.49681976388
1.52872372408
1.55867409354
1.58647678276
1.61206023565
1.63531394077
1.65623782516
1.67483998694
1.6911181091
1.70644215482
1.71997362213
1.73114611536
1.74068843358
1.7495489547
1.7582024353
1.76706723013
1.77663499093
1.78746554995
1.80007245927
1.81493537003
1.83244889376
1.85295268326
1.87676765632
1.90411672694
1.93515929073
1.96996250752
2.00851865517
2.05075674283
2.09651084588
2.14551494113
2.19740254651
2.2516838083
2.30760533596
2.3638857596
2.4188112477
2.46967822028
2.5126222953
2.54274360307
2.55510279321
2.54571760947
2.51032981255
2.44573316848
2.35066366873
2.22671573734
2.0786003477
1.91252986742
1.73396686789
1.54946587321
1.37171146853
1.2103614817
1.05460824485
0.898507199809
0.770518863989
0.649780562049
0.478873457127
0.358163738585
0.272968504361
0.100197629242
-0.154109727264
-0.253882431853
-0.360510236369
-0.432144675113
-0.476276774971
-0.553032443539
-0.624657938063
-0.683555166325
-0.733090753741
-0.776572916586
-0.81610129594
-0.852606664476
-0.886183498843
-0.916507512432
-0.943358949135
-0.966666387076
-0.986521124366
-1.00308594174
-1.01666534345
-1.0276274801
-1.03637210726
-1.04314236453
-1.04790396063
-1.05024491027
-1.04920977395
-1.04335794235
-1.03107847907
-1.01160610095
-0.98602091674
-0.957105225657
-0.926345497641
-0.894727932073
-0.86196232093
-0.827291101337
-0.790034791983
-0.749512763271
-0.705072619995
-0.655971918437
-0.601588182742
-0.541269577162
-0.474593143722
-0.401003365823
-0.320151809297
-0.231315973001
-0.133999492442
-0.0271471280689
0.0899146557059
0.21846315196
0.358980597917
0.512387962379
0.678323581981
0.857148590713
1.04777827849
1.2500069617
1.46258663459
1.68595477547
1.92303619616
2.17751163377
2.45068545533
2.74540369011
3.06347920893
3.39305211269
3.7206631425
3.94350224163
4.09965390736
4.21024504947
4.33764147349
4.60895867451
5.26305227399
6.1716000404
-0.040366548325
-0.00254223927149
0.0545965854782
0.115101055643
0.174129345818
0.222323903923
0.259793944947
0.292091112345
0.322681229487
0.352339107708
0.380713628008
0.407700279798
0.433656835233
0.459116432894
0.484654835498
0.510628682804
0.537363634689
0.564985048188
0.593690086638
0.623569411558
0.654806759979
0.687501633766
0.721846956427
0.757945801768
0.795933980241
0.835887431152
0.877869547212
0.921881015938
0.967896937127
1.01584404016
1.06561358956
1.11704860509
1.16997044689
1.22417776693
1.27944004572
1.33552676421
1.3922034705
1.44925037991
1.50643180936
1.56356725769
1.62043873866
1.67689743749
1.73274412481
1.78785202775
1.84204695002
1.8952133225
1.9472080995
1.99795486868
2.04737047483
2.09537604232
2.14196816724
2.18713389968
2.2308986369
2.27328919515
2.31440175631
2.35429964207
2.3931038612
2.4309989843
2.46816214357
2.50470564738
2.54108520683
2.5768700266
2.61327437868
2.64986949455
2.68588730677
2.72084266766
2.75427993946
2.78561384238
2.81415405147
2.83927799486
2.86041181667
2.87708984715
2.88900186377
2.89598300298
2.89802187159
2.89527483461
2.88801599262
2.87656959599
2.86131241368
2.84262609209
2.82085419811
2.7962864027
2.76914622778
2.73956660537
2.70751098927
2.67276104583
2.63481804306
2.59302248613
2.54567037187
2.49063699256
2.42659994483
2.35259711124
2.26760061266
2.1702581196
2.05885892584
1.93132116211
1.78540962214
1.62031170826
1.43899270536
1.25071071347
1.0639108682
0.874665321947
0.682574449543
0.525502585792
0.399440348386
0.246025555807
0.134112159214
0.116326406517
0.0136996717137
-0.120435666472
-0.206115946462
-0.296494630817
-0.430000816952
-0.54449428288
-0.643247954349
-0.743937282531
-0.832643409265
-0.908661118352
-0.974719684713
-1.03322360951
-1.08549753364
-1.13204317979
-1.1727678727
-1.20750264864
-1.23619988598
-1.25902232312
-1.27622084748
-1.28814067257
-1.29517996003
-1.29781702062
-1.29651714605
-1.29165193158
-1.28332202243
-1.27124008773
-1.25469005121
-1.23271156782
-1.20451761555
-1.17035610426
-1.13132629297
-1.09066206174
-1.05013973896
-1.01034237389
-0.970848541867
-0.930903149757
-0.889774385544
-0.846771738733
-0.801158304481
-0.752171848545
-0.699063182201
-0.641144414089
-0.577810232728
-0.508478702683
-0.432602842044
-0.349472335518
-0.258353902796
-0.158228252275
-0.0482013678118
0.0728575330174
0.20564213864
0.350966951489
0.508774072736
0.679244352314
0.861206900933
1.05374770786
1.255476871
1.46587389442
1.68595637087
1.91868193639
2.16708402894
2.44776201288
2.76974857193
3.12474820285
3.50598837544
3.8468398733
4.14648918231
4.34130266347
4.11699740804
3.69957294623
3.44435556041
3.21944634594
-0.0181979501924
0.16151927395
0.235065469729
0.254736103925
0.267274347349
0.27356581335
0.277901244498
0.286629801383
0.301816788429
0.322105559593
0.345501152128
0.370722281127
0.397293877057
0.425080435652
0.454175379998
0.484578346376
0.51637784389
0.549538103092
0.584136020092
0.620149580342
0.65768818593
0.696787691
0.737563074091
0.780085724167
0.824467398183
0.870772945773
0.919067697709
0.969391885929
1.02174688911
1.07611115044
1.13240491942
1.19052707454
1.25031074272
1.31154803982
1.37399596405
1.43736691657
1.50133451286
1.56555428206
1.62965300128
1.69324590601
1.755920773
1.81727852982
1.8768948371
1.93437736245
1.98932406999
2.04138392624
2.09022925866
2.13558122054
2.17721273623
2.21496810087
2.24871129849
2.27835465648
2.30388750765
2.32529183373
2.3425965025
2.35584658668
2.36512835071
2.3705658924
2.37225086009
2.37035021511
2.36550045995
2.3579880936
2.3475541471
2.33520148947
2.32200835456
2.30880961692
2.29629705026
2.28511271129
2.27578184312
2.26869727175
2.26408199171
2.26201024856
2.26238141736
2.26498678524
2.26956433018
2.27579558846
2.28336160845
2.29194594852
2.30123735149
2.31091491201
2.32063090539
2.329959262
2.33838141174
2.34520974131
2.3494844938
2.34981291875
2.34443598296
2.33083892705
2.30599002773
2.2661632251
2.20902757618
2.1343867128
2.04298822664
1.93603485871
1.81388071844
1.67604681599
1.52261029709
1.35526807939
1.17760235577
0.989410438447
0.785607693625
0.570990704078
0.373863556155
0.204883574014
0.0139662889113
-0.135206898259
-0.170858105562
-0.195604603756
-0.267980606034
-0.310763612453
-0.363329807556
-0.475377059097
-0.611372332699
-0.729204769266
-0.831483075684
-0.922287535496
-0.997925872822
-1.06015203862
-1.11188976213
-1.15605445326
-1.19471112413
-1.22903723327
-1.25940728146
-1.28589446288
-1.30844904962
-1.32708499037
-1.34182923079
-1.35283948985
-1.36035626847
-1.3647754036
-1.36642929638
-1.36556160266
-1.36215737147
-1.35578378669
-1.34561528243
-1.33049318148
-1.30950805776
-1.28245497557
-1.25029182406
-1.21592215017
-1.18076210971
-1.14504923286
-1.10838866361
-1.07005872965
-1.02946274316
-0.98602027565
-0.939144982089
-0.888209488068
-0.832645290802
-0.77193152094
-0.705668243611
-0.633441049393
-0.554889719808
-0.469467934241
-0.376604906085
-0.275426939475
-0.165134752195
-0.0447044082198
0.0865418572906
0.229402488447
0.383955170012
0.55057192848
0.728429610269
0.916840848097
1.11473968862
1.32159139757
1.53796191857
1.76586323727
2.00690348967
2.27879433865
2.59446423344
2.94790752227
3.3397918983
3.71794003737
4.0863621134
4.3658694938
4.11317777948
3.44672206246
2.76736739395
1.89967006408
0.0367667433779
0.465105427315
0.458945158992
0.361756151811
0.303036341442
0.26866434194
0.251536302788
0.249595485113
0.260121462223
0.279046116734
0.303228614297
0.330803492521
0.360926801842
0.393155978809
0.427377006095
0.463457045673
0.501418512017
0.541190092256
0.582827305164
0.62630312141
0.671682279209
0.718965878455
0.768220195066
0.819453744692
0.872693649714
0.927940788161
0.985169827818
1.04433954565
1.10535617819
1.16811573504
1.23244687744
1.29815050616
1.36496959134
1.43261420516
1.50073790805
1.56895868995
1.63687627464
1.70404965888
1.77003326902
1.83437010763
1.89660978081
1.95631285617
2.01306557735
2.06649147676
2.11626594533
2.16212770526
2.20388763845
2.24145387648
2.27480311902
2.3039941094
2.32914591349
2.35046863435
2.36816577181
2.3824912642
2.39371333079
2.4020344073
2.4079330923
2.41163184117
2.4134374951
2.41380272666
2.4132693083
2.41182399091
2.40852371739
2.40282691165
2.39450021313
2.38343057257
2.36957650191
2.35301678409
2.33393741623
2.31266753324
2.28963960076
2.26538259876
2.24049142595
2.21557360924
2.19118489254
2.16783083869
2.14591545345
2.12570264938
2.10732628813
2.09079534216
2.07603117219
2.06284380554
2.05101080564
2.04016313341
2.02970039964
2.01857942223
2.00502160269
1.98676789847
1.96007492397
1.92082640808
1.86597322322
1.79354040862
1.703221782
1.59541899207
1.47136018758
1.33343793294
1.18438626191
1.02592747948
0.855224707696
0.665217218733
0.461464106705
0.266813316417
0.071183523616
-0.126645962718
-0.314352937206
-0.377679665704
-0.398081644619
-0.458939644178
-0.505517406823
-0.535329686999
-0.604795885371
-0.717657777123
-0.835719329733
-0.940444659453
-1.03382684504
-1.11645173679
-1.18772776334
-1.24902933474
-1.30201926486
-1.3482095806
-1.38855911055
-1.42333047995
-1.45249096979
-1.47593969865
-1.49378775971
-1.50627499732
-1.51382192704
-1.51691609124
-1.51615330416
-1.51213812028
-1.50539784692
-1.49628069445
-1.48481383288
-1.47052089059
-1.45249460004
-1.42964954856
-1.40131011968
-1.36766622596
-1.32993327114
-1.29143437535
-1.25260349464
-1.2138277206
-1.17468349575
-1.13450296772
-1.09269663634
-1.04869117403
-1.00187608919
-0.951617332214
-0.897298379898
-0.838384301825
-0.774407704276
-0.704953338859
-0.62957836708
-0.547753454489
-0.458814510026
-0.361945911753
-0.256233605377
-0.140750847048
-0.0146867954888
0.122629964641
0.271505077667
0.432314528174
0.604827402574
0.788674245754
0.983504453854
1.18894816083
1.4058198534
1.63510265171
1.87576485177
2.13901174377
2.43595871875
2.76137555617
3.12049722404
3.46567309945
3.822753057
4.1494719807
4.08184553693
3.59931524886
3.05628753181
2.26387925545
0.136636832615
0.895597572051
0.664570434765
0.413240102033
0.302091011226
0.248674743571
0.224941583224
0.218723504196
0.225767980909
0.241507921073
0.263192025694
0.289138817983
0.318486788164
0.350657408563
0.385366455942
0.422327899529
0.461428362177
0.502501103248
0.545504518725
0.590341011917
0.637008224718
0.685455258949
0.735677974345
0.787646314288
0.841337298973
0.896709535263
0.953699006142
1.01223118839
1.07218142587
1.13340879829
1.19570896586
1.2588540564
1.32254930158
1.38645355961
1.45019095583
1.51333145526
1.57542455208
1.63598824212
1.69454885629
1.75061893463
1.80374750375
1.85350644282
1.89953140914
1.94151601894
1.97924464399
2.01259153415
2.04153936344
2.06616569858
2.08663974984
2.10322289567
2.11619019699
2.12587058749
2.13254127481
2.13646368207
2.13782115036
2.13679532708
2.13341452068
2.12762246848
2.11937659928
2.10843611991
2.09529768274
2.07857276276
2.05883328034
2.0367586671
2.01302801523
1.98834380383
1.96338771483
1.93867953447
1.91452818886
1.89104403213
1.86820316437
1.84595057612
1.82425449687
1.80318329193
1.78291204149
1.76368293442
1.74577440305
1.72944821476
1.71486933823
1.70210325835
1.69111259344
1.6817962527
1.6740254971
1.66749880223
1.66163845087
1.65517771762
1.6461559642
1.63142132956
1.60670586115
1.567090281
1.50839501873
1.42910620261
1.32985472963
1.21370175819
1.08332056175
0.941123223913
0.788364397239
0.624077405404
0.451137277135
0.27150540116
0.0911172579996
-0.0803778872645
-0.274527877287
-0.427341435332
-0.488768264021
-0.511892131726
-0.580349152917
-0.668254258321
-0.730510201785
-0.789264282217
-0.872665046605
-0.97174671809
-1.06656483566
-1.15200059717
-1.22898202141
-1.29667449273
-1.35450565322
-1.40305774836
-1.44337866882
-1.4767691393
-1.50441643877
-1.52714258922
-1.54558632013
-1.56021378247
-1.57144085189
-1.57954858792
-1.58478520522
-1.58731301967
-1.58735725653
-1.58511502307
-1.58072737968
-1.57418015884
-1.56512896941
-1.55286843547
-1.5363933796
-1.5148663911
-1.48781943165
-1.45576372689
-1.42008811118
-1.38383741209
-1.34682490324
-1.30953159427
-1.27143544229
-1.23190239411
-1.19035028755
-1.1462407971
-1.09902135759
-1.0481266707
-0.993031372838
-0.933283243934
-0.868511961639
-0.79838058811
-0.722526416302
-0.640464283672
-0.551590264918
-0.45513040203
-0.350238339305
-0.236020699851
-0.111696940475
0.0233777299818
0.169556907755
0.327272364784
0.496759838586
0.678133555558
0.871789751441
1.07762081413
1.29683477755
1.52960786337
1.77274872602
2.02920532035
2.3050787052
2.59487668405
2.90642935427
3.19423723485
3.50323185019
3.84309776924
4.0117981037
3.91269480995
3.8030990281
3.50761104341
0.311791993195
1.39488676869
0.800453589093
0.423769894321
0.301583807252
0.246945148566
0.222762746783
0.211835075516
0.21368757635
0.223986988273
0.24092773354
0.262924464029
0.289056216338
0.318615452053
0.35114731195
0.38623167475
0.423620389036
0.463043458368
0.504352779877
0.54736994591
0.591991752739
0.638094080967
0.685589424873
0.734375817527
0.784358598025
0.835439943312
0.887500527493
0.94041762186
0.994030887786
1.04816791167
1.10261335067
1.15711598692
1.21139182896
1.26510929273
1.31791100424
1.36939382648
1.41916464389
1.4667952343
1.51189728091
1.55408796701
1.59305771904
1.62854690892
1.66040446236
1.68856987571
1.71311281914
1.73421611617
1.75218273889
1.76741427484
1.78036541571
1.79151360606
1.8012870875
1.81003237031
1.81794818068
1.82513173686
1.83152423196
1.83696369941
1.84103618562
1.84330977061
1.84333925629
1.84033768144
1.8339152922
1.82255281929
1.80584018411
1.78380862654
1.75680416033
1.72550449728
1.69091333656
1.65412275701
1.6161417606
1.57779996869
1.53971592619
1.50232925649
1.46597695163
1.43094317999
1.39748980538
1.36592602333
1.33661666398
1.30993649292
1.28627160267
1.26593347715
1.24915406373
1.23620976212
1.22737096894
1.22284870714
1.22222885317
1.22427196969
1.22616086141
1.2234589581
1.20955651383
1.17709860188
1.1205379712
1.03750418922
0.929530799453
0.803337694978
0.661022827619
0.505675899867
0.339506054478
0.165259369962
0.000381711528813
-0.156794574339
-0.322242377979
-0.466644804557
-0.563022040051
-0.585889863165
-0.589187698464
-0.652085836976
-0.771522269504
-0.886367851464
-0.9761942235
-1.05680795936
-1.13961893469
-1.22079483096
-1.29476837824
-1.36215909636
-1.42361752606
-1.47845732213
-1.52632919148
-1.56769049823
-1.60325338649
-1.63390727489
-1.66022803809
-1.68254954574
-1.70091358771
-1.71532358629
-1.72570635881
-1.73209916549
-1.73458594518
-1.73342248888
-1.7289683534
-1.72166743019
-1.71186364854
-1.69975468741
-1.68511787094
-1.6673516462
-1.64562748981
-1.61930559067
-1.58817044434
-1.55275799312
-1.51503512653
-1.47671401463
-1.43790798901
-1.39891822976
-1.35924272337
-1.31828280974
-1.27548111116
-1.23031423764
-1.18225381975
-1.13075187105
-1.07531224208
-1.01548809619
-0.950931084084
-0.881293844972
-0.80623117209
-0.725234337541
-0.637710906214
-0.542852070635
-0.439851418008
-0.327796456091
-0.205959498995
-0.0736480055077
0.0694758926328
0.223956084669
0.390276705172
0.569050839948
0.761134935559
0.966661176404
1.18693278395
1.42168478327
1.66647795574
1.91776857476
2.17641416263
2.43620306063
2.70737239785
2.94535587161
3.2052203361