/*--------------------------------*- C++ -*----------------------------------*\
| =========                 |                                                 |
| \\      /  F ield         | OpenFOAM: The Open Source CFD Toolbox           |
|  \\    /   O peration     | Version:  v1806                                 |
|   \\  /    A nd           | Web:      www.OpenFOAM.com                      |
|    \\/     M anipulation  |                                                 |
\*---------------------------------------------------------------------------*/
FoamFile
{
    version     2.0;
    format      ascii;
    class       volVectorField;
    location    "20";
    object      Ua;
}
// * * * * * * * * * * * * * * * * * * * * * * * * * * * * * * * * * * * * * //

dimensions      [0 1 -1 0 0 0 0];


internalField   nonuniform List<vector> 
12225
(
(0.186405905323 55.2223026604 0)
(1.03756529694 13.158570931 0)
(0.777021544825 12.8052839836 0)
(0.895539425693 12.5756753581 0)
(0.879753973526 12.2902176782 0)
(0.907564812629 12.0504083137 0)
(0.913894308786 11.8295588337 0)
(0.927581377069 11.6654421776 0)
(0.948302824941 11.5475008551 0)
(0.989056226476 11.4480863437 0)
(1.05516521897 11.3077514207 0)
(1.140406267 11.053330543 0)
(1.21777892813 10.6329584191 0)
(1.26471134004 10.0807416917 0)
(1.34364287463 9.51401692387 0)
(1.68932892701 8.90796318538 0)
(2.5163921618 7.57940991107 0)
(3.12301381848 4.00752737511 0)
(2.87420437763 -48.6256782093 0)
(1.07827230291 -8.53739343944 0)
(1.30205560732 -8.39596974426 0)
(1.27319428802 -8.26084030175 0)
(1.32147912148 -8.13460586092 0)
(1.35258899182 -8.01631798791 0)
(1.39124519991 -7.88198464708 0)
(1.43654267152 -7.72008720567 0)
(1.49514046989 -7.51245168355 0)
(1.57051249467 -7.24847722843 0)
(1.66180885218 -6.92412157213 0)
(1.75701744957 -6.54587940179 0)
(1.8348474483 -6.12891615727 0)
(1.89024763124 -5.68221298108 0)
(1.98757719727 -5.18139144537 0)
(2.27490861897 -4.56164902842 0)
(2.765218141 -3.81398477215 0)
(2.84171712497 -3.14977629989 0)
(-1.01289138856 36.5408493465 0)
(1.22867850034 4.3414941882 0)
(0.91109573854 4.36592925126 0)
(1.02232387355 4.18317299323 0)
(0.979635519239 4.05367649738 0)
(0.988813196843 3.88229669798 0)
(0.983446457731 3.69303653333 0)
(0.992606613067 3.4824133301 0)
(1.01322401687 3.25212569448 0)
(1.05113977132 3.00208252514 0)
(1.10300661746 2.72776541639 0)
(1.15717243266 2.42111926286 0)
(1.1964532778 2.07586612859 0)
(1.22392048539 1.69797425568 0)
(1.30300560504 1.30599921073 0)
(1.54304852158 0.88297982715 0)
(1.90633164773 0.275813985831 0)
(1.9751911629 -0.696668830894 0)
(2.78748291614 -25.5115284069 0)
(0.80412711271 -2.29900839706 0)
(1.1785663038 -2.12429793842 0)
(1.07945365994 -2.03138120398 0)
(1.11850057074 -1.88274051396 0)
(1.11602813206 -1.74175320508 0)
(1.12726595374 -1.58213721808 0)
(1.14260240671 -1.41576485857 0)
(1.17007132947 -1.24172050035 0)
(1.21044209338 -1.06608295008 0)
(1.25961256169 -0.895056780924 0)
(1.30470756348 -0.736033703865 0)
(1.3310348318 -0.589469693077 0)
(1.34412070851 -0.441849334578 0)
(1.39358342262 -0.279779960256 0)
(1.5379034977 -0.155788911871 0)
(1.70543332272 -0.254833312544 0)
(1.65014689465 -0.710092133745 0)
(-0.825288348082 17.541928992 0)
(1.24371184498 1.31815884456 0)
(0.900976149042 0.724739602564 0)
(1.02832832547 0.779813742074 0)
(0.995070920571 0.645733514682 0)
(1.01223604378 0.57349513286 0)
(1.01739249269 0.488422636538 0)
(1.03534840154 0.411589949551 0)
(1.06361511375 0.333020224612 0)
(1.10566130931 0.249413998131 0)
(1.15690392184 0.154284891248 0)
(1.20732405249 0.0453231782218 0)
(1.24796776133 -0.0685102666542 0)
(1.28796718924 -0.162550030913 0)
(1.36161639372 -0.215761983633 0)
(1.48437545724 -0.265243457842 0)
(1.57156943802 -0.42424692391 0)
(1.48435889796 -0.721196906369 0)
(2.03843368269 -10.6787117968 0)
(1.0049280001 -0.768938905827 0)
(1.04158683895 -0.333597555507 0)
(1.04293281982 -0.409809851018 0)
(1.04671928712 -0.337459994088 0)
(1.05306728336 -0.298970175127 0)
(1.05928982796 -0.243773514728 0)
(1.07250860201 -0.188436940569 0)
(1.09352609264 -0.134568701583 0)
(1.12353633251 -0.0917174069774 0)
(1.15847127435 -0.0696595982444 0)
(1.19135183468 -0.0753210447672 0)
(1.21925452908 -0.105363888661 0)
(1.254393377 -0.145809730262 0)
(1.31953100023 -0.190202873682 0)
(1.40804299711 -0.270700893301 0)
(1.44787553748 -0.438910748683 0)
(1.36628265779 -0.65761576301 0)
(0.483638266836 4.87160812384 0)
(1.02071373005 0.195044855901 0)
(0.987775098162 0.046349252853 0)
(1.01928098168 0.0309767319575 0)
(1.0183528958 -0.0112776739838 0)
(1.03114793071 -0.0395566414442 0)
(1.04231473841 -0.0600462415434 0)
(1.06060205267 -0.072032984752 0)
(1.0849410506 -0.0780726867454 0)
(1.11510230722 -0.0835078854032 0)
(1.14664281622 -0.0947814455766 0)
(1.1744005687 -0.116019791401 0)
(1.19848508817 -0.144879941355 0)
(1.22992158782 -0.17598701144 0)
(1.2807959278 -0.216096732396 0)
(1.33593424709 -0.2954585336 0)
(1.34512171708 -0.435879072397 0)
(1.27513828097 -0.592351887365 0)
(1.08954923669 -1.56452580368 0)
(1.04452961965 -0.0985430720427 0)
(0.991689080734 -0.0657815939021 0)
(1.02062215606 -0.0758863182075 0)
(1.01786835135 -0.0726128426393 0)
(1.0291622726 -0.0740352687361 0)
(1.03918278275 -0.0731741898714 0)
(1.05607345324 -0.073299057602 0)
(1.07810202074 -0.0756678019435 0)
(1.10442263118 -0.0838546282847 0)
(1.13097445257 -0.100805781489 0)
(1.1543221025 -0.126753766983 0)
(1.17585353862 -0.157748558275 0)
(1.20324539841 -0.190973070601 0)
(1.24012822376 -0.23519387708 0)
(1.27004979921 -0.3106438072 0)
(1.26187524153 -0.421678934097 0)
(1.20287258994 -0.533332579306 0)
(0.946332006997 0.344125901908 0)
(1.02010611387 -0.0813889559195 0)
(0.996167566384 -0.054846782286 0)
(1.01617868276 -0.0755707695871 0)
(1.01656598906 -0.0759758027343 0)
(1.02693433491 -0.0809440114718 0)
(1.03712662431 -0.0816241120302 0)
(1.05269549352 -0.0832253660957 0)
(1.07214593766 -0.0871849452324 0)
(1.09422163495 -0.0970703429047 0)
(1.11574953503 -0.114889068262 0)
(1.13478838131 -0.140156909736 0)
(1.15305919607 -0.169958970369 0)
(1.17486920032 -0.203945045046 0)
(1.19891253966 -0.249717179241 0)
(1.21132400226 -0.317840491721 0)
(1.19445768669 -0.404369421298 0)
(1.14479332641 -0.485764100855 0)
(0.973433417304 -0.0324192320957 0)
(1.01974647458 -0.0678071543097 0)
(0.996321492414 -0.0576188413551 0)
(1.01424291733 -0.0718778621981 0)
(1.01529226328 -0.0735274947398 0)
(1.02493008501 -0.0788377875831 0)
(1.03474763272 -0.0815136876588 0)
(1.0487318474 -0.0857286341616 0)
(1.06543240961 -0.0927134166634 0)
(1.08347132736 -0.105124476307 0)
(1.10052712185 -0.12402619766 0)
(1.1156245346 -0.148701847826 0)
(1.13011438155 -0.177501675301 0)
(1.14565310406 -0.211457825551 0)
(1.15888284577 -0.255924673743 0)
(1.15975105001 -0.314984582559 0)
(1.13908066858 -0.382410116532 0)
(1.09698781897 -0.443406618006 0)
(0.976522157723 0.00982583761861 0)
(1.01497004389 -0.0754464541339 0)
(0.998751402692 -0.0613271205134 0)
(1.0125493687 -0.0747093297394 0)
(1.01461882558 -0.0757211375548 0)
(1.02296509565 -0.0810894479799 0)
(1.03202778982 -0.0848363360938 0)
(1.04403548792 -0.0907791582303 0)
(1.05784894236 -0.0997596654798 0)
(1.07208689636 -0.113622265712 0)
(1.08516626271 -0.132767453469 0)
(1.09658603501 -0.156522077406 0)
(1.10704928979 -0.184162507212 0)
(1.11650621528 -0.216997019277 0)
(1.12132246586 -0.258046276828 0)
(1.11494064242 -0.307783761994 0)
(1.09307549974 -0.360416842099 0)
(1.05702198643 -0.406952368255 0)
(0.978364799902 0.000605263393615 0)
(1.0110984265 -0.0753702611099 0)
(0.999423068459 -0.0638350537697 0)
(1.01000466934 -0.0750442493743 0)
(1.01261625962 -0.0766315304621 0)
(1.01962248512 -0.0821619183443 0)
(1.02766549497 -0.0870570437269 0)
(1.03765927939 -0.0943676175149 0)
(1.04880473928 -0.10474108504 0)
(1.05981096327 -0.11938207106 0)
(1.06959808626 -0.138369313072 0)
(1.07780224276 -0.161214668165 0)
(1.08457836546 -0.187674745377 0)
(1.08911930631 -0.218796811756 0)
(1.0883423837 -0.255850640099 0)
(1.07814223281 -0.297721333795 0)
(1.05660453196 -0.339802812901 0)
(1.02518314895 -0.37652228025 0)
(0.98421901759 0.00330194156953 0)
(1.0078414377 -0.0737933793116 0)
(1.00056989632 -0.0641043525537 0)
(1.0079358216 -0.0738874757734 0)
(1.01086291292 -0.0762780248424 0)
(1.01644328854 -0.0822247625673 0)
(1.02328444471 -0.0882404738555 0)
(1.03122587894 -0.0966966193887 0)
(1.03980587501 -0.10803064849 0)
(1.04784800833 -0.123006180153 0)
(1.0546111648 -0.141579675482 0)
(1.05975499788 -0.163411863151 0)
(1.06303727735 -0.188438595773 0)
(1.06338922427 -0.217208193302 0)
(1.05850396057 -0.249906898901 0)
(1.04597655384 -0.284963977138 0)
(1.02521055893 -0.319002273242 0)
(0.99752813266 -0.348483798412 0)
(0.989878341327 -0.00897740612717 0)
(1.00430270779 -0.074866353007 0)
(1.00139134739 -0.0677537637994 0)
(1.00541043944 -0.0761324188949 0)
(1.00837075958 -0.0794071244347 0)
(1.01227553162 -0.0856585858742 0)
(1.0175906433 -0.0925787381606 0)
(1.02321893493 -0.101743707212 0)
(1.02906089751 -0.113487970482 0)
(1.03403485713 -0.128186090225 0)
(1.03766647633 -0.145773640209 0)
(1.03957455531 -0.165999543825 0)
(1.03932128357 -0.188797647307 0)
(1.0359258122 -0.21422421042 0)
(1.02786568232 -0.241834696039 0)
(1.01395042968 -0.270146797397 0)
(0.994275867312 -0.296881411586 0)
(0.969995676488 -0.319942379821 0)
(0.996220380464 0.00189570112376 0)
(1.00040236373 -0.0721751489416 0)
(1.00188684723 -0.0679539426065 0)
(1.00232257467 -0.0752915310883 0)
(1.00492575879 -0.0796084219333 0)
(1.00686725179 -0.0863190173856 0)
(1.01030287448 -0.0940528597762 0)
(1.01342078237 -0.103755276318 0)
(1.01640972156 -0.115612477753 0)
(1.01832016031 -0.129776901719 0)
(1.0188136602 -0.146129424087 0)
(1.01753499321 -0.164470974901 0)
(1.01403042022 -0.18461242292 0)
(1.00759882856 -0.206305048546 0)
(0.997377277147 -0.228885910521 0)
(0.982897781485 -0.251161577516 0)
(0.964563405441 -0.27172429554 0)
(0.943301889237 -0.289340949439 0)
(1.00585878965 -0.0102157238901 0)
(0.997369600309 -0.0716400707584 0)
(1.00241122638 -0.0707274837387 0)
(0.999341567882 -0.0767159574682 0)
(1.0010518841 -0.0817435845577 0)
(1.00083166458 -0.0885414968999 0)
(1.00210470038 -0.0965291021252 0)
(1.00259026698 -0.106158039517 0)
(1.00272439572 -0.117494584729 0)
(1.00164332853 -0.130553945053 0)
(0.999150631493 -0.145182210012 0)
(0.994931414753 -0.161149016318 0)
(0.988680604556 -0.178190176465 0)
(0.979989080109 -0.195927819604 0)
(0.968476226652 -0.213747600737 0)
(0.954032304804 -0.230807490708 0)
(0.937146971054 -0.24627011268 0)
(0.918549942296 -0.2594589803 0)
(1.01233984942 0.0154565968638 0)
(0.995626508039 -0.0583087193637 0)
(1.00142825852 -0.0602997628462 0)
(0.995546733203 -0.0655969917228 0)
(0.995672873937 -0.0713774501123 0)
(0.993217534107 -0.0783065010867 0)
(0.992127549517 -0.0864315707334 0)
(0.990002869681 -0.0957524247258 0)
(0.987387251827 -0.106347382411 0)
(0.983544173675 -0.118096353911 0)
(0.978372382627 -0.130853405771 0)
(0.971678262285 -0.144366585711 0)
(0.963311119647 -0.158341216857 0)
(0.95311372122 -0.172424178552 0)
(0.940955631289 -0.186131522591 0)
(0.92689809822 -0.198957196194 0)
(0.911372899848 -0.210394209556 0)
(0.894932712445 -0.220111050314 0)
(1.01018019292 -0.115970148866 0)
(0.991399398452 -0.105249174232 0)
(0.999840376231 -0.105755211289 0)
(0.99132820337 -0.108439126601 0)
(0.989557816987 -0.11266880223 0)
(0.984961077035 -0.117646052829 0)
(0.98160592643 -0.123686107577 0)
(0.977158773631 -0.130588388811 0)
(0.972182400971 -0.138401740219 0)
(0.966090444795 -0.146977105303 0)
(0.958880053344 -0.156162683507 0)
(0.950468176037 -0.165687840224 0)
(0.940829092714 -0.175321017353 0)
(0.929963996976 -0.184813749919 0)
(0.917857517385 -0.193836994475 0)
(0.904622583516 -0.202092768423 0)
(0.890638685817 -0.209298349676 0)
(0.876325801022 -0.215272550871 0)
(1.05387040135 0.444320833669 0)
(1.00291295802 0.116845432943 0)
(0.996414659615 0.102485736952 0)
(0.984295398644 0.0902866801329 0)
(0.979767757636 0.0787780198999 0)
(0.973133009531 0.0671971374705 0)
(0.967513950866 0.0553583029387 0)
(0.96085954625 0.0432519685305 0)
(0.953649125399 0.030876580325 0)
(0.945455899318 0.0182592254458 0)
(0.936319964975 0.00555207016411 0)
(0.926320463807 -0.00719948840166 0)
(0.915513289693 -0.0197128665151 0)
(0.903967982321 -0.0318268223103 0)
(0.891693012222 -0.0433315298431 0)
(0.878794655156 -0.0540947363164 0)
(0.865585272839 -0.0639684068293 0)
(0.852658490639 -0.0728956556222 0)
(0.885434839979 -1.21031644007 0)
(0.957486341898 -0.39259108856 0)
(0.991669484534 -0.378450233948 0)
(0.984612531648 -0.367927874756 0)
(0.981719179361 -0.359411467882 0)
(0.97471998011 -0.350615601572 0)
(0.968638887672 -0.342578333015 0)
(0.961406720395 -0.335107743176 0)
(0.95362854873 -0.328387157216 0)
(0.944990143022 -0.322268752722 0)
(0.935623840944 -0.316735269618 0)
(0.925519456534 -0.311551265882 0)
(0.914802459028 -0.306758780772 0)
(0.903522816273 -0.302168463521 0)
(0.891709757743 -0.297713238033 0)
(0.879390710559 -0.293237729273 0)
(0.866789881345 -0.288743034639 0)
(0.853460547506 -0.284130890645 0)
(1.3505395946 2.98880645053 0)
(1.04237920355 0.649014437214 0)
(0.994341481115 0.598311303899 0)
(0.977797454023 0.56597478658 0)
(0.971870182857 0.535019909371 0)
(0.964760882386 0.503126041175 0)
(0.957752013495 0.471977071142 0)
(0.949676502251 0.440944980203 0)
(0.941013052882 0.410425546338 0)
(0.931604651895 0.380554612242 0)
(0.921613614761 0.35150812487 0)
(0.911286773689 0.323645546733 0)
(0.900752837931 0.297192716504 0)
(0.890135640509 0.272189384206 0)
(0.879452122437 0.248718033316 0)
(0.868749064068 0.226973404865 0)
(0.85833482115 0.207095020094 0)
(0.850147220404 0.189254028247 0)
(0.23943503228 -6.24121395535 0)
(0.921093766456 -1.0480897374 0)
(0.988226380966 -0.948349345957 0)
(0.994395997187 -0.920209509977 0)
(0.989303476304 -0.879076535355 0)
(0.979486206596 -0.839394595131 0)
(0.970874522481 -0.800700488033 0)
(0.960547332576 -0.763214512836 0)
(0.949903147999 -0.727177902722 0)
(0.938399754919 -0.692840347806 0)
(0.926236989026 -0.660425376074 0)
(0.913408512723 -0.63029236628 0)
(0.900066803888 -0.60245602652 0)
(0.886174138825 -0.576658645396 0)
(0.871744159135 -0.552844695349 0)
(0.856860683837 -0.531101014372 0)
(0.841710916216 -0.511455472103 0)
(0.824148020715 -0.494075486857 0)
(2.54984910573 11.3327612534 0)
(1.0282777022 1.23187990281 0)
(1.03330808208 1.00614782258 0)
(0.980196899202 0.999036866944 0)
(0.986604008819 0.9410983722 0)
(0.980842899208 0.895147324879 0)
(0.976363181443 0.848219268309 0)
(0.970992100248 0.802646175632 0)
(0.965444976389 0.758410100102 0)
(0.959788716595 0.715877487395 0)
(0.954126766448 0.675613479842 0)
(0.948368263827 0.637957193261 0)
(0.942594269427 0.602948998664 0)
(0.936892929847 0.570497659258 0)
(0.931194070034 0.540745765526 0)
(0.925287609854 0.513663514037 0)
(0.919130526954 0.489249755081 0)
(0.915678057761 0.467590466302 0)
(-1.66192263172 -19.0879322715 0)
(1.06963889239 -1.6077802393 0)
(0.920433410617 -1.18123669766 0)
(1.01918793185 -1.2415997983 0)
(0.982934605717 -1.16490703158 0)
(0.9749831956 -1.12794248118 0)
(0.959975315576 -1.08518876717 0)
(0.944469129915 -1.04820127535 0)
(0.92817775925 -1.0139310338 0)
(0.911019407558 -0.982514380342 0)
(0.893419262098 -0.953362068447 0)
(0.875630054983 -0.925701863128 0)
(0.857798844945 -0.899130515887 0)
(0.84001738831 -0.873533811313 0)
(0.822446688044 -0.848844368558 0)
(0.805524122089 -0.824715840333 0)
(0.789956396659 -0.800885469185 0)
(0.773248246766 -0.777175638918 0)
(5.15268005155 29.8429479815 0)
(0.722055692831 2.18417239277 0)
(1.19200239069 1.42764608767 0)
(0.974544154781 1.5870896637 0)
(1.04066978062 1.47906915685 0)
(1.02143618695 1.45247370606 0)
(1.02356401538 1.4061898217 0)
(1.01922155995 1.36872781407 0)
(1.01635945841 1.33185611139 0)
(1.01314807945 1.29727407963 0)
(1.00997961838 1.26408480502 0)
(1.00660306556 1.231713012 0)
(1.00291230479 1.19955922144 0)
(0.998605236061 1.16697516127 0)
(0.993454620435 1.13325795496 0)
(0.987121575196 1.09792967321 0)
(0.979330895875 1.06103223352 0)
(0.973796926196 1.02330148536 0)
(-4.37818924332 -41.3756432598 0)
(1.64977166641 -2.9031768435 0)
(0.709688871873 -2.04688887587 0)
(1.06884469917 -2.23360771305 0)
(0.943273230059 -2.09198261072 0)
(0.960084143478 -2.06314366964 0)
(0.935094629113 -2.00501473905 0)
(0.921158421912 -1.96037912036 0)
(0.903898190294 -1.9150943477 0)
(0.887426265846 -1.87259670392 0)
(0.870814257621 -1.83122010804 0)
(0.854122125066 -1.7909237411 0)
(0.837157508664 -1.75146457442 0)
(0.81981689089 -1.71243581914 0)
(0.802199475763 -1.67328586131 0)
(0.784995761055 -1.63314375172 0)
(0.769605528401 -1.59095516465 0)
(0.752534879009 -1.54640104897 0)
(6.24540894344 51.2468888102 0)
(0.175594114368 3.36092928109 0)
(1.41093079495 3.00934481044 0)
(0.982140490384 3.01387475827 0)
(1.12314835443 2.89482900485 0)
(1.07371253784 2.82601022408 0)
(1.08274654531 2.74376960987 0)
(1.07270030284 2.67108565089 0)
(1.06814238717 2.59921543911 0)
(1.0617725876 2.53086295893 0)
(1.05587295546 2.46500986588 0)
(1.04957452916 2.40202688091 0)
(1.04309693267 2.34188561308 0)
(1.0365612769 2.28497778998 0)
(1.03035758483 2.2316306274 0)
(1.02493758152 2.18186008933 0)
(1.02006329741 2.13484465317 0)
(1.01902612928 2.08864603126 0)
(-3.41498111556 -60.1056480801 0)
(1.6921712894 -4.47047504483 0)
(0.715312276341 -4.64082084824 0)
(1.03937139933 -4.34265773392 0)
(0.918654635143 -4.23379146874 0)
(0.939033720665 -4.0812858469 0)
(0.915343892871 -3.95112809504 0)
(0.905221264621 -3.82234788569 0)
(0.890667166327 -3.70030062677 0)
(0.877605180749 -3.58354831884 0)
(0.864365423742 -3.47249191793 0)
(0.851413610102 -3.36729618284 0)
(0.838634098548 -3.26784889056 0)
(0.826121664437 -3.17417526179 0)
(0.813824342614 -3.08667622573 0)
(0.801673046548 -3.00669173947 0)
(0.789447682171 -2.93650534637 0)
(0.770979815459 -2.87933594384 0)
(4.19202153123 66.8903235438 0)
(0.768784880621 6.97644556533 0)
(1.38922590932 7.28799119828 0)
(1.16960811419 6.80722281382 0)
(1.23202661667 6.59437566131 0)
(1.20527475483 6.31735711509 0)
(1.20634918307 6.07720292114 0)
(1.19803970483 5.8399168248 0)
(1.19193920235 5.61559705559 0)
(1.18449989467 5.39997618135 0)
(1.1768351356 5.19345395966 0)
(1.16837929449 4.99523635712 0)
(1.15932580071 4.80529540411 0)
(1.14952053145 4.62364792232 0)
(1.13844237466 4.45047253829 0)
(1.12514417332 4.28564130495 0)
(1.10784016493 4.12974766197 0)
(1.09223550426 3.9872191378 0)
(-0.0554171631009 -67.0611655353 0)
(0.949781163286 -9.91848938436 0)
(0.611490240503 -9.82158936198 0)
(0.705295389309 -9.26572400814 0)
(0.668963985065 -8.92921872885 0)
(0.675332907559 -8.55210940218 0)
(0.668542715524 -8.2078014078 0)
(0.664819216972 -7.8698121377 0)
(0.659520794086 -7.54632498078 0)
(0.653909322071 -7.23461586508 0)
(0.647828398134 -6.9355108798 0)
(0.641496217257 -6.64814701637 0)
(0.635251477967 -6.37163977264 0)
(0.629297756462 -6.10398560456 0)
(0.623423503796 -5.84280309476 0)
(0.617763145845 -5.58632655809 0)
(0.615434111046 -5.33044504667 0)
(0.617898831351 -5.05676456022 0)
(-0.00787207613211 -0.00304907617254 -4.71845953761e-18)
(-0.0411813888874 -0.0236977925067 0)
(-0.127045129249 -0.0399790490311 0)
(-0.171368956701 -0.0237017662164 0)
(-0.19182034171 -0.0126793850605 0)
(-0.194317027837 0.00984946477758 3.00915873327e-18)
(-0.195965106735 0.026443570836 0)
(-0.190981780025 0.0449730314448 0)
(-0.185417675458 0.0621787194632 -9.94680382478e-19)
(-0.181989474544 0.0768932342498 0)
(-0.182603737745 0.0894406150772 6.63722304281e-19)
(-0.187512726167 0.101001573736 0)
(-0.196113640931 0.112979294393 4.90694534939e-19)
(-0.207200202738 0.126673639624 4.32561948353e-19)
(-0.219463234921 0.142892857551 0)
(-0.231811742774 0.162063484082 -3.48258700245e-19)
(-0.243408748148 0.184120895606 -3.16880733335e-19)
(-0.25379978689 0.208784495382 -2.90500394318e-19)
(-0.262743836888 0.235514041239 0)
(-0.270273109273 0.263761870143 0)
(-0.276487502199 0.292924079034 0)
(-0.281609008165 0.322488658374 0)
(-0.285836594586 0.351972247161 0)
(-0.289401156998 0.381011678424 0)
(-0.292457176327 0.409284927634 1.82580593562e-19)
(-0.295178208565 0.436567412442 1.73390712035e-19)
(-0.297658335247 0.462689359745 0)
(-0.299989975111 0.487543461861 -1.57630608979e-19)
(-0.302191290965 0.511053029199 -1.5084058873e-19)
(-0.304295187625 0.533170070752 -1.44660184313e-19)
(-0.306272590071 0.553872656716 0)
(-0.308116933969 0.573139002295 0)
(-0.309781004907 0.590970381383 1.29127194708e-19)
(-0.311228494833 0.607345095781 0)
(-0.312402126327 0.622263604332 0)
(-0.313253347187 0.635683996896 1.17102547723e-19)
(-0.313741224361 0.647593093198 0)
(-0.313813097502 0.657929321321 0)
(-0.313440770776 0.666654117453 0)
(-0.312577562918 0.673680437454 0)
(-0.311215806538 0.678943469665 0)
(-0.309315712438 0.68233448448 -2.0061944535e-19)
(-0.306890157383 0.683760008196 0)
(-0.303910603436 0.683096366422 0)
(-0.300409466033 0.680224517409 -1.89085705014e-19)
(-0.296376580514 0.675020062683 -1.85852734847e-19)
(-0.291847286683 0.667341842989 0)
(-0.286837745785 0.657070897192 0)
(-0.281386619077 0.644065481809 -1.77729541826e-19)
(-0.275521453102 0.628216325779 0)
(-0.269274997248 0.609376282214 1.73478016837e-19)
(-0.262686966668 0.587454475934 0)
(-0.255762281598 0.562303833304 -1.70036552188e-19)
(-0.248544067855 0.533820005861 0)
(-0.241045471784 0.5018662009 -1.67318213207e-19)
(-0.23329776062 0.466333984411 -1.66207439681e-19)
(-0.225297647173 0.427077374504 0)
(-0.217071917582 0.383967867689 0)
(-0.208616820206 0.336851963049 0)
(-0.199947187359 0.285575021485 -1.6324545796e-19)
(-0.191055487973 0.229962674695 0)
(-0.181954409478 0.16982652141 0)
(-0.172596194921 0.104955300557 0)
(-0.162959668445 0.035324769003 0)
(-0.15322058895 -0.0385509321421 0)
(-0.143352320924 -0.116096083585 0)
(-0.133327084684 -0.196781144112 0)
(-0.123112205518 -0.280090611814 1.62719241608e-19)
(-0.112730058141 -0.365508940178 0)
(-0.102196875273 -0.452476406767 1.63532689197e-19)
(-0.0915520459818 -0.540436340602 1.64058334624e-19)
(-0.0808148251565 -0.628784885619 0)
(-0.070013366563 -0.716950290966 -1.65320346226e-19)
(-0.0591608371294 -0.804311378296 0)
(-0.0482598375092 -0.890307216828 1.66833212004e-19)
(-0.0373135336615 -0.974333957613 0)
(-0.0263177676025 -1.0558422769 -1.68576872496e-19)
(-0.0152726894339 -1.13424211564 1.69537153412e-19)
(-0.00418472216658 -1.20899352925 0)
(0.00694871035725 -1.27950477682 0)
(0.0181303120144 -1.34524056419 0)
(0.0293709493827 -1.40562073494 0)
(0.0406808850667 -1.46013736217 1.75593802973e-19)
(0.052111301882 -1.50827131472 -1.77203399973e-19)
(0.0637363994486 -1.54965641221 3.58049111945e-19)
(0.0756286999935 -1.58397514648 3.62219515072e-19)
(0.0879131266284 -1.61114277821 3.67036656257e-19)
(0.100650224801 -1.63120491618 0)
(0.113981323276 -1.64441124949 0)
(0.127892288874 -1.65130022802 0)
(0.142553691592 -1.65248425713 3.96176079842e-19)
(0.158382696 -1.64910318967 0)
(0.175784269528 -1.64253125182 0)
(0.195144022244 -1.63437926585 4.35147994472e-19)
(0.216880833384 -1.6263288974 0)
(0.241439132741 -1.62030816509 -4.74376849928e-19)
(0.269234496686 -1.61837714569 0)
(0.300690715871 -1.622761896 5.29103851008e-19)
(0.336379176589 -1.63548460472 0)
(0.377397304003 -1.65855345814 0)
(0.425195365818 -1.69401670863 0)
(0.480221990496 -1.74291975136 7.1431535466e-19)
(0.541571733303 -1.80224255762 0)
(0.609723411399 -1.86378739677 8.72272178301e-19)
(0.681999697106 -1.91682266013 9.79021572815e-19)
(0.746191664891 -1.9470334857 0)
(0.802394274812 -1.92863732461 0)
(0.852896355856 -1.85893453433 0)
(0.855856127573 -1.78661832894 1.80040985163e-18)
(0.844853870674 -1.69855782704 0)
(0.965708979563 -1.55284697458 0)
(1.05997624691 -1.33090151654 3.68011555369e-18)
(0.938300370741 -1.0367330968 5.03426799343e-18)
(0.834411537926 -0.912694073399 0)
(0.442983749669 -0.146127881698 -7.91706500691e-18)
(0.316856247644 0.35043564048 -4.73642615944e-18)
(0.260288010524 0.632311285146 3.41918561973e-18)
(0.222615273239 0.856055222621 0)
(0.196390837315 1.04400535849 0)
(0.177499641399 1.20505723066 0)
(0.163621186576 1.34356488394 -1.92576689884e-18)
(0.153204999851 1.46211647541 0)
(0.144971070608 1.56216703341 -1.68210741568e-18)
(0.137999281484 1.6449206808 0)
(0.131664010481 1.71114813857 0)
(0.125668768278 1.76170070614 0)
(0.119803933082 1.79699816895 1.44312844918e-18)
(0.113938726563 1.81760341401 1.41094236257e-18)
(0.107903751803 1.82388839447 0)
(0.101576171101 1.81653032373 0)
(0.0948297771454 1.79585638716 0)
(0.0875077168386 1.76301017253 0)
(0.0793620459523 1.71922035944 0)
(0.070128093696 1.66641976814 0)
(0.0595310322606 1.60653523965 2.67363387416e-18)
(0.0472663846477 1.54198623964 0)
(0.0332317064795 1.47388071048 0)
(0.0167665082214 1.40566802965 0)
(-0.00175185631514 1.33801457663 -2.72189706618e-18)
(-0.021455034219 1.271530325 -2.74461162094e-18)
(-0.0412698371574 1.20705342617 2.77180148627e-18)
(-0.0607559692424 1.14518562387 2.80330901017e-18)
(-0.0799919090148 1.08617123602 0)
(-0.0994053978997 1.02966378793 0)
(-0.119296611582 0.97531520082 0)
(-0.140027798502 0.922474670722 2.97009594001e-18)
(-0.161912547801 0.87075041553 0)
(-0.18539163454 0.81932507671 0)
(-0.210809140017 0.767752724539 -3.13455977546e-18)
(-0.238639478503 0.715034426768 0)
(-0.269191554454 0.660777661969 -3.26037896089e-18)
(-0.303003573222 0.603915520521 0)
(-0.340396320555 0.544341868669 -3.39624490032e-18)
(-0.382093366251 0.481047486565 0)
(-0.428541345687 0.414326121125 0)
(-0.480747287263 0.343114983603 0)
(-0.53924643244 0.268102416032 0)
(-0.605186648377 0.18806268486 0)
(-0.678992960807 0.104190999007 0)
(-0.761816728235 0.0150635650343 0)
(-0.85360631054 -0.0771902989569 0)
(-0.955279112448 -0.173286593692 -3.95035522059e-18)
(-1.066591105 -0.269343853811 0)
(-1.18856801396 -0.36635398955 0)
(-1.32078256448 -0.459788402393 -3.95079054751e-18)
(-1.46187059663 -0.55162210345 0)
(-1.610437427 -0.634662873268 0)
(-1.76742643983 -0.718032601046 -3.68549164873e-18)
(-1.9296503672 -0.805932567485 0)
(-2.09112200501 -0.907839586569 0)
(-2.25028238368 -0.991236755277 -2.97123994467e-18)
(-2.40839227125 -1.0502526871 2.59118488447e-18)
(-2.62599309997 -1.04067406022 -2.12231319337e-18)
(-2.84173592198 -0.975071324498 0)
(-3.03748838902 -0.613840049839 0)
(-3.26376454606 0.187067524558 -9.07458357893e-20)
(-3.63520531878 1.42166556156 0)
(-3.9891403033 2.06989354221 -4.22402163102e-18)
(-4.20323261261 2.29815301166 -7.06786594532e-18)
(-2.9150734008 1.21072785077 0)
(-0.146265175043 0.173606369873 1.46244128891e-17)
(-0.0531911612306 0.240326238167 0)
(-0.127278605884 0.167570731746 -4.7400197788e-18)
(-0.156951512868 0.0596886221257 3.02591856391e-18)
(-0.142050693923 -0.0205753132599 2.20394645221e-18)
(-0.102455151409 -0.0686745928745 -8.81752919653e-19)
(-0.057436709197 -0.0939136097094 -1.48555718306e-18)
(-0.0176848734267 -0.106285735107 0)
(0.0134964075504 -0.112265265943 5.52531679528e-19)
(0.0351697606233 -0.115878104677 -9.67753818778e-19)
(0.0475861821828 -0.119544823411 -1.29024678269e-18)
(0.0521135258775 -0.124396707293 7.70765421309e-19)
(0.0505457287403 -0.13086583814 -1.04731279563e-18)
(0.0447389423847 -0.138844738459 -3.19125962957e-19)
(0.0363134939364 -0.148163699078 0)
(0.0265139505438 -0.15854593551 2.70818502536e-19)
(0.0162669880415 -0.169864426537 2.51579517036e-19)
(0.00617238258 -0.1819770407 2.34823292806e-19)
(-0.00335355573101 -0.19486630742 -4.37945990401e-19)
(-0.0120778222254 -0.20847547588 0)
(-0.0198462749718 -0.222810090247 -3.88836075092e-19)
(-0.0266000144191 -0.23781598983 0)
(-0.0322892084331 -0.253463853852 3.49634007031e-19)
(-0.0369180932135 -0.269669991494 0)
(-0.0404862982296 -0.286357565287 -4.77728917421e-19)
(-0.0430262020172 -0.303415513072 1.50885042811e-19)
(-0.0445617041998 -0.320727368132 2.91410887621e-19)
(-0.045145594628 -0.338163718414 4.20976863079e-19)
(-0.0448085542381 -0.355584140988 1.35785317609e-19)
(-0.0436067789983 -0.372856840497 1.30948319276e-19)
(-0.0415786725654 -0.389829788152 0)
(-0.038783366667 -0.406379921928 2.42605340639e-19)
(-0.0352581110261 -0.422354357305 -1.18616799528e-19)
(-0.0310459838543 -0.437642535814 0)
(-0.0261801895433 -0.452102995762 0)
(-0.0206891214218 -0.465643049628 -1.08917433103e-19)
(-0.0145967973663 -0.478138130003 0)
(-0.00791204013122 -0.489509596773 0)
(-0.000648433958801 -0.49965211462 0)
(0.00720375195672 -0.50849712145 0)
(0.0156392685035 -0.515956646962 0)
(0.0246787026078 -0.521965061816 -1.85762592547e-19)
(0.0343193175767 -0.526449446586 -3.69522286611e-19)
(0.0445826938715 -0.529338958717 0)
(0.0554619731416 -0.53057240546 -1.76381091836e-19)
(0.0669668606609 -0.530065521906 1.78705133436e-19)
(0.0790835132628 -0.527763010217 0)
(0.0918063171537 -0.523565835847 0)
(0.105111992773 -0.517414958122 5.12199910241e-19)
(0.118966938531 -0.509194638895 3.36415353441e-19)
(0.133348274658 -0.498835601637 -1.69231625241e-19)
(0.148218893697 -0.486207881403 -3.30785145901e-19)
(0.163548987715 -0.471224535737 -1.61709321209e-19)
(0.179290511704 -0.45375086313 0)
(0.195409152109 -0.433676927006 4.89923762436e-19)
(0.211852800278 -0.410855480499 1.64349834297e-19)
(0.228588062128 -0.38515391676 0)
(0.245566245992 -0.356413614892 -3.21781920276e-19)
(0.262751552391 -0.324469344831 3.21295361041e-19)
(0.280092215949 -0.289141070617 1.63104000789e-19)
(0.297541038103 -0.250221365384 0)
(0.315045967137 -0.207382410028 0)
(0.332543315729 -0.160317077805 0)
(0.350043741339 -0.109268370874 -3.21178638591e-19)
(0.367597136619 -0.0546936098685 0)
(0.385040708755 0.00293804987572 3.21890422401e-19)
(0.402217121089 0.0631148142448 0)
(0.41902826512 0.12529491111 1.59217888775e-19)
(0.4353809428 0.188907616502 0)
(0.451193198118 0.253425941737 1.60390140207e-19)
(0.466376432251 0.31831259427 1.61100830881e-19)
(0.480849681632 0.383104766491 0)
(0.494538369597 0.447316682806 1.67702003512e-19)
(0.50737477926 0.510542124116 0)
(0.519303189284 0.57232777855 -1.6962703532e-19)