/*--------------------------------*- C++ -*----------------------------------*\
| =========                 |                                                 |
| \\      /  F ield         | OpenFOAM: The Open Source CFD Toolbox           |
|  \\    /   O peration     | Version:  v1806                                 |
|   \\  /    A nd           | Web:      www.OpenFOAM.com                      |
|    \\/     M anipulation  |                                                 |
\*---------------------------------------------------------------------------*/
FoamFile
{
    version     2.0;
    format      ascii;
    class       volVectorField;
    location    "26";
    object      Ua;
}
// * * * * * * * * * * * * * * * * * * * * * * * * * * * * * * * * * * * * * //

dimensions      [0 1 -1 0 0 0 0];


internalField   nonuniform List<vector> 
12225
(
(0.305841200079 63.8671101837 0)
(1.0020746098 13.8799894448 0)
(0.855146944441 13.938676022 0)
(0.933592018556 13.5967605288 0)
(0.95199414349 13.3853534069 0)
(0.999147948547 13.130513821 0)
(1.03972652962 12.8467687239 0)
(1.0828644506 12.5320039742 0)
(1.12273906341 12.2013811184 0)
(1.16568622871 11.875225823 0)
(1.2200102757 11.5557243691 0)
(1.29157671406 11.2160968487 0)
(1.36718100109 10.8039790918 0)
(1.42427053879 10.2952806835 0)
(1.50910157619 9.74669036644 0)
(1.84922571366 9.13452980413 0)
(2.67985986588 7.81119881502 0)
(3.29873214242 4.21868861186 0)
(3.46798273495 -56.5667771335 0)
(1.0641647263 -9.10537969026 0)
(1.50058291904 -9.05483286361 0)
(1.41684135667 -8.73647926029 0)
(1.49576242147 -8.49081350774 0)
(1.5311691253 -8.23605493982 0)
(1.58013772769 -7.98913052134 0)
(1.62491058361 -7.75053036298 0)
(1.67292053699 -7.5126815814 0)
(1.72882257211 -7.26304690214 0)
(1.7996805481 -6.98178213209 0)
(1.88445566172 -6.65288545206 0)
(1.96661234091 -6.27052115915 0)
(2.03116130124 -5.83730186723 0)
(2.1264100874 -5.33855296249 0)
(2.40228432538 -4.71841233812 0)
(2.89163613148 -3.96212707401 0)
(2.96862878925 -3.27347816996 0)
(-1.30808679082 43.8568617549 0)
(1.29966691943 4.67570643378 0)
(0.98951460383 4.35570440174 0)
(1.11161305471 4.21639992913 0)
(1.09097280308 4.04511628296 0)
(1.11416261807 3.87477735096 0)
(1.1204519043 3.68750257807 0)
(1.12856625659 3.48091474664 0)
(1.13621658768 3.25108071179 0)
(1.15272881919 2.9970801117 0)
(1.18435017723 2.71764657898 0)
(1.22982168122 2.40794198804 0)
(1.27436573871 2.06048527022 0)
(1.31024854837 1.67702476002 0)
(1.3872422194 1.2771710546 0)
(1.61687956441 0.853422563996 0)
(1.97540022496 0.252762225729 0)
(2.04165399453 -0.726405237383 0)
(3.2153864132 -31.5961937 0)
(0.897779243578 -2.40922100044 0)
(1.26965912601 -2.21002677932 0)
(1.18206677256 -2.0940058386 0)
(1.24180664017 -1.95463103381 0)
(1.25386068261 -1.80868312379 0)
(1.27514557506 -1.65501592142 0)
(1.28828407467 -1.49232100516 0)
(1.30141034356 -1.31990937532 0)
(1.31919094773 -1.13875448663 0)
(1.34673333805 -0.953957485504 0)
(1.38019414661 -0.776383836772 0)
(1.40619019343 -0.616438409819 0)
(1.42180636161 -0.469231084832 0)
(1.46799669111 -0.31666348996 0)
(1.60486034902 -0.194487826416 0)
(1.76577259502 -0.282884422863 0)
(1.70150521815 -0.730776838738 0)
(-0.682300363271 21.1656382875 0)
(1.27353813771 1.23907866913 0)
(0.974553385857 1.01823983046 0)
(1.10570561466 0.935352152286 0)
(1.09110085114 0.809281001433 0)
(1.12366540404 0.691172323723 0)
(1.13848376156 0.567265965657 0)
(1.15705232621 0.446908809122 0)
(1.17547508984 0.332841255589 0)
(1.20127099251 0.22787145303 0)
(1.23666363847 0.129132525542 0)
(1.27771177693 0.0294442959209 0)
(1.31518176235 -0.0744119565378 0)
(1.35281256518 -0.16844389826 0)
(1.42198824626 -0.230315881253 0)
(1.54085828108 -0.28647646709 0)
(1.62472266082 -0.445779353829 0)
(1.53012915354 -0.740123474751 0)
(2.56986692682 -14.0283701865 0)
(0.842912457515 -0.691736612217 0)
(1.18396663539 -0.313666280933 0)
(1.09705159386 -0.357411981242 0)
(1.14752720367 -0.27678272156 0)
(1.15350378344 -0.245391481324 0)
(1.16961655627 -0.207585060981 0)
(1.18078463446 -0.178574724311 0)
(1.19421255628 -0.150444456357 0)
(1.21240028074 -0.125252383789 0)
(1.23670095934 -0.107793114022 0)
(1.26280930024 -0.107256703911 0)
(1.28608082443 -0.128166946473 0)
(1.31523320088 -0.163114243983 0)
(1.37341224187 -0.205622823397 0)
(1.45729674856 -0.284928866322 0)
(1.49397265125 -0.452789861685 0)
(1.40709397503 -0.67079308587 0)
(0.0350312690795 8.64319967297 0)
(1.13581255206 0.41036860634 0)
(1.0353388549 0.0314247013553 0)
(1.09954628797 0.106122549241 0)
(1.10313009575 0.0441361226393 0)
(1.12422877928 0.0197586631309 0)
(1.13811176459 -0.0162529932281 0)
(1.15379320331 -0.0468164271371 0)
(1.17093872649 -0.0734697233873 0)
(1.19255438622 -0.0947389967512 0)
(1.21745599764 -0.114411760276 0)
(1.24126371104 -0.137736105151 0)
(1.2615972498 -0.166229784543 0)
(1.28712552503 -0.196363827705 0)
(1.33114460635 -0.233900833009 0)
(1.38107360024 -0.30936223303 0)
(1.3862699814 -0.447067275149 0)
(1.31178777638 -0.601445149369 0)
(1.61684499983 -4.61428925318 0)
(1.02130997065 -0.197912322001 0)
(1.08535298527 -0.00298778261089 0)
(1.08286402726 -0.0496467597317 0)
(1.10241101754 -0.0331893363244 0)
(1.11412622225 -0.0412863557121 0)
(1.12632319323 -0.0482107193731 0)
(1.13894015426 -0.0599859751221 0)
(1.15415246862 -0.0733984777211 0)
(1.17330889757 -0.0896145901992 0)
(1.19477302276 -0.11085170985 0)
(1.21492933168 -0.139027542294 0)
(1.23301786415 -0.172064754312 0)
(1.25533446757 -0.206657179738 0)
(1.28655327894 -0.249922966425 0)
(1.31166780988 -0.322543633637 0)
(1.29928301611 -0.430788789549 0)
(1.23625292562 -0.539631402118 0)
(0.898338153598 1.65578038691 0)
(1.02549108371 0.0210981808826 0)
(1.067420198 -0.0321098530643 0)
(1.07627721355 -0.0254131792913 0)
(1.09100641928 -0.0383132595724 0)
(1.1028604877 -0.0483532507749 0)
(1.11399083736 -0.0601490283118 0)
(1.1257736444 -0.0721565088243 0)
(1.13953336717 -0.084830271439 0)
(1.15597719087 -0.100026348899 0)
(1.17340357068 -0.120420423538 0)
(1.18941507816 -0.147288849842 0)
(1.20426512262 -0.178873717591 0)
(1.22166623592 -0.214085362763 0)
(1.24105865699 -0.259401495955 0)
(1.24923491073 -0.325758267836 0)
(1.22851073359 -0.410099171441 0)
(1.17530503502 -0.488846609371 0)
(1.12181701385 -0.603061591494 0)
(1.03637817878 -0.0188023971036 0)
(1.05867507875 -0.0245777842262 0)
(1.06832596587 -0.0292814567922 0)
(1.08053819621 -0.0386353524456 0)
(1.09133335444 -0.0499017957416 0)
(1.10142149553 -0.0622620259555 0)
(1.11229162899 -0.0753344346547 0)
(1.12457100173 -0.0893472354755 0)
(1.13839630021 -0.105990049361 0)
(1.15220430582 -0.127118664063 0)
(1.16452178603 -0.153285957482 0)
(1.17580437894 -0.183446469525 0)
(1.18755438802 -0.218074982707 0)
(1.19688715044 -0.262060682074 0)
(1.19407161036 -0.3197967344 0)
(1.16997157827 -0.385443523106 0)
(1.12486622711 -0.444158202331 0)
(1.07121151172 -0.0364958408653 0)
(1.02836479409 -0.0295006042211 0)
(1.05407386711 -0.0312622968496 0)
(1.0602369241 -0.0370021765004 0)
(1.07111449182 -0.04540673362 0)
(1.08038903346 -0.0562073601904 0)
(1.08938793394 -0.0680136884302 0)
(1.09900231852 -0.0809852920294 0)
(1.10950043694 -0.0954087322674 0)
(1.12063882499 -0.112654593919 0)
(1.13114298744 -0.133795440258 0)
(1.14010057401 -0.15891035876 0)
(1.1477259003 -0.187499817979 0)
(1.1539754344 -0.220593126088 0)
(1.15548617244 -0.261043897076 0)
(1.14586043711 -0.309619811876 0)
(1.12105509074 -0.360658499334 0)
(1.08243538517 -0.405189984766 0)
(1.06620686714 -0.157039151348 0)
(1.02757604682 -0.0280365923343 0)
(1.04632749245 -0.0359470854346 0)
(1.05220740042 -0.0405650136119 0)
(1.0611342049 -0.0492336364046 0)
(1.06924482921 -0.0596660251176 0)
(1.07708195561 -0.0712865693787 0)
(1.08538043446 -0.0842694280304 0)
(1.09408208606 -0.0989790310434 0)
(1.10281430128 -0.116454744266 0)
(1.11058991105 -0.137231408905 0)
(1.11676521252 -0.161265886555 0)
(1.12116578481 -0.188422599756 0)
(1.12305685461 -0.219561259247 0)
(1.11950204011 -0.256042223586 0)
(1.10655396395 -0.296842503684 0)
(1.08254183313 -0.337528267432 0)
(1.04899470919 -0.372457853547 0)
(1.0579698197 -0.15082040794 0)
(1.02512202604 -0.0302306547536 0)
(1.04027921284 -0.0366029190686 0)
(1.04504952318 -0.042202850293 0)
(1.05238794125 -0.0505470976891 0)
(1.05921743644 -0.0608696595204 0)
(1.06583637923 -0.0723870745206 0)
(1.07268384748 -0.0854665934417 0)
(1.07952309956 -0.100376657371 0)
(1.08595188024 -0.117807990025 0)
(1.09120540987 -0.138038936909 0)
(1.09471047865 -0.160959131595 0)
(1.09608946823 -0.186595271298 0)
(1.09427153493 -0.215370709889 0)
(1.08708184399 -0.247594827162 0)
(1.07222759423 -0.281753582021 0)
(1.04949513882 -0.314505111599 0)
(1.02002151642 -0.342461851681 0)
(1.04560875916 -0.180908672943 0)
(1.0224615124 -0.0366257986367 0)
(1.03316852971 -0.0440696183455 0)
(1.03712741083 -0.0496006957108 0)
(1.04265167518 -0.0576367740225 0)
(1.04797951899 -0.0674769521829 0)
(1.05308464861 -0.0786217888862 0)
(1.05814953818 -0.0914125155671 0)
(1.06287377407 -0.105986165274 0)
(1.06681712571 -0.122781526702 0)
(1.069428775 -0.141787537296 0)
(1.07019137779 -0.163017069315 0)
(1.06853705 -0.186276587576 0)
(1.06352878973 -0.211779965996 0)
(1.05368448069 -0.238936925751 0)
(1.03806764405 -0.266522747094 0)
(1.01690332849 -0.292070275217 0)
(0.991342124607 -0.313913967022 0)
(1.03215836839 -0.150483319757 0)
(1.01909850412 -0.0275037271869 0)
(1.0246297742 -0.0345035874074 0)
(1.02790459614 -0.0413536916824 0)
(1.03143809485 -0.0496354090513 0)
(1.03499217614 -0.0596624669266 0)
(1.03823101511 -0.0709255195493 0)
(1.04119463118 -0.0837601075426 0)
(1.04351281831 -0.0982011887765 0)
(1.04487646504 -0.114389348678 0)
(1.04477420223 -0.132291822631 0)
(1.04278466492 -0.151728677825 0)
(1.03836125413 -0.17260834408 0)
(1.03083358991 -0.194544371639 0)
(1.01940286163 -0.21705862188 0)
(1.00378108074 -0.238774040661 0)
(0.984582576385 -0.258638084047 0)
(0.962321095154 -0.275143097196 0)
(1.01246128394 -0.318133049011 0)
(1.01190170861 -0.0751841558472 0)
(1.01681235294 -0.0793775606266 0)
(1.01845119173 -0.0839722237042 0)
(1.02023572462 -0.0897415589582 0)
(1.02174325933 -0.0971964837999 0)
(1.02294248628 -0.105960911987 0)
(1.02358069606 -0.116259900188 0)
(1.02350073039 -0.128011772034 0)
(1.02227606885 -0.141169090046 0)
(1.01965608406 -0.155674868231 0)
(1.0151781151 -0.171237043073 0)
(1.00855615182 -0.187708834031 0)
(0.999310271519 -0.204591745771 0)
(0.987233392105 -0.221390403533 0)
(0.972235160073 -0.237209922365 0)
(0.95510005396 -0.251356631053 0)
(0.935868944852 -0.263228336076 0)
(1.03980302076 0.198263395953 0)
(1.01400614861 0.0563971860356 0)
(1.00604433885 0.039159032389 0)
(1.00692009449 0.0278903313446 0)
(1.00647020092 0.0157894434694 0)
(1.00572867291 0.00232823865765 0)
(1.00452068949 -0.0120163241127 0)
(1.00266632456 -0.0273132794117 0)
(1.00004406271 -0.0433261568985 0)
(0.996354716089 -0.0600297693117 0)
(0.991369422495 -0.0771164841971 0)
(0.984838169949 -0.0945266165332 0)
(0.97655096114 -0.11179799537 0)
(0.966406594889 -0.128768959088 0)
(0.954306969476 -0.144741539507 0)
(0.940492110753 -0.159498336509 0)
(0.925400776597 -0.172262155331 0)
(0.909470242117 -0.183177969101 0)
(0.842724751662 -1.32691372173 0)
(0.978078127491 -0.267000284838 0)
(0.990482582096 -0.230941944653 0)
(0.995220898748 -0.221801781613 0)
(0.992099541065 -0.214540966405 0)
(0.988395641928 -0.210477203857 0)
(0.984606337032 -0.208062495122 0)
(0.980213001402 -0.20717400337 0)
(0.9751622762 -0.207625088928 0)
(0.969147172828 -0.209296713002 0)
(0.962008545499 -0.212001532927 0)
(0.95362171613 -0.215531053051 0)
(0.943887721293 -0.219598979657 0)
(0.932869388424 -0.223972517789 0)
(0.920557487419 -0.228299227414 0)
(0.907255517928 -0.232365057736 0)
(0.893217524123 -0.235893393906 0)
(0.878242288186 -0.238825204716 0)
(1.4388113125 2.6003970529 0)
(1.06167437424 0.353916569149 0)
(1.04010735065 0.262168486486 0)
(1.00341198009 0.235295910966 0)
(0.997238854325 0.202153221288 0)
(0.990792724879 0.173526195429 0)
(0.985942363388 0.146222416391 0)
(0.98067148858 0.120370354509 0)
(0.974930584386 0.0961196014007 0)
(0.968471816023 0.0732299402061 0)
(0.961200797148 0.052028987508 0)
(0.953131173413 0.0322756786329 0)
(0.944216726433 0.0143083164087 0)
(0.934592401212 -0.00205591390364 0)
(0.924213192855 -0.0164986960996 0)
(0.913269430876 -0.0292239625817 0)
(0.901919861658 -0.0400104802612 0)
(0.890655794973 -0.0491625091232 0)
(-0.0622627195042 -4.55049521172 0)
(0.91283553268 -0.374651714719 0)
(0.87003736125 -0.263578051564 0)
(0.938776803012 -0.276916455818 0)
(0.92653632943 -0.261227559852 0)
(0.923866600461 -0.252756428732 0)
(0.916928776379 -0.24385748589 0)
(0.909857051117 -0.236754898488 0)
(0.901986683128 -0.231460810921 0)
(0.893469499945 -0.227555717804 0)
(0.884263303808 -0.225162309565 0)
(0.874470166898 -0.223697756077 0)
(0.864069448324 -0.223251786674 0)
(0.85330744571 -0.223131289656 0)
(0.842196040093 -0.223469664456 0)
(0.831096143309 -0.223560498031 0)
(0.820133379732 -0.22370878275 0)
(0.808474809524 -0.22319513394 0)
(2.52037450054 7.47090066461 0)
(0.993225505682 0.446259473804 0)
(1.09029947408 0.246815066764 0)
(0.986581233618 0.273032993179 0)
(1.00516741443 0.237516052636 0)
(0.995566065011 0.220837511815 0)
(0.992073591417 0.20140398065 0)
(0.985334619565 0.185114629372 0)
(0.978190578917 0.170074029335 0)
(0.970194323636 0.156704050709 0)
(0.961572198532 0.144397769984 0)
(0.952313077859 0.13343937877 0)
(0.942611160057 0.123203795339 0)
(0.932465261388 0.113941448966 0)
(0.921985656549 0.104952827161 0)
(0.910944185428 0.0964796619254 0)
(0.899634287227 0.0879171187542 0)
(0.88890366154 0.07959811803 0)
(-1.59751813216 -12.8708596625 0)
(1.05167364819 -0.733417361922 0)
(0.769579760765 -0.421095324421 0)
(0.948397131063 -0.498944333182 0)
(0.896845964634 -0.461130733138 0)
(0.903803244837 -0.458099408736 0)
(0.893476379623 -0.446265146034 0)
(0.887070396516 -0.438684671927 0)
(0.879068950004 -0.431053453968 0)
(0.87086872919 -0.424340165397 0)
(0.86234923913 -0.417570811914 0)
(0.853489801196 -0.410973813842 0)
(0.844414929327 -0.403759972491 0)
(0.835087464659 -0.39628708998 0)
(0.825554066619 -0.3877631585 0)
(0.816013352022 -0.378822889019 0)
(0.806696612911 -0.368741909085 0)
(0.795707850847 -0.358496221462 0)
(4.67942996652 20.1984931834 0)
(0.765471382736 1.08030967405 0)
(1.22879511809 0.588169353498 0)
(0.965820640469 0.715025647579 0)
(1.04086429289 0.651018933717 0)
(1.01442972559 0.644290590303 0)
(1.01573763189 0.619699404579 0)
(1.00690828955 0.600357605185 0)
(0.999878525831 0.578806780029 0)
(0.991566760679 0.557026647645 0)
(0.982924803267 0.534738462039 0)
(0.973991133587 0.512067673584 0)
(0.96480399155 0.489097738067 0)
(0.955644338134 0.466009570363 0)
(0.946313303656 0.442940711858 0)
(0.936904759184 0.42015762141 0)
(0.927282480173 0.397975502512 0)
(0.919716090649 0.376869751638 0)
(-4.17047418769 -30.008870002 0)
(1.45927713652 -1.59721142562 0)
(0.615592635712 -0.924432056866 0)
(1.00375599814 -1.11180093182 0)
(0.876755871709 -1.02452326046 0)
(0.905948061223 -1.02226874314 0)
(0.886855807451 -0.993691029257 0)
(0.881565072188 -0.972921821972 0)
(0.871059338406 -0.948813760701 0)
(0.861286642075 -0.92444930128 0)
(0.850703265344 -0.899160534041 0)
(0.839944642272 -0.87284224343 0)
(0.829124644663 -0.845599627856 0)
(0.818208580283 -0.817486846652 0)
(0.807221199443 -0.789377323841 0)
(0.796499229448 -0.761115587352 0)
(0.786492806678 -0.733572575508 0)
(0.77413444351 -0.706529277157 0)
(6.89048711997 39.8176323358 0)
(0.196748533979 1.96419805405 0)
(1.42158435269 1.3389127035 0)
(0.92625854292 1.5073069334 0)
(1.08655686984 1.40810277351 0)
(1.03139113937 1.39628712813 0)
(1.04150354424 1.35500478224 0)
(1.02969078534 1.3224083548 0)
(1.02427338524 1.28587582986 0)
(1.01675768695 1.24946792655 0)
(1.0100850084 1.2120841518 0)
(1.00342722553 1.17409163004 0)
(0.997040486631 1.13522733778 0)
(0.990758900652 1.09573687897 0)
(0.984335584023 1.0559586002 0)
(0.977346634948 1.01571374984 0)
(0.969687796192 0.9753719399 0)
(0.964184884109 0.935873921978 0)
(-4.84671133588 -49.2555913439 0)
(1.90725778098 -2.35692906425 0)
(0.533024684399 -2.09190179425 0)
(1.04751105971 -2.09654060667 0)
(0.865979692214 -2.01526098889 0)
(0.914287793706 -1.97242989354 0)
(0.887126278592 -1.91962688762 0)
(0.88328205866 -1.87258769783 0)
(0.870617310827 -1.82502061746 0)
(0.859910561121 -1.77887920297 0)
(0.847954456119 -1.73314190185 0)
(0.835681073773 -1.68781653838 0)
(0.822814308825 -1.64330993475 0)
(0.809477119503 -1.59925098787 0)
(0.795644437525 -1.55533640338 0)
(0.781985921148 -1.51097749453 0)
(0.769999985213 -1.46515102901 0)
(0.755676349462 -1.41755724146 0)
(6.1982198695 58.5011679037 0)
(0.247777354287 2.99790718617 0)
(1.40478219657 3.01276406872 0)
(0.981147853765 2.8655091977 0)
(1.11782329084 2.79848021537 0)
(1.06436745829 2.70535490447 0)
(1.07240939512 2.62445547274 0)
(1.05985470607 2.543264181 0)
(1.05384925047 2.46588292557 0)
(1.0458445005 2.39119117766 0)
(1.03904901576 2.31988305237 0)
(1.03203809701 2.25168746702 0)
(1.02529502589 2.18642746052 0)
(1.01916857296 2.1243674387 0)
(1.0136568279 2.06587058973 0)
(1.00913962127 2.01089622885 0)
(1.0056063657 1.95873035962 0)
(1.00593179422 1.90773078132 0)
(-3.65953590372 -66.8435958537 0)
(1.66027238419 -4.39079580426 0)
(0.657148730282 -4.47295805087 0)
(1.00011605 -4.19929574773 0)
(0.879724448188 -4.08188171429 0)
(0.906398938101 -3.92470691123 0)
(0.886865228909 -3.79010814066 0)
(0.881455212235 -3.65585591519 0)
(0.87082139713 -3.52866676704 0)
(0.861653623858 -3.40586335386 0)
(0.851979631191 -3.28809479525 0)
(0.841962385225 -3.17576842603 0)
(0.831725697235 -3.06904546699 0)
(0.821772918437 -2.96841848685 0)
(0.811937767793 -2.8742527102 0)
(0.802159204451 -2.78760551627 0)
(0.792561090653 -2.71037651108 0)
(0.776814337123 -2.64583853817 0)
(4.19493288652 72.0069096061 0)
(0.705609963799 6.76208250031 0)
(1.38384322585 7.08978793495 0)
(1.1475964461 6.60673046685 0)
(1.21687660355 6.39652828105 0)
(1.18662777498 6.12261017237 0)
(1.18832928867 5.88142600041 0)
(1.17932381567 5.64312600098 0)
(1.17327199461 5.41606245261 0)
(1.16609880873 5.19758251609 0)
(1.15899869059 4.98777539575 0)
(1.15092657008 4.78583450823 0)
(1.14222041723 4.59166662145 0)
(1.13309275079 4.40496012143 0)
(1.1230921336 4.22572644507 0)
(1.11147268136 4.0542155208 0)
(1.09654036506 3.89156844083 0)
(1.08280243055 3.74209067175 0)
(-0.244176916815 -71.3532836812 0)
(0.904936790511 -9.45912966608 0)
(0.565773628405 -9.48656005168 0)
(0.667906275789 -8.93267413876 0)
(0.633382067089 -8.61553071042 0)
(0.642285167185 -8.24838502647 0)
(0.636694482847 -7.91467265531 0)
(0.635263960006 -7.5878166747 0)
(0.631765942569 -7.27442164002 0)
(0.628536341542 -6.97166750132 0)
(0.624570456762 -6.67955477524 0)
(0.619672137214 -6.39734501079 0)
(0.614146181036 -6.12459804775 0)
(0.608583572899 -5.86051459317 0)
(0.603069723913 -5.60317545495 0)
(0.59822270671 -5.3500274496 0)
(0.597192836454 -5.09575618859 0)
(0.600102532476 -4.82175152294 0)
(0.128292000048 -0.158915333152 3.08852603115e-16)
(0.0845325164568 -0.0414556224249 0)
(0.133112287947 0.11245015627 0)
(0.0998546489402 0.139010921145 0)
(0.0599385932217 0.129952300233 0)
(0.0258984549331 0.118186432273 -4.51802006159e-17)
(-0.00254279161272 0.110635325986 0)
(-0.0246855971663 0.108764736057 0)
(-0.0425196978834 0.111835303778 2.3748149943e-17)
(-0.0564690744127 0.119573030243 0)
(-0.0679622623798 0.130789262112 -1.78112603205e-17)
(-0.0771236092451 0.1450165067 0)
(-0.0849896015017 0.161029692857 -1.42020819586e-17)
(-0.0917121872603 0.178491451832 -1.28945562838e-17)
(-0.0982687254702 0.196453590845 0)
(-0.104798112118 0.215001806426 1.09055909695e-17)
(-0.112130802627 0.233628616966 1.01372521542e-17)
(-0.120139047837 0.252898855843 9.4803109106e-18)
(-0.129021137378 0.272535618348 0)
(-0.138516106349 0.293284279099 0)
(-0.148668307648 0.314977606968 0)
(-0.159070574583 0.33837510578 0)
(-0.169463898242 0.363105499132 0)
(-0.179608301876 0.389805154336 0)
(-0.189296509893 0.418002945364 -6.73490609684e-18)
(-0.198466153065 0.448149090901 -6.50379988678e-18)
(-0.20711900571 0.479666088475 0)
(-0.2151640471 0.512985694964 6.1135599765e-18)
(-0.222450710614 0.547456415721 5.94874040341e-18)
(-0.229052891057 0.583397316649 5.80100361087e-18)
(-0.23506573947 0.620132241787 0)
(-0.240511194237 0.65803705146 0)
(-0.245296746616 0.696418308167 -5.44249713125e-18)
(-0.249579067155 0.735567891146 0)
(-0.253550111057 0.774831525653 0)
(-0.257220530688 0.814591331879 -5.18214497909e-18)
(-0.260558777422 0.854139211127 0)
(-0.263651839122 0.893834289233 0)
(-0.266495999066 0.932995954621 0)
(-0.269174680194 0.971988056971 0)
(-0.27170307279 1.01013271809 0)
(-0.274168039836 1.04779930101 9.70679619417e-18)
(-0.276621036791 1.08431426115 0)
(-0.279108424647 1.12006025239 0)
(-0.281746511747 1.15435689359 9.50092269496e-18)
(-0.284497060074 1.18764054056 9.44464704198e-18)
(-0.287353064208 1.21917235756 0)
(-0.290288118474 1.24941588452 0)
(-0.293351176677 1.27764959109 9.30599280113e-18)
(-0.296426393091 1.30439032562 0)
(-0.299473511478 1.32880557391 -9.23614520891e-18)
(-0.302428786602 1.35152399801 0)
(-0.30520842162 1.37169989039 9.1837564152e-18)
(-0.307959619942 1.38990842702 0)
(-0.310800401043 1.40533130817 9.14950371388e-18)
(-0.313516772214 1.41868961332 9.1395291416e-18)
(-0.315885879232 1.42898248643 0)
(-0.317928722746 1.43651748861 0)
(-0.319553372955 1.4392227707 0)
(-0.320659154248 1.43772558342 9.13941260218e-18)
(-0.321067745511 1.43089249775 0)
(-0.321030307526 1.41934181939 0)
(-0.320770357151 1.40217607322 0)
(-0.320280841986 1.38036316811 0)
(-0.319548231326 1.35313613983 0)
(-0.318635331418 1.32156482111 0)
(-0.317578089142 1.28488832284 0)
(-0.316497866989 1.24422204485 -9.34546981546e-18)
(-0.315554767393 1.19884498623 0)
(-0.314839218136 1.15002005365 -9.43037579017e-18)
(-0.314420716628 1.09705404065 -9.47607694739e-18)
(-0.314233510612 1.04132364869 0)
(-0.314333477281 0.982090849278 9.57287988709e-18)
(-0.314554833046 0.920867047156 0)
(-0.314752322586 0.856768119492 -9.67596779484e-18)
(-0.314838911184 0.791377340455 0)
(-0.314755524914 0.723798416963 9.7844394249e-18)
(-0.314920548083 0.655468549631 -9.84036417037e-18)
(-0.315660196035 0.585563386706 0)
(-0.316678687755 0.515931347611 0)
(-0.317798003653 0.445665899647 0)
(-0.319282814445 0.37646570969 0)
(-0.321283785548 0.307505894083 -1.0129084424e-17)
(-0.323310256382 0.240921052122 1.01871213281e-17)
(-0.325025313297 0.175786034029 -2.04899822048e-17)
(-0.326989791222 0.114046579363 -2.06053934443e-17)
(-0.329757067232 0.0549058475398 -2.07209682294e-17)
(-0.335495858332 0.000438707131674 0)
(-0.346361631389 -0.0500327463531 0)
(-0.364658899768 -0.0947994707795 0)
(-0.383768186192 -0.131886714311 -2.11996402926e-17)
(-0.39896167936 -0.159056438367 0)
(-0.411977138525 -0.175714682681 0)
(-0.42656052285 -0.181406618145 -2.16159660048e-17)
(-0.444900300614 -0.176012156786 0)
(-0.468074443464 -0.158830739131 2.19577878312e-17)
(-0.49637626995 -0.129444756762 0)
(-0.529675142793 -0.0870624939471 -2.23852060037e-17)
(-0.567535281416 -0.0315886098811 0)
(-0.609056646573 0.0373705973604 0)
(-0.652900259673 0.119021380937 0)
(-0.695437228275 0.21400304608 -2.36905905279e-17)
(-0.736645361198 0.318663854228 0)
(-0.77695171506 0.431785847844 -2.47222503576e-17)
(-0.820947212522 0.544763158371 -2.53819629331e-17)
(-0.87083716581 0.655934412519 0)
(-0.92970819819 0.754974432866 0)
(-0.995398323215 0.843013577258 0)
(-1.06286964982 0.914558364177 -2.94955790576e-17)
(-1.12942820655 0.978656741648 0)
(-1.19990080395 1.03291624455 0)
(-1.27913038505 1.08955194048 -3.51433824992e-17)
(-1.36837111978 1.15202069717 -3.78335304289e-17)
(-1.46173084978 1.23989005948 0)
(-1.56295639213 1.35180680208 4.51043222815e-17)
(-1.695989634 1.4916496293 5.00701562348e-17)
(-1.87955483529 1.62988768451 -5.6313682891e-17)
(-2.14541491801 1.77255562207 0)
(-2.49238115595 1.87042275632 0)
(-2.90260958815 1.96720840856 0)
(-3.39457225756 2.18030461478 1.09452318983e-16)
(-3.9392987531 2.48541231053 0)
(-4.85838753944 3.02152497541 1.91789865888e-16)
(-6.12590711405 3.37967736356 0)
(-9.96085146896 -2.11306928892 0)
(-10.4276324285 -11.3553852772 0)
(-9.19648986842 -14.0025054513 -2.04500787101e-16)
(-8.91036321234 -15.874931557 -1.5682949191e-16)
(-8.62221204562 -17.6183115951 0)
(-8.37168032589 -19.3346367189 0)
(-8.15248155003 -21.1107840682 0)
(-7.93592310464 -22.9513945809 0)
(-7.70857391363 -24.8966858134 0)
(-7.45443385907 -26.9158594225 0)
(-7.17457045892 -29.022029952 -1.53069476864e-16)
(-6.87444040136 -31.1584801086 0)
(-6.57482890618 -33.3206792376 0)
(-6.31659106934 -35.4503486375 0)
(-6.13572257754 -37.5557009252 1.35364556468e-16)
(-6.04713125582 -39.6124157306 1.33050717629e-16)
(-5.99729909467 -41.6371032928 -1.31276432026e-16)
(-5.9250768754 -43.6080714863 -1.29929309102e-16)
(-5.75970389865 -45.5007764937 0)
(-5.4766651415 -47.3526050158 0)
(-5.0964987823 -49.2610720879 0)
(-4.62713612342 -51.2332275637 -1.26113209039e-16)
(-4.06741894253 -53.2544337329 0)
(-3.42230525293 -55.3062175167 0)
(-2.69367997108 -57.3581121171 1.25276919261e-16)
(-1.894896719 -59.3867018881 0)
(-1.03180461827 -61.3418846075 1.2534789192e-16)
(-0.128349848499 -63.1930861979 0)
(0.803457683003 -64.8629201099 1.25786507067e-16)
(1.722818438 -66.3158569664 0)
(2.60955979318 -67.4439592649 0)
(3.40243260471 -68.2154546483 0)
(4.07423544996 -68.4962290886 0)
(4.54659226205 -68.2800004583 0)
(4.7966755861 -67.4181335496 0)
(4.73823371285 -65.9536789871 0)
(4.36345942941 -63.7244363364 0)
(3.60414053258 -60.8390256219 1.38353891092e-16)
(2.47693227214 -57.0497993705 0)
(0.821018208206 -52.5495040614 0)
(-1.33821466595 -47.0568998764 1.56593994902e-16)
(-4.14309697483 -40.6809445788 0)
(-7.60725450075 -32.9780702683 0)
(-11.9221975191 -24.0658120313 1.95200902723e-16)
(-17.2605612419 -13.457375137 0)
(-23.62995133 -1.67257861443 0)
(-32.4355178229 12.0674260682 2.69969489183e-16)
(-42.662461439 22.3024068621 -3.06834693062e-16)
(-51.6463413092 30.8970821119 3.51367101182e-16)
(-59.0152579524 32.1398531155 0)
(-61.9067782155 20.7927551988 0)
(-55.0145948972 -6.32652363914 1.09131013319e-15)
(-31.4643077054 -43.4641818684 0)
(21.8767665543 -51.0735923974 -1.48814350107e-15)
(75.730251315 93.1247078254 -1.74167340107e-15)
(235.868015826 360.871868189 0)
(-0.388561663534 -0.276145164561 -4.20785372254e-16)
(-0.111723209466 0.0223511743578 0)
(-0.028280500504 0.118785753083 9.31542468907e-17)
(-0.00627652147689 0.128386983569 -7.18300070794e-17)
(-0.000170128919952 0.10500790562 -5.91644117184e-17)
(0.00534385867924 0.0738428257926 2.49499962866e-17)
(0.0116846653753 0.0436013360805 4.28685640094e-17)
(0.0188475122285 0.0168783989896 0)
(0.026020778767 -0.00653273763039 -1.65478327864e-17)
(0.0330568153626 -0.0270158712188 2.96242128718e-17)
(0.0393514549721 -0.0457607306918 4.01784904607e-17)
(0.0449385316354 -0.063179924395 -2.44359219666e-17)
(0.0494728053144 -0.0802593930574 3.36994818213e-17)
(0.053004271375 -0.0970680310515 1.03994147687e-17)
(0.0551759090526 -0.114352967092 0)
(0.0560140927853 -0.131903429088 -9.07641912642e-18)
(0.0552451720293 -0.150306783825 -8.54673888807e-18)
(0.0530020995674 -0.169110109457 -8.08546920234e-18)
(0.0492979979113 -0.188834157707 1.53655522037e-17)
(0.0444211605454 -0.208964298797 0)
(0.0384944918682 -0.22999155146 1.40299757781e-17)
(0.0317108509111 -0.251351426066 0)
(0.0243606217837 -0.273603428844 -1.29842223153e-17)
(0.0167086506381 -0.296239471564 0)
(0.00890630780688 -0.319825885144 1.82343644922e-17)
(0.000983338655258 -0.343904439443 -5.90570714e-18)
(-0.00686558023379 -0.369027103164 -1.14980960964e-17)
(-0.0144736835785 -0.394675183547 -1.68287015674e-17)
(-0.0216943243064 -0.421397788184 -5.48429019053e-18)
(-0.0285500732176 -0.448698549941 -5.37287386721e-18)
(-0.0349031312273 -0.477091330528 0)
(-0.0406699945768 -0.505977989165 -1.03704277831e-17)
(-0.045779404858 -0.535873586494 5.10416642537e-18)
(-0.0502845526977 -0.566198889916 0)
(-0.0541478583249 -0.597420809549 0)
(-0.0573675119492 -0.628846172293 4.9124087221e-18)
(-0.059889564436 -0.660968255081 0)
(-0.0617148652773 -0.693082498344 0)
(-0.0627943336876 -0.725674716705 0)
(-0.0631686038135 -0.758020147217 0)
(-0.0628170886535 -0.790599838338 0)
(-0.0617895893205 -0.822668508403 9.36642029966e-18)
(-0.0601027475384 -0.854706896015 1.86265560418e-17)
(-0.057798475065 -0.885938465932 0)
(-0.0549288477109 -0.916868405084 9.23163071747e-18)
(-0.0515194501769 -0.946658529323 -9.19105761721e-18)
(-0.0475540909557 -0.975886047006 0)
(-0.0429882554042 -1.00370124065 0)
(-0.0378519632747 -1.03072603198 -2.73436670298e-17)
(-0.0321885803207 -1.05604276826 -1.81960603793e-17)
(-0.0258677473289 -1.08039040147 9.08198404915e-18)
(-0.0188377055801 -1.10282529964 1.81530562942e-17)
(-0.0111621414737 -1.12414003147 9.07595782737e-18)
(-0.0030056421258 -1.14340860363 0)
(0.00563980331403 -1.16140137739 -2.72396536879e-17)
(0.014808569078 -1.17701706993 -9.08978456821e-18)
(0.0246691839103 -1.18979144093 0)
(0.0350388875079 -1.19825129111 1.82259390075e-17)
(0.0458875645187 -1.20242916984 -1.82500541779e-17)
(0.0573326995197 -1.20123505039 -9.13861768062e-18)
(0.0694358385592 -1.19581160717 0)
(0.0820926687074 -1.18521751001 0)
(0.095246734103 -1.17060317641 0)
(0.108882626216 -1.15093502926 1.85021257785e-17)
(0.122933727531 -1.12753237958 0)
(0.137255748788 -1.09941295096 -1.86564511908e-17)
(0.151701087875 -1.06800058298 0)
(0.166096975421 -1.03236298909 -9.4207507135e-18)
(0.180249707055 -0.994017739527 0)
(0.194001194834 -0.951962649958 -9.52147599423e-18)
(0.207234959761 -0.907789977176 -9.5757083658e-18)
(0.219927471704 -0.860394971963 0)
(0.232030014319 -0.811456788612 -9.68633744857e-18)
(0.243517580351 -0.7597172395 0)
(0.254502956531 -0.707004745885 9.8121307958e-18)
(0.265088993126 -0.651991602485 0)
(0.275078368885 -0.596598264618 -9.94720547767e-18)