/*--------------------------------*- C++ -*----------------------------------*\
| =========                 |                                                 |
| \\      /  F ield         | OpenFOAM: The Open Source CFD Toolbox           |
|  \\    /   O peration     | Version:  v1806                                 |
|   \\  /    A nd           | Web:      www.OpenFOAM.com                      |
|    \\/     M anipulation  |                                                 |
\*---------------------------------------------------------------------------*/
FoamFile
{
    version     2.0;
    format      ascii;
    class       volScalarField;
    location    "24";
    object      pa;
}
// * * * * * * * * * * * * * * * * * * * * * * * * * * * * * * * * * * * * * //

dimensions      [0 2 -2 0 0 0 0];


internalField   nonuniform List<scalar> 
12225
(
1612.77389252
1612.93195881
1613.38921222
1613.72811895
1614.29704817
1614.78944866
1615.19955109
1615.45878823
1615.63755457
1615.9113301
1616.46658762
1617.31579035
1618.09547043
1618.47123715
1619.59868946
1625.29693285
1637.47754545
1641.42616158
1633.5797314
1626.78478606
1626.93762212
1627.45474164
1627.97727751
1628.46717581
1628.873605
1629.24377902
1629.69231328
1630.40372441
1631.48462814
1632.78804928
1633.83313087
1634.44471002
1636.12844308
1642.1415925
1651.3910904
1648.11370181
1606.65961557
1618.59953699
1619.32832352
1619.44989022
1619.62085751
1619.66474001
1619.60788934
1619.51006941
1619.52857813
1619.85772522
1620.59035271
1621.54825896
1622.29651542
1622.82830133
1624.66153767
1630.1787955
1637.29214161
1635.37786936
1631.21741673
1622.7862789
1623.11274209
1623.43789478
1623.7257104
1623.85266743
1623.85354949
1623.78245436
1623.78265467
1624.01550675
1624.52561092
1625.10713717
1625.40336581
1625.51796495
1626.63342848
1629.84610941
1632.6371568
1629.39990913
1612.16596332
1619.77915697
1620.33327609
1620.65186181
1620.94308382
1621.13276453
1621.24630141
1621.33973831
1621.53990465
1621.97239058
1622.64833778
1623.38627775
1623.97496393
1624.64113139
1626.18630469
1628.67930578
1629.67871084
1626.51771347
1627.48713965
1621.57752152
1621.30838997
1621.65544592
1621.82353164
1621.92643534
1621.95544026
1621.97751229
1622.08579956
1622.35878114
1622.77058848
1623.17750749
1623.50930133
1624.07198357
1625.36903698
1627.0066078
1627.13001921
1624.60105272
1614.82191325
1620.02304902
1620.83143147
1620.98403673
1621.21466094
1621.35052299
1621.46768841
1621.6029997
1621.8289749
1622.17348763
1622.57586459
1622.91610758
1623.19367717
1623.67690329
1624.60340957
1625.46893456
1625.10547238
1623.13612672
1623.19818211
1620.77169901
1620.81454423
1621.01155812
1621.13949843
1621.22155947
1621.29642661
1621.41263545
1621.62197014
1621.92786955
1622.26300503
1622.54237998
1622.7957811
1623.20041485
1623.79456446
1624.12210296
1623.53163445
1621.96976886
1619.38815255
1620.47806913
1620.72023766
1620.86510976
1620.98902796
1621.06570912
1621.14272968
1621.25723051
1621.44478853
1621.69435495
1621.94905296
1622.16002908
1622.36608983
1622.65820732
1622.97049259
1622.95858041
1622.29356957
1621.02559648
1620.56280313
1620.44087118
1620.61147785
1620.72778915
1620.83132162
1620.90075019
1620.97763254
1621.08732843
1621.2491403
1621.44368659
1621.62730144
1621.77572516
1621.9191235
1622.08516908
1622.17535533
1621.96154134
1621.29471571
1620.24507463
1620.3246923
1620.392084
1620.50801528
1620.59918847
1620.68061706
1620.74060939
1620.81032327
1620.9062553
1621.03485769
1621.17521834
1621.29604547
1621.38598322
1621.45956503
1621.50684253
1621.43573439
1621.10977193
1620.47352626
1619.58838415
1620.29794038
1620.31785078
1620.40307392
1620.47024538
1620.53374632
1620.58309971
1620.64185018
1620.71888757
1620.8137076
1620.90685496
1620.97631055
1621.01473768
1621.02454029
1620.97957602
1620.80934432
1620.43413478
1619.83904878
1619.07410752
1620.23946839
1620.24578956
1620.30081404
1620.34661708
1620.39155971
1620.42804022
1620.4717692
1620.52601724
1620.5858515
1620.63474777
1620.65678833
1620.64682333
1620.59582681
1620.47811759
1620.24117013
1619.84581099
1619.29468297
1618.62736875
1620.14906557
1620.1538535
1620.18346098
1620.20760169
1620.23035585
1620.24941046
1620.27130273
1620.29645713
1620.31667103
1620.31893512
1620.29236197
1620.23011444
1620.12142139
1619.94180453
1619.66185989
1619.26353864
1618.76121688
1618.18205601
1620.04413983
1620.04361018
1620.0505962
1620.05024213
1620.04863381
1620.04276355
1620.03728368
1620.02667942
1620.00504913
1619.9597946
1619.88566507
1619.77307012
1619.61420534
1619.39073893
1619.08931251
1618.70477736
1618.25335441
1617.75551411
1619.87172554
1619.89584962
1619.87505766
1619.85034203
1619.81701082
1619.78219205
1619.74075211
1619.69195079
1619.62525388
1619.53632965
1619.41530735
1619.26068515
1619.06114555
1618.81240998
1618.5051561
1618.14499751
1617.74264623
1617.3144624
1620.05321322
1619.88756144
1619.82219991
1619.7681122
1619.69962662
1619.62790061
1619.54780277
1619.45730396
1619.34943755
1619.21840775
1619.06023191
1618.87041622
1618.64670059
1618.38549248
1618.087117
1617.75477505
1617.40085069
1617.03806512
1618.54436516
1619.15292966
1619.20971007
1619.13176955
1619.02214295
1618.9146557
1618.80135634
1618.67906868
1618.54215593
1618.38535219
1618.20680164
1618.00348269
1617.77655775
1617.52494933
1617.25142006
1616.95859217
1616.65471902
1616.33665976
1622.93307687
1621.14190812
1620.3712327
1620.07823917
1619.88439826
1619.71882035
1619.55392171
1619.38027112
1619.19441694
1618.99147325
1618.77206438
1618.53470361
1618.28273686
1618.01601852
1617.73703859
1617.44709379
1617.15606155
1616.8840979
1612.75531702
1616.56231852
1617.74269618
1617.85678444
1617.79690218
1617.69837917
1617.58256706
1617.45471847
1617.31178565
1617.15367738
1616.97929634
1616.78998587
1616.58687958
1616.37278288
1616.14851409
1615.91946833
1615.68724476
1615.4315603
1627.89767068
1621.57913812
1619.70844934
1619.48213194
1619.33659089
1619.19766078
1619.03669223
1618.85938421
1618.67033814
1618.46994946
1618.26023623
1618.04282539
1617.82065072
1617.59450987
1617.36435627
1617.1260002
1616.88511348
1616.68232397
1605.64947917
1615.31826293
1617.89081884
1617.85746921
1617.7636284
1617.6109532
1617.44963954
1617.27284344
1617.08334935
1616.88163086
1616.66994059
1616.44849033
1616.22087174
1615.98725998
1615.75058574
1615.5160885
1615.29131637
1615.02898511
1637.52910581
1623.04128643
1619.52528757
1619.60822308
1619.49401073
1619.42021498
1619.29277444
1619.15637192
1619.00505969
1618.84396119
1618.67108528
1618.49003592
1618.30135297
1618.10811197
1617.90771089
1617.69738593
1617.47487699
1617.31864393
1593.74020832
1613.42480756
1617.85100413
1617.43959003
1617.36114299
1617.1458615
1616.95689959
1616.73744119
1616.50889304
1616.27050668
1616.02810029
1615.78523855
1615.54581219
1615.31033067
1615.07936291
1614.85802103
1614.65487342
1614.38385952
1646.33735994
1624.31101926
1619.76443978
1620.22543295
1620.06233746
1620.00999581
1619.86626971
1619.72625754
1619.56989713
1619.41152799
1619.25193104
1619.09368804
1618.93637414
1618.77743409
1618.61220025
1618.43208538
1618.2298728
1618.11770763
1593.71895195
1614.39442602
1617.54251756
1617.02019832
1616.93458238
1616.71034377
1616.52157377
1616.29747341
1616.06649292
1615.82661169
1615.58314424
1615.33451497
1615.07948851
1614.81429272
1614.53912745
1614.26892053
1614.03317028
1613.7142708
1641.54894568
1622.6000438
1621.00261967
1621.1926671
1621.03026398
1620.890135
1620.71522883
1620.53576204
1620.3455842
1620.15614599
1619.96929574
1619.78489481
1619.60705185
1619.43768034
1619.2833602
1619.15176175
1619.03344947
1619.03264564
1597.05832094
1615.2334665
1616.32188583
1616.11902673
1615.96492843
1615.80539676
1615.64682416
1615.47453595
1615.29542635
1615.11457243
1614.93270396
1614.74870715
1614.56608525
1614.38532619
1614.20380941
1614.01789831
1613.82131744
1613.44915138
1634.62757636
1624.90118892
1624.01522433
1623.9432434
1623.72976006
1623.54995951
1623.34932791
1623.14102853
1622.92044425
1622.69280999
1622.45516919
1622.20600574
1621.94941184
1621.68456168
1621.40239484
1621.08218867
1620.67730295
1620.36750628
1611.30392168
1610.8830512
1610.93227315
1610.80174785
1610.80335761
1610.75901572
1610.72055522
1610.66992607
1610.61271638
1610.54774537
1610.47300844
1610.38892388
1610.30264831
1610.22046699
1610.14167208
1610.07347652
1610.07658479
1610.13299169
1609.87858903
1609.87088558
1609.85665161
1609.84527256
1609.84722911
1609.86751487
1609.90427613
1609.95452095
1610.01475004
1610.08297504
1610.15463488
1610.22570907
1610.29053196
1610.34546895
1610.38732566
1610.41662328
1610.43396935
1610.44391368
1610.44835135
1610.45299227
1610.45854439
1610.46972168
1610.48494085
1610.50732318
1610.53343997
1610.56486016
1610.59774389
1610.632929
1610.66665275
1610.69923326
1610.72785729
1610.75265837
1610.7718905
1610.78556151
1610.79286556
1610.79408315
1610.78922571
1610.77899814
1610.76374138
1610.74456506
1610.72176721
1610.69692893
1610.66983214
1610.64280463
1610.61473647
1610.58904983
1610.56337638
1610.54195435
1610.52152997
1610.50689735
1610.49401799
1610.48783508
1610.48389647
1610.48663803
1610.49238618
1610.50534256
1610.5214712
1610.5436458
1610.56745962
1610.59554991
1610.62486194
1610.65795308
1610.69304649
1610.73410122
1610.77931893
1610.83218344
1610.88921519
1610.95486698
1611.02561257
1611.10743411
1611.19589625
1611.29743559
1611.40641199
1611.52967393
1611.66070078
1611.80612887
1611.95918662
1612.12658283
1612.30300597
1612.49646153
1612.70042226
1612.92242139
1613.15657445
1613.41144086
1613.67909135
1613.96734434
1614.27046756
1614.59893834
1614.95467141
1615.35622275
1615.81518041
1616.32603089
1616.87972461
1617.47407074
1618.11309204
1618.80147594
1619.54542426
1620.34856261
1621.21446458
1622.14244185
1623.12952923
1624.16661947
1625.23287511
1626.31382986
1627.38400729
1628.44714124
1629.49652737
1630.55240389
1631.6065353
1632.68920556
1633.80609538
1634.98685895
1636.22142042
1637.48518561
1638.71360821
1639.95793113
1641.18988128
1642.45715708
1643.72116603
1644.90537228
1646.0891581
1647.29602927
1648.36404638
1649.45662457
1650.86774441
1652.83959749
1655.18394329
1657.83222432
1660.73838931
1663.89891567
1667.29917635
1670.96369853
1674.89646589
1679.14679709
1683.73979043
1688.75072984
1694.22715315
1700.25724459
1706.8961766
1714.21192537
1722.24378331
1731.02135818
1740.56912696
1750.90027509
1762.03939199
1773.98931133
1786.76905498
1800.35481822
1814.74013344
1829.8606457
1845.67808176
1862.07008142
1878.95370663
1896.12107301
1913.4223665
1930.51964497
1947.15725281
1962.80227159
1977.03971495
1989.06611214
1998.26239385
2003.4969464
2003.93140767
1998.06678922
1984.85878488
1962.4472284
1929.60396168
1884.05538546
1824.37081074
1747.90058589
1652.98139298
1536.43729987
1396.1157176
1228.01603373
1029.33847571
794.839659329
520.051807997
199.15985123
-169.483858693
-579.823417833
1609.93701081
1609.89736062
1609.86615759
1609.8539453
1609.85651833
1609.8715924
1609.8997324
1609.94161972
1609.99394922
1610.05370993
1610.11716362
1610.18124883
1610.2426993
1610.29974438
1610.35139987
1610.39876338
1610.44296215
1610.48702944
1610.53236151
1610.58217524
1610.63664748
1610.69833774
1610.76609255
1610.84118121
1610.921368
1611.00699985
1611.09532206
1611.18597947
1611.276217
1611.36512214
1611.4503974
1611.53087868
1611.60485294
1611.67104134
1611.72833463
1611.77579519
1611.81289904
1611.83917164
1611.85448273
1611.85883604
1611.85219254
1611.83509526
1611.80738515
1611.7702571
1611.7232812
1611.6684179
1611.60489519
1611.53513965
1611.45796919
1611.37627956
1611.28886096
1611.19817273
1611.10295734
1611.00565304
1610.90545914
1610.80448068
1610.70216508
1610.60134111
1610.50265838
1610.40685396
1610.31278658
1610.2204796
1610.12843068
1610.03649208
1609.94409422
1609.85368088
1609.76562276
1609.68219275
1609.60317451
1609.53161784
1609.4674776
1609.41420504
1609.37136903
1609.34236325
1609.32650183
1609.32649969
1609.34110397
1609.37344017
1609.42332326
1609.49397943
1609.58428064
1609.69746079
1609.83278141
1609.99325034
1610.17673607
1610.38621253
1610.62142971
1610.88811423
1611.19395096
1611.55780823
1611.99358332
1612.49657608
1613.05825896
1613.67619617
1614.35380882
1615.0948749
1615.90335699
1616.78027074
1617.72624979
1618.73651147
1619.80478429
1620.91430642
1622.04677383
1623.17772567
1624.29637578
1625.40521124
1626.51890418
1627.6488658
1628.80889081
1630.02274413
1631.30403809
1632.65283138
1634.06851199
1635.52430432
1637.0007024
1638.5114263
1640.04350396
1641.57519843
1643.1164918
1644.55895787
1645.86056515
1647.11831637
1648.33211036
1649.44916657
1650.83971085
1652.68456428
1654.88876523
1657.38583581
1660.13785416
1663.127549
1666.35083504
1669.8181902
1673.5481491
1677.57597699
1681.94408098
1686.7146352
1691.95126009
1697.73229858
1704.12393356
1711.19234859
1718.98082749
1727.52173723
1736.83195313
1746.92538069
1757.81445564
1769.51776507
1782.04725124
1795.39075982
1809.52555327
1824.40624253
1839.9739467
1856.13448197
1872.77702454
1889.73342129
1906.81516589
1923.7380636
1940.1930592
1955.71732694
1969.82396097
1981.8001811
1990.93411859
1996.20857532
1996.66641246
1990.94859583
1977.86795595
1955.72273254
1923.0997688
1877.89622439
1818.47642578
1742.38931446
1647.79687672
1531.82235309
1392.29579145
1225.5956214
1028.9856908
797.223039915
525.67869192
207.923810437
-158.313915742
-571.122515887
1610.1052234
1609.89921689
1609.74373199
1609.64921963
1609.59014765
1609.56016693
1609.55357483
1609.56166538
1609.57604079
1609.5920895
1609.60583157
1609.61415555
1609.61405261
1609.60408672
1609.58392262
1609.55477957
1609.51792997
1609.47566531
1609.42898003
1609.38008722
1609.32924011
1609.27822384
1609.2265781
1609.17583232
1609.12496244
1609.07503301
1609.02494043
1608.97537784
1608.92523483
1608.87483343
1608.82332922
1608.77076395
1608.71661848
1608.66078843
1608.60315558
1608.54364872
1608.48254965
1608.4200148
1608.35649027
1608.29236979
1608.22812412
1608.16442198
1608.1015798
1608.04065015
1607.98170406
1607.92624045
1607.87401477
1607.82677469
1607.78402871
1607.7475236
1607.71665178
1607.69307369
1607.67601255
1607.66689012
1607.66518668
1607.67171723
1607.68511663
1607.7050321
1607.73193601
1607.76667562
1607.80927485
1607.86014664
1607.91949076
1607.98755232
1608.06348884
1608.14723712
1608.23871592
1608.33878098
1608.44710835
1608.56457338
1608.69088363
1608.82704411
1608.97261951
1609.12850793
1609.29417635
1609.47012704
1609.65570983
1609.85175454
1610.05834189
1610.27635367
1610.50544477
1610.74647613
1610.99933466
1611.26455161
1611.5411597
1611.82963471
1612.13061193
1612.44709505
1612.78736444
1613.16954742
1613.60630892
1614.09432815
1614.62550784
1615.20062832
1615.82427646
1616.50460641
1617.24700905
1618.0572499
1618.93650565
1619.88435264
1620.89381511
1621.94898729
1623.0320666
1624.11596492
1625.19718114
1626.27155811
1627.3512602
1628.4325339
1629.52820205
1630.64480624
1631.80130749
1632.98864014
1634.22973044
1635.50873809
1636.82298082
1638.16814763
1639.56516012
1640.96240661
1642.32707538
1643.69795157
1645.04333862
1646.35623973
1647.66792643
1649.01694299
1650.63438769
1652.60158663
1654.89573883
1657.47347619
1660.31462442
1663.39881695
1666.73202177
1670.31624398
1674.1804794
1678.34903005
1682.87499464
1687.80767164
1693.22018254
1699.17881453
1705.75556518
1713.00562026
1720.97166747
1729.67983897
1739.14734408
1749.39032787
1760.42534248
1772.27985382
1784.96981842
1798.4807252
1812.78816833
1827.84621699
1843.5960465
1859.94225126
1876.77459244
1893.92258362
1911.19870889
1928.31532212
1944.96422883
1960.67778169
1974.96927789
1987.12088929
1996.4189604
2001.8427916
2002.43053872
1996.82941538
1983.83934024
1961.76595232
1929.15391669
1883.90776921
1824.29389307
1747.82408649
1652.50264041
1535.52897362
1394.86884453
1227.33216362
1030.29562886
799.595968064
531.564235604
221.115908745
-134.998024406
-541.318548667
1610.26497789
1609.62086264
1609.33663198
1609.24538729
1609.21527072
1609.22391696
1609.2591298
1609.30486976
1609.35012863
1609.39196397
1609.42858795
1609.45846081
1609.47944996
1609.49076074
1609.4923737
1609.4855133
1609.47128549
1609.45141499
1609.42671369
1609.39873485
1609.36758784
1609.3347931
1609.30006971
1609.26474434
1609.22829338
1609.19196675
1609.15496378
1609.1183366
1609.08124363
1609.04444412
1609.00714146
1608.96981761
1608.9318592
1608.89349109
1608.85433054
1608.81457744
1608.77407999
1608.73303404
1608.69149277
1608.64971463
1608.60775362
1608.56602133
1608.5244851
1608.48379697
1608.4437755
1608.40535312
1608.36818279
1608.33335924
1608.30028558
1608.27018982
1608.24243173
1608.21813821
1608.19675819
1608.17945186
1608.16579788
1608.15691246
1608.15295581
1608.15419045
1608.1593007
1608.16822806
1608.18031197
1608.19512024
1608.2120711
1608.23143364
1608.2538144
1608.27975321
1608.30967464
1608.34468788
1608.38562686
1608.4338561
1608.49017728
1608.55594354
1608.63180424
1608.71892938
1608.81789262
1608.92965948
1609.05479065
1609.1943712
1609.349238
1609.52034379
1609.70825469
1609.91379752
1610.13750464
1610.37984679
1610.64089707
1610.92107713
1611.22164304
1611.54561514
1611.9010981
1612.30532352
1612.77065546
1613.2917185
1613.86071629
1614.47597076
1615.14223321
1615.86447734
1616.64840244
1617.49700414
1618.41258606
1619.39424454
1620.43554853
1621.52410204
1622.64130766
1623.77472225
1624.92091538
1626.08211205
1627.25465232
1628.43647192
1629.61742036
1630.79845405
1631.98215781
1633.16628091
1634.37448782
1635.59526722
1636.8199875
1638.05916486
1639.31510447
1640.60745425
1641.94089787
1643.34882768
1644.80721504
1646.30825602
1647.84199606
1649.4525114
1651.27205853
1653.35890153
1655.71742108
1658.32995266
1661.18403883
1664.26936598
1667.59139531
1671.15865585
1674.99856393
1679.14134268
1683.63878368
1688.54523127
1693.93317027
1699.87274811
1706.43419774
1713.67239221
1721.6270421
1730.32449158
1739.77929115
1750.01005981
1761.02833492
1772.86687044
1785.54138686
1799.04072406
1813.33086162
1828.37350832
1844.09858003
1860.42333607
1877.22155436
1894.34209841
1911.57469249
1928.65968751
1945.25669085
1960.93623066
1975.16699569
1987.28171296
1996.5064452
2001.8866281
2002.38461168
1996.73963775
1983.65999584
1961.56347877
1928.8664576
1883.59837951
1823.82158182
1747.09625267
1651.07611235
1533.02334496
1390.72011576
1221.34815193
1022.34020752
791.254647637
526.259258985
225.253735938
-115.655093603
-504.813418962
1610.24117451
1608.94629428
1608.72132034
1608.81976106
1608.92032514
1609.0116115
1609.09688153
1609.16798396
1609.22209888
1609.26347896
1609.29457785
1609.31638485
1609.32806028
1609.3295733
1609.32106135
1609.30351636
1609.27768524
1609.24478074
1609.20525922
1609.16027206
1609.10999734
1609.05553907
1608.9967841
1608.93504305
1608.86994529
1608.80281195
1608.73320934
1608.66244084
1608.58997092
1608.51699241
1608.44298086
1608.36893553
1608.29437902
1608.22014639
1608.14592992
1608.07236037
1607.99935073
1607.92744963
1607.85665467
1607.78745368
1607.71989178
1607.65445931
1607.59116641
1607.53061391
1607.47274582
1607.41833011
1607.36720728
1607.32026612
1607.27727174
1607.23914417
1607.20561877
1607.17779436
1607.15543248
1607.13966943
1607.13031337
1607.12825097
1607.13329071
1607.14674248
1607.16842417
1607.19898271
1607.23824301
1607.28648634
1607.34321945
1607.40784822
1607.47985012
1607.55939065
1607.64651871
1607.74157469
1607.84464243
1607.95608988
1608.0759329
1608.20447353
1608.34164938
1608.48774869
1608.64287288
1608.80750726
1608.98201663
1609.16713848
1609.3634409
1609.57162384
1609.79211455
1610.02546952
1610.27197052
1610.53192137
1610.80535798
1611.09261935
1611.39521803
1611.71608409
1612.06364969
1612.45553114
1612.90381155
1613.40527724
1613.95269941
1614.54644049
1615.19163457
1615.89380623
1616.6572525
1617.48404389
1618.37474585
1619.32732094
1620.33133575
1621.37822303
1622.4507622
1623.5522219
1624.67966001
1625.84601476
1627.04318033
1628.27296208
1629.50925934
1630.7462809
1631.9719343
1633.19201674
1634.41964471
1635.62475059
1636.78871828
1637.96825071
1639.19623582
1640.46284425
1641.7998937
1643.26073085
1644.80854943
1646.42184528
1648.0781367
1649.82237421
1651.72873339
1653.85397944
1656.20801634
1658.79942524
1661.61584511
1664.6663356
1667.9475636
1671.48517593
1675.29386043
1679.42086903
1683.90426483
1688.81351588
1694.20986856
1700.17257148
1706.76306825
1714.03596897
1722.0258834
1730.75401899
1740.23672519
1750.48660014
1761.52177434
1773.37182036
1786.06357571
1799.57422693
1813.87905269
1828.9273202
1844.66161505
1860.9844923
1877.78559517
1894.89660261
1912.12618953
1929.19537889
1945.78466397
1961.44340651
1975.66126039
1987.7484483
1996.94983804
2002.28711977
2002.73894909
1997.02364083
1983.8642619
1961.65616398
1928.81966751
1883.36098937
1823.32795296
1746.21235686
1649.58853077
1530.65289058
1387.18410261
1216.53168439
1016.30136615
784.906027591
521.928356174
226.922999567
-104.117153548
-480.700510574
1609.98641401
1607.94557266
1608.08488137
1608.52628075
1608.77809129
1608.92812868
1609.02918209
1609.09535405
1609.1360029
1609.16151625
1609.17675513
1609.18389136
1609.18273998
1609.17365334
1609.15666243
1609.13243817
1609.10128372
1609.06392311
1609.020584
1608.97202034
1608.91819908
1608.86007355
1608.79746681
1608.73144751
1608.66175969
1608.5897141
1608.51491259
1608.43880218
1608.36096083
1608.28284314
1608.20399795
1608.12576428
1608.04774506
1607.97104617
1607.8953471
1607.82158634
1607.74952236
1607.67987213
1607.61249178
1607.54791615
1607.48599455
1607.42715963
1607.37123805
1607.31865691
1607.2692168
1607.22340688
1607.18100137
1607.14254836
1607.10775791
1607.0772973
1607.05091401
1607.0294325
1607.01273891
1607.00186842
1606.99676099
1606.99856275
1607.00694215
1607.02235767
1607.04426203
1607.07292968
1607.1076767
1607.14849143
1607.19521414
1607.24835614
1607.3079106
1607.37430922
1607.44802838
1607.52989039
1607.62059734
1607.72095248
1607.83147992
1607.95261641
1608.08453242
1608.22740931
1608.38137701
1608.54668397
1608.7236949
1608.91277114
1609.11431746
1609.32861801
1609.55593069
1609.79643058
1610.05023602
1610.31741337
1610.59807104
1610.89256383
1611.20235585
1611.5306164
1611.8854458
1612.28306312
1612.73628732
1613.24158105
1613.79220941
1614.39004031
1615.04055941
1615.74990626
1616.52146802
1617.35706918
1618.25569552
1619.21054209
1620.210604
1621.241439
1622.29525876
1623.37123251
1624.4791157
1625.62814326
1626.82629472
1628.06957261
1629.33091487
1630.59080271
1631.86398525
1633.12689782
1634.36443968
1635.57786953
1636.77780983
1637.96879703
1639.19485054
1640.47567617
1641.86429493
1643.38628439
1645.00542372
1646.69583985
1648.44692425
1650.28968604
1652.27626498
1654.44891247
1656.82802443
1659.42415472
1662.23850301
1665.27845738
1668.55075517
1672.07651955
1675.87913049
1680.00071718
1684.48712834
1689.40321123
1694.81624126
1700.80034398
1707.41666853
1714.71445625
1722.7247544
1731.46710255
1740.9561672
1751.20630176
1762.23805806
1774.08749078
1786.77612754
1800.28166212
1814.57593038
1829.61169069
1845.32648723
1861.62840697
1878.40026968
1895.48247146
1912.67411208
1929.70952068
1946.25494452
1961.87907041
1976.04951294
1988.10323589
1997.25080919
2002.54876662
2002.92334707
1997.13641349
1983.83609166
1961.47241355
1928.37045147
1882.6126898
1822.15924527
1744.6225662
1647.51626105
1528.18643855
1384.33597071
1213.51033917
1013.27525634
781.914224152
518.782187182
223.063221584
-109.478445494
-487.468559256
1609.5249411
1606.79743239
1607.59283412
1608.38471519
1608.70915012
1608.86021701
1608.94394835
1608.99071126
1609.01365293
1609.02318428
1609.02339111
1609.01646554
1609.00245826
1608.98200417
1608.9550865
1608.92223785
1608.88349399
1608.83935868
1608.78975926
1608.73527356
1608.67576977
1608.61196804
1608.54361806
1608.47177613
1608.39608771
1608.31786171
1608.23675484
1608.1542892
1608.07009893
1607.98577716
1607.9009608
1607.81714344
1607.7339435
1607.65267516
1607.57299813
1607.49594557
1607.42125066
1607.34970673
1607.28104866
1607.21584104
1607.15381249
1607.09536387
1607.04021199
1606.98870124
1606.94056253
1606.89616843
1606.85526505
1606.81828339
1606.78499793
1606.75593975
1606.73095955
1606.71083681
1606.69556832
1606.68621879
1606.68289012
1606.68678489
1606.69805098
1606.71767385
1606.74557132
1606.78256298
1606.82837276
1606.88321939
1606.94626796
1607.01733849
1607.09584034
1607.18164897
1607.27447981
1607.37465285
1607.48253572
1607.59879894
1607.72397547
1607.85856235
1608.00288224
1608.15719065
1608.32188031
1608.49732701
1608.68413106
1608.88268203
1609.09351706
1609.31667199
1609.55239879
1609.80035711
1610.06056087
1610.33252346
1610.61629129
1610.91174818
1611.22062626
1611.54602122
1611.89592229
1612.28647935
1612.73031346
1613.22373965
1613.76117312
1614.3455101
1614.98435112
1615.68335258
1616.44630176
1617.27388062
1618.16417409
1619.10583928
1620.08816332
1621.09378404
1622.12208313
1623.17182762
1624.25964856
1625.38789954
1626.5723981
1627.80863215
1629.06994758
1630.33743251
1631.64463459
1632.98232413
1634.29388667
1635.54782253
1636.7780572
1637.99837748
1639.25888848
1640.58813938
1642.03543186
1643.60244202
1645.26742073
1647.00519744
1648.81919459
1650.72451333
1652.7655156
1654.9668959
1657.35917379
1659.94613682
1662.74594397
1665.7577705
1669.0058513
1672.50014239
1676.28153728
1680.37995536
1684.85732215
1689.76862072
1695.19190769
1701.19199488
1707.83148076
1715.15202136
1723.18093976
1731.93666827
1741.43098413
1751.68285234
1762.71646375
1774.57431514
1787.26271695
1800.76610696
1815.04995442
1830.07437108
1845.76913835
1862.05058554
1878.79319272
1895.84675665
1913.00192203
1930.00310722
1946.5085121
1962.09643359
1976.22666215
1988.2433099
1997.34759263
2002.59875671
2002.90687317
1997.02877826
1983.58308266
1961.01455225
1927.61377472
1881.47526847
1820.54795011
1742.53638139
1645.01764343
1525.47348274
1381.58549059
1210.91679889
1010.94948149
779.182770882
513.777884092
212.109763027
-130.200526247
-519.633934012
1608.91451484
1605.70035866
1607.30261239
1608.30608169
1608.60204097
1608.72450319
1608.78927501
1608.82756789
1608.84550726
1608.85061761
1608.84578436
1608.83341603
1608.81403043
1608.78870996
1608.75759946
1608.72133297
1608.67988168
1608.63368551
1608.58261112
1608.52714516
1608.46702072
1608.40297556
1608.33468002
1608.26313966
1608.18800046
1608.11061009
1608.03057044
1607.94947382
1607.86692617
1607.78459683
1607.70206401
1607.62089124
1607.5406663
1607.46271642
1607.38665061
1607.3135452
1607.24302414
1607.17589614
1607.11180164
1607.05131196
1606.99405096
1606.94041791
1606.89003372
1606.84322968
1606.79965505
1606.75965982
1606.7229354
1606.68989234
1606.66025925
1606.63456462
1606.61260666
1606.59515413
1606.58213767
1606.57458618
1606.57256572
1606.5772026
1606.58856737
1606.60758995
1606.63394115
1606.66833723
1606.71056626
1606.76155698
1606.8212724
1606.89010087
1606.96757442
1607.05367963
1607.14803284
1607.25090771
1607.36255295
1607.48360492
1607.61446659
1607.75545791
1607.90666101
1608.06813092
1608.24004552
1608.42269743
1608.61670237
1608.82251663
1609.04061357
1609.27111172
1609.51398124
1609.76898834
1610.03563529
1610.31356301
1610.60198016
1610.90096226
1611.2113306
1611.53794711
1611.88682896
1612.27658455
1612.71790744
1613.20654997
1613.73664877
1614.3135195
1614.9463206
1615.64005248
1616.39621315
1617.2137559
1618.08690514
1619.00525449
1619.951927
1620.92294694
1621.92161621
1622.95771047
1624.03124629
1625.14214601
1626.2934789
1627.4995669
1628.7619808
1630.08218881
1631.45619144
1632.84884711
1634.20239069
1635.50418595
1636.77823743
1638.04931733
1639.36209619
1640.75065197
1642.24686187
1643.851119
1645.54713033
1647.32293977
1649.18013569
1651.13392774
1653.21242324
1655.43989803
1657.83923559
1660.42295405
1663.20642503
1666.19950239
1669.423437
1672.89819142
1676.66105763
1680.7507358
1685.22569909
1690.14802548
1695.59067939
1701.61822511
1708.28647514
1715.63225273
1723.67954899
1732.44440938
1741.94125703
1752.19026428
1763.22775458
1775.09028517
1787.77596519
1801.26900602
1815.53846269
1830.54159918
1846.21188883
1862.46187598
1879.17106287
1896.184864
1913.30064864
1930.25746483
1946.72201975
1962.26515329
1976.35660092
1988.32840418
1997.39208863
2002.58726126
2002.83162733
1996.84897905
1983.25873702
1960.46416235
1926.76253231
1880.21092814
1818.78695375
1740.22031247
1642.19287849
1522.25595797
1378.09779735
1207.20280041
1006.96862994
774.167554197
505.636493138
196.927917634
-156.498020534
-558.58888562
1608.22915395
1604.8076436
1607.1572474
1608.18269552
1608.40528712
1608.51191861
1608.57413996
1608.6198446
1608.64414881
1608.65415649
1608.65219732
1608.64151806
1608.62311185
1608.59855529
1608.5681657
1608.53277964
1608.49237078
1608.44749244
1608.39792842
1608.34425063
1608.28615757
1608.22440065
1608.15860565
1608.08983345
1608.01767475
1607.9434612
1607.86682412
1607.78928264
1607.71049594
1607.63198322
1607.55339532
1607.47608937
1607.39975115
1607.32554406
1607.25319394
1607.18358245
1607.11644924
1607.05242125
1606.99125872
1606.9333895
1606.87856969
1606.82708169
1606.77868925
1606.73361813
1606.69167662
1606.65311954
1606.61782365
1606.58611803
1606.55793705
1606.53373868
1606.51355436
1606.4980125
1606.48730123
1606.48233082
1606.48333559
1606.49132166
1606.50664733
1606.53008938
1606.56129619
1606.60054826
1606.64749637
1606.70289644
1606.76711633
1606.84070689
1606.92315855
1607.01399289
1607.11248596
1607.21874184
1607.33315408
1607.45667591
1607.58997739
1607.73367626
1607.88789318
1608.05276179
1608.22841758
1608.41531244
1608.61389562
1608.8250522
1609.04869997
1609.28550541
1609.5342795
1609.79569271
1610.06770572
1610.35152536
1610.64402483
1610.94590897
1611.25694384
1611.58232743
1611.93062817
1612.31919822
1612.75579007
1613.23379287
1613.74670343
1614.3070374
1614.92664185
1615.6082465
1616.34932423
1617.14732356
1617.99423471
1618.88103718
1619.79174321
1620.72856653
1621.70694314
1622.74067877
1623.81824684
1624.93610855
1626.08715987
1627.28548614
1628.55031804
1629.90257323
1631.31324931
1632.73546504
1634.11751307
1635.46218427
1636.78200816
1638.10873743