/*--------------------------------*- C++ -*----------------------------------*\
| =========                 |                                                 |
| \\      /  F ield         | OpenFOAM: The Open Source CFD Toolbox           |
|  \\    /   O peration     | Version:  v1806                                 |
|   \\  /    A nd           | Web:      www.OpenFOAM.com                      |
|    \\/     M anipulation  |                                                 |
\*---------------------------------------------------------------------------*/
FoamFile
{
    version     2.0;
    format      ascii;
    class       volScalarField;
    location    "19";
    object      p;
}
// * * * * * * * * * * * * * * * * * * * * * * * * * * * * * * * * * * * * * //

dimensions      [0 2 -2 0 0 0 0];


internalField   nonuniform List<scalar> 
12225
(
-3.91218247423
-4.66355332629
-4.90713618299
-4.97480447212
-5.03146389561
-5.08351659029
-5.11758136565
-5.13211084854
-5.1296006598
-5.11071155925
-5.07416856035
-5.01792004065
-4.93951106969
-4.83566645675
-4.70150972951
-4.52947393405
-4.30589264798
-4.00868587725
-4.08585648874
-4.67415261285
-4.91236413729
-4.98385921076
-5.03886806752
-5.08920730052
-5.12254808722
-5.13680099478
-5.13417053716
-5.1153083985
-5.07898946151
-5.02320250429
-4.94554536232
-4.84286097869
-4.71055017297
-4.54182055321
-4.32625503093
-4.07441285871
-4.228401274
-4.66092656651
-4.89931326167
-4.98357883188
-5.04033906685
-5.09058576576
-5.12473934926
-5.14011443066
-5.13855411922
-5.12084776039
-5.08600736913
-5.03222969472
-4.95735831123
-4.85867395137
-4.73248706833
-4.57409123882
-4.37844005739
-4.15907710806
-4.35279798285
-4.67309084298
-4.90304144874
-4.99672486416
-5.0533321795
-5.10157016141
-5.13521619884
-5.15091663557
-5.14995547645
-5.13322005462
-5.09999429706
-5.04872632169
-4.97757329405
-4.88438647888
-4.76659823448
-4.62165563941
-4.44849450918
-4.25916758241
-4.46341076159
-4.70000702653
-4.90884774274
-5.00653441012
-5.06287099821
-5.10928318402
-5.14268366765
-5.15925059782
-5.15962175734
-5.14471345698
-5.11409231921
-5.06650513562
-5.00048915287
-4.91454432485
-4.80725021271
-4.6779168089
-4.52811640125
-4.36833443215
-4.56241393073
-4.73712351236
-4.92028638446
-5.0194264506
-5.07682832235
-5.12225653439
-5.15561327
-5.17325132578
-5.17530179734
-5.1626731373
-5.13522310611
-5.09204993968
-5.03212894363
-4.95463320455
-4.85919788313
-4.74659986207
-4.62002821236
-4.48891466219
-4.65183979303
-4.78132901136
-4.93794474991
-5.03507308179
-5.09301105187
-5.13722134751
-5.17010183287
-5.18865165976
-5.19258592315
-5.18269137833
-5.15905697443
-5.12114189707
-5.06837709738
-5.00057298881
-4.91825125803
-4.82323679598
-4.71955474198
-4.61559003042
-4.73347435405
-4.83018467574
-4.96169048913
-5.05399058736
-5.11194590439
-5.15534846493
-5.18809911935
-5.2079949821
-5.21443934391
-5.20803631397
-5.18906724863
-5.15736489136
-5.112820397
-5.05581444377
-4.9875558084
-4.91053359327
-4.82906457408
-4.75044492722
-4.80882774759
-4.88191919178
-4.99106300416
-5.07662405798
-5.13389321387
-5.17674629612
-5.20956442868
-5.23095429231
-5.24019582196
-5.23773939883
-5.22403428577
-5.1992708813
-5.1637637002
-5.11835820066
-5.06473526303
-5.00571687239
-4.94553123911
-4.89030988747
-4.87916141293
-4.9353040526
-5.02539949614
-5.10323898339
-5.15911885164
-5.20162436252
-5.23482430347
-5.2580163483
-5.27051527814
-5.27265439098
-5.26499852769
-5.24803225423
-5.22241742818
-5.18933793277
-5.15074795377
-5.10954602431
-5.06965087206
-5.03608364782
-4.94550154302
-4.98950477959
-5.06392843172
-5.13388904818
-5.18785294552
-5.23018713643
-5.26414538437
-5.28950276283
-5.30570052659
-5.31299772294
-5.31202910409
-5.30350383474
-5.28834855753
-5.26797007837
-5.24443157543
-5.22052696103
-5.19973756587
-5.18603635635
-5.00346938807
-5.03956181422
-5.10247349839
-5.1655918194
-5.21752787319
-5.25985932042
-5.29488311606
-5.32260068617
-5.34260199119
-5.3551188412
-5.36081852768
-5.36054755055
-5.35539261444
-5.34686052459
-5.33699324266
-5.32837629655
-5.32405547413
-5.32719445295
-5.05892959271
-5.08919040054
-5.14288784286
-5.19988763669
-5.24979445302
-5.29227416507
-5.32867570812
-5.35906987713
-5.38318576379
-5.40125138457
-5.41394430845
-5.42218824291
-5.42715841124
-5.43038150495
-5.43379792168
-5.43972656606
-5.45076133758
-5.46929499748
-5.11993597705
-5.14546916438
-5.19120992179
-5.2424285412
-5.29029109637
-5.33320907473
-5.37161497392
-5.40551915716
-5.43476311454
-5.45958463887
-5.48064459947
-5.49888880685
-5.51550235405
-5.53194840692
-5.54997413102
-5.57155174908
-5.59878656717
-5.63332710344
-5.18642349925
-5.20842074771
-5.2478844375
-5.29424674734
-5.3404599881
-5.38434314036
-5.42558478251
-5.46403638894
-5.49959685407
-5.53250121009
-5.56336291444
-5.59307148829
-5.62273353058
-5.65364943298
-5.68729085065
-5.72522423783
-5.76905249914
-5.81972842806
-5.25794161813
-5.2776052492
-5.31278145375
-5.35583822934
-5.40138369801
-5.44714622391
-5.49232096646
-5.5365644369
-5.57976135238
-5.6221102132
-5.66412582115
-5.70656701141
-5.75036305277
-5.79656927034
-5.84631352288
-5.90073806748
-5.96095588229
-6.0272997821
-5.33314087559
-5.35165358956
-5.38475734841
-5.4266469742
-5.47316794384
-5.52221101653
-5.57271703143
-5.62416766051
-5.67637143219
-5.72943355471
-5.78371732475
-5.83977794139
-5.89829460613
-5.96001271973
-6.02569469542
-6.09606098692
-6.17179865769
-6.25270016674
-5.40866572099
-5.42719969741
-5.46063491292
-5.50400469553
-5.55377536077
-5.60799006223
-5.66548810441
-5.72562065656
-5.78807874819
-5.85282132036
-5.92001471579
-5.98996725914
-6.06307066627
-6.13974454059
-6.22039819103
-6.30538374465
-6.39503717319
-6.48873662931
-5.47693256151
-5.49691407958
-5.533621779
-5.58185652915
-5.63789716178
-5.69974193977
-5.76620327463
-5.83655668638
-5.91035941733
-5.9873977617
-6.06762718891
-6.15111193271
-6.23796689639
-6.32831488492
-6.42225840317
-6.51984847136
-6.62114244463
-6.7251956158
-5.51098213022
-5.53380670062
-5.57662448337
-5.63253362321
-5.69662738625
-5.76671643651
-5.84178414506
-5.92115780721
-6.00431808969
-6.09093140848
-6.18083552595
-6.27395186909
-6.3702368004
-6.46963752594
-6.57209234759
-6.67749728624
-6.78578391604
-6.89587287216
-5.51598814649
-5.54249163001
-5.59298225452
-5.65753751489
-5.72947786505
-5.80670474275
-5.88869787809
-5.97495969328
-6.06494009421
-6.15827876647
-6.25479397321
-6.35436760212
-6.45687533088
-6.56217713408
-6.6701205523
-6.78053726487
-6.89330273855
-7.00729787698
-5.50005666155
-5.53223851449
-5.59345722548
-5.66839487598
-5.74830378593
-5.83204542455
-5.9200464961
-6.01197619618
-6.10723737426
-6.20550912789
-6.30667481092
-6.41063012029
-6.51721626282
-6.62624635
-6.73751858471
-6.85081586089
-6.96596179334
-7.0817721207
-5.46650895605
-5.50760334816
-5.58362819495
-5.67034272945
-5.75768745233
-5.84713891293
-5.94043159521
-6.03724500513
-6.13692350478
-6.23926679565
-6.34426350655
-6.45181539352
-6.56172972085
-6.67378683543
-6.78777293602
-6.90346031963
-7.02068783212
-7.13830365859
-5.41733316623
-5.47280617266
-5.56877892355
-5.66771364322
-5.76112530991
-5.85519362538
-5.95275523785
-6.05314184723
-6.15573482491
-6.26063308558
-6.36800027177
-6.4777560335
-6.58967003271
-6.7034928315
-6.81898273116
-6.93587300296
-7.05392607782
-7.17189457475
-5.35340629368
-5.43220562732
-5.55365569869
-5.66359674486
-5.76139318692
-5.85975943564
-5.9616345492
-6.06552707245
-6.1709161105
-6.27825095056
-6.38784926973
-6.49964421347
-6.61339763777
-6.72886206546
-6.84579098591
-6.96388826623
-7.08287536829
-7.2014987679
-5.27440131961
-5.39081099731
-5.54193319978
-5.65894060745
-5.75814536287
-5.85904715394
-5.96347268185
-6.06918850829
-6.17602080994
-6.28472401475
-6.39564649229
-6.50867885937
-6.62358111469
-6.74012906219
-6.85807549084
-6.97705911211
-7.09661466021
-7.21512191493
-5.17939557904
-5.35490007144
-5.53674027487
-5.65744818267
-5.75872590926
-5.86327754669
-5.97035487816
-6.07757670094
-6.18552349427
-6.29526039252
-6.40710809698
-6.52092117434
-6.63650223398
-6.7537009488
-6.87232732022
-6.99202305926
-7.11221138413
-7.2309229185
-5.06647363064
-5.33086875027
-5.53198844304
-5.64689978852
-5.74847147001
-5.8563133407
-5.96563892567
-6.07420265427
-6.1833569839
-6.29432974935
-6.40732083492
-6.52211763862
-6.63855790001
-6.75657415432
-6.87606602433
-6.99676012112
-7.11804447659
-7.23738377971
-4.93439695788
-5.33838242641
-5.55070878564
-5.65402920761
-5.7533166254
-5.86184182299
-5.97114280692
-6.07929449457
-6.18823610996
-6.2992411831
-6.41236670318
-6.52731665273
-6.64393204959
-6.76219599059
-6.88210005816
-7.00358295345
-7.12650657475
-7.24939994624
-4.76352942288
-5.32029781404
-5.54546758707
-5.64560201912
-5.74653736828
-5.85730749073
-5.96786578574
-6.07672398726
-6.18622631307
-6.29773220518
-6.41127800024
-6.5265620113
-6.64345037229
-6.76196368719
-6.8821450207
-7.00408319461
-7.12806787838
-7.25841323177
-2.82430052583
-2.83066757167
-2.83860460698
-2.84223826607
-2.844604488
-2.85486964686
-2.88121938259
-2.92566589269
-2.99068771316
-3.07855009184
-3.19120906782
-3.3303027544
-3.49717178337
-3.69286342409
-3.91816418209
-4.17360638724
-4.45950735777
-4.77597200596
-5.12293647148
-5.50016259229
-5.90728164882
-6.34377953777
-6.80903932274
-7.30231497605
-7.82277000874
-8.36944170999
-8.94127295428
-9.53706902556
-10.1555245709
-10.7951735379
-11.4544110241
-12.1314409939
-12.8242988424
-13.5307992979
-14.2485618784
-14.9749662998
-15.7071895841
-16.4421721643
-17.1766712414
-17.9072449264
-18.6303234704
-19.3422110657
-20.0391727147
-20.7174521161
-21.3733694465
-22.0033472334
-22.6040053598
-23.1721795173
-23.704996008
-24.1998678678
-24.6545374965
-25.0670454595
-25.4357478653
-25.7592759803
-26.0365535277
-26.2667647871
-26.4493658548
-26.5840220801
-26.6705832207
-26.7090178885
-26.6994731387
-26.64233406
-26.5383795944
-26.3888820337
-26.1956664648
-25.9610876468
-25.6881014995
-25.3800144388
-25.0403508419
-24.6726739252
-24.2805291176
-23.8672322391
-23.4357956589
-22.9886858862
-22.5277506172
-22.0539656118
-21.5673821921
-21.0668732265
-20.5500736665
-20.0130765261
-19.4503351991
-18.8542818916
-18.2151913238
-17.5208316144
-16.7566757826
-15.9061899873
-14.9519427258
-13.8768464723
-12.6662002642
-11.3097173283
-9.80365496237
-8.15247005883
-6.36952238223
-4.47691043871
-2.50433011291
-0.487132906378
1.5362405632
3.52713545846
5.44944689053
7.27180420169
8.96909655155
10.523294947
11.9234913001
13.1649838999
14.2479511467
15.176478478
15.9572999701
16.6003848825
17.1177426091
17.5258248998
17.8400430574
18.0837771358
18.2622304562
18.3823195823
18.4607797258
18.504152312
18.5081409668
18.4748946334
18.4111156362
18.3239371191
18.219680556
18.1036825593
17.9802640643
17.8529406611
17.7244500072
17.5969580161
17.4720484849
17.3509338109
17.2344247753
17.1231118377
17.0173044682
16.9171904788
16.8227758243
16.7340487442
16.650878741
16.5731175416
16.5005840666
16.4330740493
16.3702897319
16.3119519052
16.2577322855
16.207290748
16.1602760041
16.1163590341
16.075231403
16.0366091474
16.0002234372
15.9658276839
15.9331895834
15.9020965726
15.8723524204
15.8437789569
15.8162086515
15.7894894111
15.7634792857
15.7380517157
15.7130912111
15.6884928941
15.6641555268
15.6399933735
15.6159328305
15.5919068951
15.567847724
15.5437070804
15.5194459299
15.4950365488
15.4704556831
15.4456996718
15.4207855048
15.3957505283
15.3706521376
15.3455919228
15.3207259591
15.2962820834
15.27257628
15.2500843967
15.2295389404
15.2120098116
15.2002501463
15.1887457567
-2.80075138531
-2.8082155252
-2.82308354305
-2.84275186567
-2.85429962177
-2.86146891854
-2.88361818388
-2.92585140042
-2.99013245689
-3.07828752311
-3.19201486557
-3.33277642858
-3.50177725699
-3.69995718148
-3.92801093055
-4.18639554793
-4.4753619877
-4.79496341542
-5.14509020116
-5.52547337705
-5.93571850639
-6.37530040525
-6.84359354955
-7.33985859958
-7.8632655021
-8.41287090065
-8.98763452081
-9.58638967148
-10.2078522378
-10.8505848318
-11.5130009232
-12.1933273649
-12.8896067437
-13.5996612464
-14.3210991581
-15.0512864526
-15.7873633474
-16.526230096
-17.2645810168
-17.9989107195
-18.725567586
-19.4407792162
-20.1407225308
-20.8215676788
-21.4795617365
-22.1110802251
-22.7127057498
-23.2812688464
-23.813903138
-24.3080565695
-24.7615145847
-25.1723848584
-25.539094776
-25.860355996
-26.1351635779
-26.3627875157
-26.542764693
-26.6748327752
-26.7588428004
-26.7946956191
-26.7824717852
-26.7225408654
-26.6154155635
-26.4619368976
-26.2635847968
-26.0230492434
-25.7439226121
-25.4297862577
-25.084345343
-24.7113297164
-24.3144119297
-23.8970568471
-23.4624009109
-23.0130699385
-22.5510504582
-22.0775055865
-21.5926486957
-21.0955576682
-20.5840511583
-20.0544624905
-19.5014319635
-18.9175836199
-18.2932681297
-17.6162607183
-16.871770576
-16.0427716302
-15.1109748791
-14.0582403844
-12.8685930317
-11.5304908969
-10.0392029824
-8.39853372375
-6.62161342301
-4.73067373195
-2.75580213425
-0.732788501496
1.29960026787
3.30253389144
5.23978645072
7.07975746397
8.79657316489
10.3708304748
11.7895446865
13.0456623226
14.137705078
15.0699621979
15.850632526
16.493360238
17.0132440341
17.4318304548
17.7574106796
18.0063532044
18.1958650862
18.3279695025
18.411389034
18.4551267079
18.4604270763
18.4304625007
18.3709740616
18.2883074462
18.1883856552
18.0763357722
17.9564354398
17.8321778863
17.7063575155
17.5811547359
17.4582250521
17.3387992094
17.2237586236
17.113710821
17.0090336231
16.9099402987
16.8164994554
16.7286656453
16.646307414
16.5692743962
16.4973686597
16.4303395268
16.3679287052
16.3098947595
16.2559380676
16.2057228037
16.1589056929
16.1151613702
16.0741865647
16.0356980105
15.9994308024
15.965138187
15.9325918227
15.9015805683
15.8719104115
15.8434018838
15.8158892943
15.7892217999
15.7632594609
15.7378745855
15.7129501003
15.6883825869
15.6640765397
15.6399441079
15.6159068774
15.5918971972
15.5678534618
15.5437267794
15.5194764802
15.4950744877
15.4705001134
15.4457461481
15.4208234986
15.3957714136
15.3706523178
15.34556144
15.3206445437
15.2961185889
15.2722916866
15.2496186447
15.2287881671
15.2107476677
15.1981011326
15.1815472081
-2.74989576965
-2.76576330076
-2.7859790883
-2.81209258178
-2.84368221421
-2.88095116061
-2.9291617734
-2.99285634328
-3.07569104418
-3.180493104
-3.30944757237
-3.46425824215
-3.64625130034
-3.85642882168
-4.09552025243
-4.36400772801
-4.66216595525
-4.99007668402
-5.34766500273
-5.73470522009
-6.1508532384
-6.59564366584
-7.06851646037
-7.56880472524
-8.09575442199
-8.64850270408
-9.22608949172
-9.82742845482
-10.4513108232
-11.0963700223
-11.761079825
-12.4437165986
-13.1423556223
-13.8548355796
-14.5787588499
-15.3114644798
-16.0500395218
-16.7913086784
-17.5318661612
-18.2680903269
-18.9961983913
-19.71228254
-20.4123833932
-21.0925485352
-21.7489239766
-22.3778205777
-22.9757957142
-23.539701071
-24.0667340476
-24.5544465875
-25.0007572115
-25.4039325154
-25.7625533393
-26.0754818586
-26.3418586396
-26.5610826179
-26.7327887638
-26.8566881191
-26.9325019294
-26.9599836644
-26.9389710288
-26.8693324416
-26.7515921663
-26.5866358544
-26.3765870219
-26.1248774413
-25.834844605
-25.510118417
-25.1545359405
-24.7720087711
-24.366404858
-23.941409471
-23.500391067
-23.0462404173
-22.5812249584
-22.106827815
-21.6235923572
-21.1309497461
-20.6270744471
-20.1086816475
-19.5707574794
-19.0062057696
-18.405492711
-17.7562940518
-17.0433303825
-16.248626406
-15.3524252279
-14.3347194035
-13.177379243
-11.8667986867
-10.3965636748
-8.76947400555
-6.99832380523
-5.10555227161
-3.1218964473
-1.08400421312
0.968364838926
2.99523723607
4.95888431014
6.82594605654
8.5682081173
10.163971065
11.5986455891
12.8643411148
13.96033019
14.8944166406
15.6786344385
16.3315463304
16.8649217443
17.2941759393
17.637415479
17.9037495708
18.1025242787
18.2428241427
18.3333113384
18.3812264193
18.3904962581
18.3653623336
18.3113092885
18.2342120297
18.1396765061
18.0326371664
17.9173128018
17.7971710413
17.6750415567
17.5531226047
17.4331283406
17.3163153601
17.2036172034
17.0956586251
16.9928644106
16.8954506612
16.8035168987
16.7170319953
16.6359167043
16.5600098635
16.489131725
16.4230618594
16.3615141972
16.3042187945
16.2509171384
16.2012851096
16.1549882026
16.1117098468
16.0711537993
16.0330431633
15.997116743
15.9631327823
15.930866414
15.9001097009
15.8706693726
15.8423696682
15.8150453553
15.7885467296
15.7627356998
15.7374881465
15.7126892519
15.6882338679
15.664025677
15.6399798271
15.6160185755
15.5920761358
15.5680910475
15.5440130121
15.5198004083
15.4954181082
15.4708423223
15.4460708255
15.4211156695
15.3960029656
15.3707851959
15.3455516592
15.3204308004
15.2956097189
15.2713513306
15.2480259348
15.2261576555
15.2063521895
15.190003969
15.1658257914
-2.72710460973
-2.74871629071
-2.78134360245
-2.82267514694
-2.8735093488
-2.93475017165
-3.00841419026
-3.09705540825
-3.20340497891
-3.32996421369
-3.47888137357
-3.6519273271
-3.8505207657
-4.07575480702
-4.32844260432
-4.60914386176
-4.91820841578
-5.25579414441
-5.62190547302
-6.01640164687
-6.43902957093
-6.88942124272
-7.36711989353
-7.87156725356
-8.40212103478
-8.95803227409
-9.53845424951
-10.1424107969
-10.7687968722
-11.4163400166
-12.0835944571
-12.768899337
-13.4703706688
-14.185861987
-14.9129609316
-15.6489593474
-16.390862204
-17.1353777006
-17.8789513429
-18.6177870197
-19.3479099656
-20.0652137191
-20.7655452567
-21.444779933
-22.098931091
-22.724233023
-23.3172316373
-23.8748345973
-24.3943586579
-24.8735314176
-25.3104872685
-25.7037279024
-26.052070688
-26.3545865317
-26.610600936
-26.8196792486
-26.9814824584
-27.0957131947
-27.161953586
-27.17966675
-27.1482960498
-27.0673499088
-26.9369005296
-26.7582329266
-26.534307621
-26.2686874115
-25.9648098325
-25.626504465
-25.2578190784
-24.8629061102
-24.4459013919
-24.010795375
-23.5613064922
-23.1007290158
-22.6317836159
-22.1564626772
-21.6758572914
-21.1899564471
-20.6974651915
-20.1955934917
-19.6797479261
-19.1431217523
-18.5762609793
-17.9666208217
-17.2982731612
-16.5520525403
-15.7063917116
-14.7388581035
-13.6284097672
-12.3582842934
-10.9192662823
-9.3121343455
-7.54861703969
-5.65100230418
-3.65071532053
-1.58611270215
0.500400647934
2.56547599337
4.56726268472
6.46898325351
8.2395988078
9.85558039299
11.3037671365
12.5789072846
13.6850780724
14.6343909965
15.4389746035
16.1103812582
16.6653331184
17.1190517782
17.4797274324
17.7595144198
17.969834666
18.1201401134
18.2188774351
18.273223569
18.2885734822
18.270020366
18.2230352278
18.1532015321
18.0658178866
17.9656196626
17.8566987901
17.7424815477
17.6257734588
17.5087958451
17.3932803504
17.2805269907
17.1714993838
17.0668644568
16.9670757887
16.872392641
16.782934379
16.698698837
16.6196236282
16.5455756777
16.4763839288
16.4118349281
16.3516637458
16.2956009798
16.243381494
16.1946955157
16.1492288071
16.1066818754
16.0667729624
16.0292356128
15.9938190696
15.9602884254
15.9284255166
15.8980292462
15.8689100389
15.8408953041
15.8138257749
15.7875564449
15.7619535824
15.7368917798
15.7122573418
15.687948745
15.6638725443
15.6399439897
15.6160856959
15.592229028
15.5683142858
15.5442865956
15.5201019057
15.4957311853
15.4711555016
15.4463614462
15.4213480513
15.3961402663
15.370782184
15.3453413212
15.3199148924
15.2946394593
15.2697054417
15.2453588936
15.2218746648
15.1993636226
15.1780222206
15.1459991457
-2.79127815615
-2.81734030406
-2.85701554677
-2.90938440764
-2.9746474757
-3.05337998258
-3.1468774092
-3.25677051271
-3.38484929125
-3.53287654646
-3.70249026833
-3.89513088276
-4.11201635699
-4.35412800131
-4.62222854201
-4.91687020183
-5.23842703542
-5.58710553407
-5.96297879854
-6.36599120991
-6.79598867606
-7.25271455323
-7.73583293644
-8.24491397317
-8.77944915911
-9.33882590972
-9.92233334852
-10.5291273406
-11.1582272436
-11.8084729554
-12.478514485
-13.166764639
-13.8713860188
-14.5902460927
-15.3209092082
-16.0606023985
-16.8062220111
-17.5543228747
-18.3011557524
-19.0426957961
-19.7747176109
-20.492856889
-21.1927135575
-21.8699479081
-22.5204146147
-23.1402666773
-23.7260540632
-24.274776052
-24.7839242438
-25.2514721672
-25.675860384
-26.055906707
-26.390739678
-26.6797299079
-26.9224444078
-27.1186095325
-27.2679495395
-27.3700325301
-27.4242721272
-27.4298267092
-27.3852505759
-27.2900327631
-27.1443157848
-26.9498673178
-26.7102646668
-26.4286282944
-26.1085056934
-25.7539048378
-25.369141187
-24.9587039381
-24.5271140955
-24.0787892472
-23.6179279473
-23.148370692
-22.6734460721
-22.1958075781
-21.7172355644
-21.2383683259
-20.7584474633
-20.2751086599
-19.7840951683
-19.2788748479
-18.7502052343
-18.1855920918
-17.5688552371
-16.8800546334
-16.0960457667
-15.1918565548
-14.1427732301
-12.9274046677
-11.5317018577
-9.95276902756
-8.20056486842
-6.29744285605
-4.27655945358
-2.17982396968
-0.0544692735098
2.05103017404
4.08947299694
6.02106687896
7.81482707679
9.44780641897
10.9128893328
12.2075403309
13.3398073583
14.3148757137
15.1443682761
15.8464154218
16.4274783977
16.9004954338
17.2786459608
17.5741269081
17.79806622
17.9602516028
18.0693037561
18.1326908132
18.1566197565
18.1467806408
18.1087213804
18.0478802048
17.9693131367
17.8775960506
17.7766794161
17.6699453242
17.5601482769
17.4495336183
17.3398300271
17.2323910472
17.1281939932
17.0279636169
16.9321673822
16.8411207377
16.7549572962
16.6737206073
16.5973559327
16.5257775644
16.4588310149
16.3963033971
16.3379614884
16.2835637929
16.2328197379
16.1854349407
16.1411168249
16.0995867837
16.0605804494
16.0238454343
15.9891434999
15.9562515243
15.9249593338
15.8950720726
15.8664100175
15.8388060443
15.8121072009
15.7861692217
15.7608597268
15.736060029
15.7116610073
15.6875621077
15.6636703105
15.6399010799
15.6161788625
15.5924366268
15.5686125296
15.5446551452
15.5205270968
15.4961965991
15.4716296185
15.4468048122
15.4217217628
15.3963949072
15.3708471751
15.3451178751
15.3192658652
15.2933771451
15.2675489545
15.2418741729
15.2163649186
15.1906384236
15.1639679264
15.1243285356
-2.95009759741
-2.97564527938
-3.01686603159
-3.07437991193
-3.14811207987
-3.23830421652
-3.34568283572
-3.47123259184
-3.61607880852
-3.78137413838
-3.96823555503
-4.17768501635
-4.41062344611
-4.66780514747
-4.94984244677
-5.25719964892
-5.59021406578
-5.94909664413
-6.33395825992
-6.74480853136
-7.18158085066
-7.64412382426
-8.13222110077
-8.64557341639
-9.18381001177
-9.74646017462
-10.3329553519
-10.9425899599
-11.5745138491
-12.2276840969
-12.9008492647
-13.5924955537
-14.3008275626
-15.0237161466
-15.7586848128
-16.50286975
-17.2530231245
-18.0055008452
-18.7563034048
-19.5011129864
-20.2353847987
-20.9544293795
-21.6535406692
-22.3281196878
-22.9738380249
-23.586767702
-24.1634947977
-24.7011737896
-25.1975697751
-25.6510351582
-26.0604495316
-26.4251086513
-26.7445715875
-27.0185700334
-27.2469806138
-27.429584077
-27.5661561218
-27.6562096092
-27.6987937631
-27.6923874324
-27.6354437771
-27.5264222983
-27.3654873157
-27.1557089537
-26.9001748148
-26.6017241889
-26.2641478623
-25.8917968344
-25.4894233125
-25.062002486
-24.6145603278
-24.152025537
-23.6791242524
-23.2002603366
-22.719341546
-22.2395804931
-21.7632788611
-21.2915043431
-20.8238044029
-20.358077581
-19.8904019054
-19.4148279685
-18.9229821942
-18.4033674335
-17.840509779
-17.2143810022
-16.5004190865
-15.6705871257
-14.6952377201
-13.5462795328
-12.2026334574
-10.6564740839
-8.91655141694
-7.00722868987
-4.96525551621
-2.83778060843
-0.678054287854
1.46101307659
3.52816184856
5.48328854248
7.30039756593
8.95735266097
10.4529485134
11.7789741276
12.9395146818
13.9499782964
14.8131303548
15.5400250559
16.1438499797
16.6378036181
17.034887279
17.3473442406
17.5864200075
17.7621607111
17.8834634285
17.9581044609
17.9928262068
17.9936978034
17.9663945139
17.916253879
17.848185244
17.7665944692
17.6753294685
17.5776776778
17.4763649243
17.373609354
17.2711618227
17.1703858661
17.0723010481
16.9776576487
16.8869677849
16.8005704664
16.7186475298
16.6412708972
16.5684246281
16.5000521659
16.4360244484
16.3761277584
16.3201737954
16.2679387903
16.2191191617
16.1734371442
16.1306260478
16.0904312258
16.0526090952
16.0169268284
15.9831618565
15.9511030799
15.9205542432
15.8913308676
15.8632619295
15.8361869525
15.8099561605
15.7844323541
15.7594930426
15.7350243954
15.7109192208
15.6870784681
15.6634120611
15.6398393098
15.6162878942
15.5926893787
15.5689847241
15.5451275914
15.5210761987
15.4967844466
15.4722131615
15.4473440452
15.4221685038
15.3966828036
15.3708883506
15.3447978642
15.3184334681
15.2918129933
15.2649376597
15.2377487407
15.2099864632
15.1808353182
15.1489161222
15.1021713809
-3.17296153661
-3.19657703583
-3.23740771963
-3.29682800673
-3.37478462329
-3.47154012299
-3.58755116769
-3.7234101648
-3.8798017941
-4.05744001784
-4.25703275641
-4.47924038897
-4.72466097596
-4.99380705084
-5.2871092549
-5.60490522602
-5.94745503643
-6.31493518019
-6.70745918066
-7.12507029115
-7.56776149086
-8.03546273419
-8.52805607108
-9.04535389623
-9.58710675182
-10.1529708182
-10.7425059336
-11.3551319972
-11.9901165969
-12.6465209826
-13.3231784309
-14.0186329491
-14.7311129583
-15.4584708433
-16.1981623338
-16.9471998722
-17.7021524269
-18.4591313026
-19.2138350895
-19.9615971341
-20.6974976726
-21.4164745428
-22.113484662
-22.7836606553
-23.4225098147
-24.0260756917
-24.5910778098
-25.1149696705
-25.595961552
-26.032956876
-26.4254031264
-26.7731118311
-27.0760864849
-27.3343969161
-27.5481483882
-27.7173911336
-27.8418003122
-27.9206908798
-27.9529873857
-27.9364541938
-27.8686248418
-27.747659568
-27.574243919
-27.3510439277
-27.0803725116
-26.7654648126
-26.4105744398
-26.0205836782
-25.6007853953
-25.1566879253
-24.6938374016
-24.2176500794
-23.7332881862
-23.2455243265
-22.7585358006
-22.2757197492
-21.7995618198
-21.3313926681
-20.8711802567
-20.4174356462
-19.9672151658
-19.5160515373
-19.0574523487
-18.5817503007
-18.0745010537
-17.5153130908
-16.8773154569
-16.1283247119
-15.2328265085
-14.1554428145
-12.8674259839
-11.3563451862
-9.631379951
-7.72104452587
-5.66724361681
-3.52173298903
-1.34219272619
0.817701945537
2.90645556842
4.88493161871
6.73281449821
8.42238328614
9.94726614108
11.3108652418
12.5093253518
13.5485843977
14.4384620771
15.1904594145
15.8175050322
16.3328349336
16.749522027
17.0799233403
17.3354585999
17.5263798961
17.6618381051
17.7498636205
17.7975455524
17.8111852018
17.7965593172
17.7589279064
17.7030977812
17.633321106
17.5533544735
17.4663790333
17.3750911709
17.2816648851
17.1878735598
17.0950762012
17.0043405244
16.9164297364
16.8319144211
16.7511486695
16.6743699524
16.6016809447
16.5331137066
16.4686449813
16.4081615142
16.351468135
16.298425994
16.2488062995
16.2023173651
16.1587053807
16.1177323219
16.0791707421
16.0428012438
16.0084111719
15.9757960097
15.9447634851
15.9151300433
15.886723165
15.8593811147
15.8329516959
15.8072948519
15.782285639
15.757806797
15.7337476178
15.7100039312
15.6864819537
15.6630954609
15.6397691569
15.6164302102
15.5930117044
15.5694579989
15.5457226411
15.5217535753
15.4974984265
15.4729235972
15.4480057924
15.4227219362
15.3970510754
15.3709733034
15.3444750661
15.3175292293
15.2900853095
15.2620506817
15.2332075994
15.2030501595
15.1704095735
15.1334758057
15.0803410794
-3.42455261652
-3.44632632411
-3.48651709579
-3.54648611613
-3.62633695767
-3.72651025226
-3.84741332669
-3.98947368721
-4.15313659117
-4.33884219627
-4.54701840729
-4.77805908899
-5.03232326882
-5.31011920788
-5.61171255225
-5.93731535962
-6.28710078535
-6.66119399601
-7.05968941601
-7.48263981139
-7.93007240568
-8.40197210103
-8.89829310508
-9.41893369065
-9.96373993795
-10.5324698504
-11.1247873034
-11.7402140552
-12.3781124663
-13.0376258763
-13.7176506554
-14.4167677831
-15.1332087629
-15.8647867923
-16.6088684502
-17.362320416
-18.1215049804
-18.8822650018
-19.6399724863
-20.3895880108
-21.125795532
-21.8431485584
-22.536272216
-23.2000599806
-23.8299094043
-24.4219236915
-24.9730731465
-25.4812449425
-25.9452144458
-26.3645148919
-26.7392201403
-27.0697091248
-27.3565171169
-27.6002693747
-27.8015734063
-27.9607477363
-28.0773292354
-28.1502935555
-28.178338057
-28.1587269643
-28.0864063329
-27.9582735504
-27.7757267591
-27.5409681695
-27.2564653224
-26.9262118669
-26.5550855292
-26.1485589034
-25.7124602559
-25.252813368
-24.7756351811
-24.2867078097
-23.7913856293
-23.2944247841
-22.7998772185
-22.3110779271
-21.8307198554
-21.3607842187
-20.9023105433
-20.4551071764
-20.0176857178
-19.5872210535
-19.1589370948
-18.7243571951
-18.2690849857
-17.7713581336
-17.2013615783
-16.522925872
-15.6962345346
-14.6815363188
-13.4452783434
-11.9721662966
-10.2722580616
-8.37764313421
-6.33290899082
-4.19069019008
-2.009946909
0.15942024802
2.26755738116
4.26917977494
6.14168182425
7.86543311169
9.42589754497
10.8187441803
12.0452456352
13.1113262865
14.0264654673
14.8022819843
15.4516955176
15.9880507482
16.4244851417
16.7734719109
17.0465288863
17.2540737438
17.4054039547
17.5087468992
17.5713671602
17.5997192908
17.5996025179
17.5762385068
17.5343139328
17.4779806853
17.4108732516
17.3361035205
17.2562981827
17.1736164718
17.0898138378
17.006272998
16.9240745351
16.8440234518
16.7667193188
16.6925633544
16.6218245389
16.5546537604
16.4911302048
16.4312798896
16.3749671544
16.3220747857
16.2724910511
16.2259557528
16.1822207694
16.1410652347
16.1022827074
16.0656738337
16.0310435544
15.9982030261
15.9669707994
15.937172051
15.9086375584
15.88121032
15.854740493
15.8290877407
15.8041254843
15.7797366654
15.7558090649
15.7322374612
15.7089249755
15.6857833712
15.6627324971
15.6396985839
15.6166106941
15.5934065181
15.5700315163
15.5464334268
15.5225564096
15.4983515004
15.473782861
15.4488158087
15.4234141035
15.3975382184
15.3711509226
15.3442013823
15.3166124967
15.2882718919
15.2589878721
15.2283930132
15.1957649956
15.1596813739
15.1180896656
15.0594033668
-3.67254132958
-3.69294173263
-3.73266675196
-3.79266283692
-3.87326151753
-3.97507296491
-4.09853183394
-4.24402258454
-4.41188400382
-4.60241046896
-4.81586437701
-5.05246932433
-5.31242231365
-5.59588533609
-5.9029997042
-6.23387733979
-6.58861699486
-6.96729429461
-7.36997819008
-7.79671751921