/*--------------------------------*- C++ -*----------------------------------*\
| =========                 |                                                 |
| \\      /  F ield         | OpenFOAM: The Open Source CFD Toolbox           |
|  \\    /   O peration     | Version:  v1806                                 |
|   \\  /    A nd           | Web:      www.OpenFOAM.com                      |
|    \\/     M anipulation  |                                                 |
\*---------------------------------------------------------------------------*/
FoamFile
{
    version     2.0;
    format      ascii;
    class       volScalarField;
    location    "19";
    object      pa;
}
// * * * * * * * * * * * * * * * * * * * * * * * * * * * * * * * * * * * * * //

dimensions      [0 2 -2 0 0 0 0];


internalField   nonuniform List<scalar> 
12225
(
-25.4788457822
-26.4169928652
-25.5579388522
-25.6300762826
-25.4308852685
-25.4521188765
-25.4716868276
-25.3759905795
-24.9524202412
-24.0621443821
-22.7232703563
-21.2439465525
-20.1849330324
-19.7528416797
-18.4247393584
-12.3145085441
0.0829717641927
4.01687115378
-6.59991700096
-13.7940540817
-13.870081029
-13.5934910215
-13.2820933085
-12.938433831
-12.4792912099
-11.7622961387
-10.6748752846
-9.18952471545
-7.44360619557
-5.81745171523
-4.77851214364
-4.16697876771
-2.13226407052
4.40020233832
13.818806916
10.5217686924
-30.2438062935
-20.9348072931
-21.1074795033
-21.2346278221
-21.3875223007
-21.4812486101
-21.4185916587
-21.0595771187
-20.3068132285
-19.1670697387
-17.8129798097
-16.6254074372
-15.9647717465
-15.4832454518
-13.3744417229
-7.44573102123
-0.159753998159
-2.02967402185
-10.2633999532
-17.5288784015
-17.453409756
-17.5174430902
-17.5550628989
-17.5783784713
-17.4550624347
-17.0667196777
-16.3394128617
-15.3044767786
-14.1622510594
-13.2832392302
-12.9451708245
-12.7784371345
-11.4353527452
-7.94838562211
-4.97015053524
-8.02905248743
-28.1006728253
-20.5553417773
-19.5905676583
-19.784100457
-19.7594245105
-19.7487530542
-19.5612088795
-19.1194616714
-18.3515339418
-17.2894951286
-16.1046670036
-15.0783975379
-14.3452224175
-13.5236441708
-11.778191375
-9.13477948182
-8.01760190205
-11.0064691599
-12.0491048798
-18.4562370417
-18.7251692843
-18.6818316852
-18.6955975262
-18.67935973
-18.5407658212
-18.2113636648
-17.654029475
-16.9109720545
-16.1227858719
-15.4644770323
-14.9272306554
-14.1279667314
-12.6041026784
-10.8266932534
-10.6009920581
-12.9959224117
-21.9480031122
-19.6348711383
-19.278693036
-19.2554065597
-19.1342281943
-18.9891410228
-18.7151695993
-18.2827483837
-17.6854675873
-16.9883590959
-16.3178495424
-15.7816863372
-15.3064715726
-14.5877556091
-13.4419760068
-12.4252898705
-12.6710477416
-14.5214902947
-17.9150251224
-19.3524537115
-19.205031868
-19.1976905265
-19.0968028127
-18.9579112936
-18.6928527737
-18.2874504003
-17.7518048633
-17.1557953998
-16.6020901059
-16.1491973629
-15.7117276418
-15.0990619561
-14.3132485695
-13.8360688362
-14.2994217596
-15.7483120385
-19.0948052288
-19.3625980598
-19.2260394177
-19.1930640106
-19.0771342616
-18.9203104041
-18.6579387975
-18.2852298001
-17.8218516152
-17.3309007123
-16.8860878728
-16.5105728456
-16.1316683471
-15.6572820983
-15.178371718
-15.0488494623
-15.588519995
-16.7473690376
-19.0297963116
-19.3679277473
-19.2254671197
-19.1825045449
-19.0595582621
-18.8956626215
-18.6451065232
-18.311928286
-17.9209810848
-17.5250417562
-17.173207857
-16.8699458888
-16.5671092255
-16.2403805097
-16.002214233
-16.0839205987
-16.6310703809
-17.5787069041
-19.1354448885
-19.3439227168
-19.2156633147
-19.1615997698
-19.0427283924
-18.8826477493
-18.6551463265
-18.368637379
-18.0495199963
-17.7388701701
-17.4678404352
-17.2349143789
-17.0168300999
-16.8270461968
-16.7647099107
-16.9677330096
-17.4923158786
-18.2812410672
-19.2035345139
-19.3183033576
-19.2102900476
-19.1510289981
-19.0423319888
-18.8942003328
-18.69511975
-18.4550371985
-18.199065103
-17.958403861
-17.7538102815
-17.584611389
-17.4449873515
-17.3615710893
-17.4102189703
-17.6712688801
-18.1622043605
-18.838385943
-19.2341354937
-19.2797254324
-19.2026909396
-19.1422599472
-19.0480588976
-18.9169717798
-18.7496587673
-18.5560337689
-18.3588326852
-18.1812332337
-18.0375878163
-17.9303252884
-17.8640415076
-17.8674467997
-17.9930246894
-18.2844168608
-18.7402695489
-19.3262552763
-19.2561584778
-19.2371640852
-19.1955667816
-19.1398022336
-19.0663343699
-18.9592890063
-18.8304171787
-18.6877745057
-18.5514314038
-18.4377405844
-18.3576803248
-18.3159293603
-18.3222187496
-18.4000821503
-18.581947792
-18.8874777289
-19.3062295735
-19.8124142726
-19.2710753105
-19.200686243
-19.193176462
-19.1515426321
-19.1042182081
-19.0296693366
-18.9443557186
-18.8561081419
-18.7806551376
-18.7305595709
-18.7139553678
-18.7368341782
-18.8083565187
-18.9442437712
-19.162082811
-19.4680407626
-19.8492158079
-20.2857788511
-19.2514200511
-19.1614950882
-19.1933292842
-19.1732362548
-19.1591406847
-19.1225084739
-19.0851860336
-19.0518439885
-19.0362387819
-19.0469611434
-19.0907331016
-19.1723565737
-19.2975471242
-19.475052103
-19.7124291435
-20.0101056331
-20.3551066091
-20.7327663195
-19.2146953957
-19.1307096797
-19.1998920909
-19.2110971899
-19.2345608439
-19.2408505179
-19.2525689423
-19.2730259992
-19.3133734474
-19.3795697634
-19.4762714276
-19.6058187085
-19.7705747246
-19.9738694693
-20.2184422358
-20.5021653285
-20.8138581457
-21.1419961325
-19.2753660532
-19.1704128894
-19.2773420222
-19.3281145254
-19.3931420365
-19.4448310283
-19.5050710081
-19.5765656057
-19.6678286466
-19.7826569429
-19.9232469685
-20.0894526859
-20.2812976411
-20.4988912924
-20.7434930825
-21.0120297765
-21.2961795703
-21.5881840986
-18.6153704644
-18.8218211475
-19.0199020337
-19.1205997836
-19.2227363684
-19.3138054042
-19.4140470877
-19.5265331834
-19.6571900394
-19.8081713626
-19.9793551034
-20.1691910286
-20.3759171529
-20.5983343846
-20.8372619758
-21.0895364927
-21.3467973844
-21.5937121152
-21.0072668759
-20.1589849543
-20.1526281801
-20.2270754598
-20.3427518178
-20.4567102554
-20.5820162271
-20.7204170871
-20.876068569
-21.0487722417
-21.2379720611
-21.4397326922
-21.6524907885
-21.8749105913
-22.107768139
-22.3500864676
-22.5983538572
-22.8645004115
-15.6070552409
-17.7332531315
-18.2578622298
-18.4104519814
-18.5377784285
-18.6671085312
-18.8113176304
-18.9726342906
-19.1511864956
-19.3473857829
-19.5582125172
-19.7807651874
-20.0110291642
-20.2481302548
-20.4926823648
-20.743631341
-20.9897634602
-21.18336616
-26.6199127587
-21.7920559905
-21.1057810357
-21.128514648
-21.2630764232
-21.3974864113
-21.551988308
-21.7144686432
-21.8876888856
-22.0707194843
-22.2613318511
-22.4587782643
-22.6607755243
-22.8672887672
-23.0780597488
-23.2911908248
-23.5045971985
-23.7735758052
-7.7181042901
-16.368321599
-17.9344102322
-18.0549217491
-18.175664898
-18.3174173936
-18.481381807
-18.6610501606
-18.8538919044
-19.0564574585
-19.2688313522
-19.4866114317
-19.7086112462
-19.9330584628
-20.1624951459
-20.3996603929
-20.6413914698
-20.8001365132
-36.961131555
-22.7352968856
-20.4820421413
-20.6057764394
-20.741888122
-20.9161507316
-21.1137203828
-21.3269419086
-21.5540168959
-21.7922409396
-22.0390413813
-22.2925434117
-22.5502880423
-22.812587293
-23.0775965357
-23.3366697783
-23.5750801301
-23.8766396423
4.82107536111
-14.9986098836
-18.2417030644
-17.9748335369
-18.1243598243
-18.2443979921
-18.4096989479
-18.5727734377
-18.735364289
-18.8920501644
-19.0446570435
-19.1964627285
-19.3515976378
-19.5134983336
-19.6859259668
-19.8749780849
-20.0854115758
-20.2000957108
-47.7288321425
-24.4152017625
-20.5656483948
-21.0141085064
-21.1272647246
-21.3715207209
-21.5960687898
-21.8414882067
-22.0890507286
-22.3396223329
-22.5948659625
-22.8609339267
-23.1425364936
-23.4415898218
-23.7528737475
-24.0567092142
-24.3211068627
-24.6655642123
4.11523076636
-15.0389291443
-17.1044484768
-16.8019844335
-17.005185772
-17.1478780385
-17.3426237262
-17.5309343214
-17.7245971865
-17.9144727393
-18.1040891308
-18.2969755037
-18.4923961777
-18.6855430142
-18.8637782371
-19.0153369905
-19.1505108689
-19.1617313401
-40.397072922
-22.2830606828
-21.9074822483
-22.0048041698
-22.2359056492
-22.4163243174
-22.6113469134
-22.8114478199
-23.0141682387
-23.2154128577
-23.416418262
-23.6200317575
-23.8257352399
-24.0336648724
-24.2444024018
-24.4595939431
-24.6850203278
-25.0941655335
-2.61995906142
-13.1383669316
-13.8619439078
-14.059481656
-14.2628100603
-14.4774785969
-14.6928424396
-14.9209581769
-15.1573773342
-15.3999168168
-15.6488638786
-15.9051238605
-16.1674021766
-16.4411145095
-16.7388081121
-17.080175094
-17.5064791765
-17.826805995
-26.4705041084
-27.2023775929
-27.231399592
-27.397028284
-27.3990182168
-27.4316125207
-27.4650055015
-27.5123076075
-27.5735955261
-27.6464521566
-27.7289363314
-27.8158278963
-27.9000015073
-27.9806087931
-28.0675996016
-28.1568919751
-28.1771144076
-28.1319472109
-28.117945956
-28.1334355691
-28.1466362999
-28.1554599836
-28.1539533042
-28.1444142766
-28.1310166242
-28.1208418029
-28.1149991817
-28.1115853126
-28.1050380817
-28.0887602326
-28.0581337066
-28.0096939618
-27.9442937547
-27.8626847663
-27.7692738451
-27.6662330387
-27.5584445736
-27.4473502307
-27.3365854419
-27.2263247596
-27.1188431166
-27.0133826796
-26.9111945662
-26.8111948303
-26.7137907868
-26.6179834906
-26.5238249458
-26.4307255766
-26.3383177076
-26.246514304
-26.1546814961
-26.0632494329
-25.9714637515
-25.8802375598
-25.7888471803
-25.6984315735
-25.6085750151
-25.5204331461
-25.4339350419
-25.3500423618
-25.2691413685
-25.1917475112
-25.1187139894
-25.0498713832
-24.9865177341
-24.9278448709
-24.8752053062
-24.8274356675
-24.7858472009
-24.7490424135
-24.7182170507
-24.6923677867
-24.6719732072
-24.6564092588
-24.64585177
-24.6401101685
-24.6389128056
-24.6424940798
-24.6502652661
-24.6626524704
-24.6786126991
-24.6974854266
-24.7163305943
-24.735248531
-24.7547209927
-24.7753880597
-24.7971358159
-24.8194698232
-24.8419869671
-24.8639306484
-24.8851557167
-24.9049951847
-24.9236389568
-24.9407595234
-24.9567668618
-24.9715853614
-24.9858497459
-24.9994231478
-25.0131221377
-25.0269361442
-25.0420429174
-25.0586838877
-25.0788580968
-25.1032674331
-25.134274084
-25.1727825253
-25.219916388
-25.2762476193
-25.3396095696
-25.4117330948
-25.4936785689
-25.5869470874
-25.6923199361
-25.8121825296
-25.9487805616
-26.10510268
-26.2831197065
-26.4853401158
-26.7125031878
-26.9611568688
-27.2207344124
-27.4756847582
-27.7123071938
-27.912716181
-28.0627758798
-28.1699912059
-28.2661745883
-28.3746082744
-28.5146910425
-28.690668406
-28.86241439
-29.013847785
-29.1410595501
-29.2454886074
-29.3295893926
-29.3963925955
-29.4484962119
-29.4874280497
-29.5149697287
-29.5326466282
-29.5426930098
-29.5463817843
-29.5452248624
-29.5395852876
-29.530722134
-29.51910934
-29.5064119342
-29.4934201643
-29.48219726
-29.4738640306
-29.4705740901
-29.4731176601
-29.4831884968
-29.5012109298
-29.529189876
-29.5671855146
-29.6153772492
-29.6704321049
-29.7303082311
-29.7928053227
-29.8591025418
-29.9294774937
-30.0055319349
-30.0863832448
-30.1727433643
-30.2625006812
-30.3553371791
-30.4473636617
-30.536650019
-30.61682017
-30.6839476891
-30.7285438921
-30.744327946
-30.7178187625
-30.6396599121
-30.4909635961
-30.2580600672
-29.91472789
-29.4415315477
-28.8031643007
-27.9736107247
-26.9070878578
-25.5703491934
-23.9064273233
-21.8751226348
-19.4077379482
-16.4570208214
-12.9446669158
-8.81987744073
-3.99602694134
1.59112148062
8.04517543361
15.4414686111
23.9117575734
33.597923419
44.7036778056
57.373514817
71.6823007344
-28.1638723716
-28.1800104907
-28.1874336992
-28.1892835093
-28.1879964375
-28.187036277
-28.1881042124
-28.1910631109
-28.1937224808
-28.1915249367
-28.1790717284
-28.1516626588
-28.1074180943
-28.0455180094
-27.9681263717
-27.8767637744
-27.7750944168
-27.6648583001
-27.5494858675
-27.4300623789
-27.3092248321
-27.1872760591
-27.066060727
-26.9454865155
-26.8267974305
-26.7097053263
-26.5950418358
-26.4826275205
-26.3730740586
-26.2664970131
-26.1633139962
-26.0639634361
-25.968701528
-25.8783265339
-25.7930317109
-25.7138198256
-25.6409226096
-25.5754654706
-25.5177881874
-25.4689715556
-25.4295293811
-25.4003113449
-25.381992113
-25.3750296394
-25.3801937259
-25.3974056715
-25.4273935741
-25.4695694725
-25.5245138889
-25.5911164656
-25.6696264148
-25.7589558281
-25.8589931109
-25.9686115492
-26.0873379969
-26.2141296834
-26.3482264174
-26.4888878701
-26.6351477074
-26.7864530093
-26.9416606742
-27.1005731943
-27.2628640944
-27.4307996935
-27.6053177938
-27.7839434503
-27.9638705324
-28.1437339231
-28.3221986313
-28.4980579113
-28.6700245731
-28.8367822773
-28.9971980452
-29.1502244114
-29.2950530583
-29.4310673366
-29.558032709
-29.6757872398
-29.7844610606
-29.8841233575
-29.9750877098
-30.0573569306
-30.1311916609
-30.1963192623
-30.2528662801
-30.2999919844
-30.3371317338
-30.362554462
-30.3749713535
-30.3705243068
-30.3472651344
-30.3042020008
-30.2433177472
-30.167747847
-30.0815045161
-29.9893927395
-29.8975955001
-29.8128988963
-29.7410801758
-29.6864943796
-29.651228252
-29.6311441464
-29.6163995295
-29.5961794562
-29.5562096899
-29.4765381596
-29.3504824863
-29.1805923822
-28.9915692279
-28.8268586867
-28.6936324756
-28.5761786039
-28.4977335267
-28.4513607941
-28.4060042127
-28.3609317121
-28.3168927486
-28.2750297662
-28.2354175108
-28.1977046478
-28.161605024
-28.1274465191
-28.0959657115
-28.0677996126
-28.0432306422
-28.0223150897
-28.0051375122
-27.9918324323
-27.9827272033
-27.978182086
-27.9788122672
-27.9851621626
-27.9979101668
-28.0174082012
-28.0441492342
-28.0790826431
-28.12410439
-28.1810142758
-28.2492591953
-28.3259037926
-28.4076692434
-28.493007618
-28.5823894992
-28.6768282565
-28.7770800796
-28.8831138258
-28.9946498108
-29.110475048
-29.229123975
-29.3477783525
-29.4632312935
-29.5704216143
-29.663960343
-29.736010782
-29.778580882
-29.7802477863
-29.729620826
-29.6103037715
-29.4060630059
-29.0935558881
-28.6502905085
-28.0444388671
-27.2463858101
-26.2145128631
-24.9117423851
-23.2862203919
-21.2935676757
-18.8702727348
-15.9637198448
-12.5004463438
-8.42423971526
-3.6509461302
1.89021906619
8.29488777263
15.62968259
24.0074099465
33.5642768755
44.5247875552
57.0006397603
71.1649829596
-28.2279257844
-28.241800663
-28.2392277048
-28.238404163
-28.2528243935
-28.2793281169
-28.3126183874
-28.3509416155
-28.3909621596
-28.426988405
-28.4534139531
-28.466428113
-28.4657189404
-28.4519347233
-28.4278711857
-28.3950821086
-28.3563551802
-28.3125586455
-28.2658032061
-28.2163608209
-28.165795022
-28.1140983575
-28.0624294397
-28.0106379959
-27.9595566038
-27.9089713062
-27.8593795697
-27.8105783928
-27.7628152979
-27.7159594739
-27.6700272196
-27.6249957281
-27.5807148272
-27.5372808104
-27.4944426325
-27.452480762
-27.4111386925
-27.3708034211
-27.331378477
-27.293295176
-27.2566179019
-27.2217197068
-27.1888496003
-27.1581959227
-27.1301474833
-27.104608663
-27.0820467047
-27.0621027967
-27.0451517419
-27.0307290086
-27.0191121827
-27.009714931
-27.0027776059
-26.9978525322
-26.9949019604
-26.9936098175
-26.9938787465
-26.9956404394
-26.9987692694
-27.0033732558
-27.0092884834
-27.0164483904
-27.0233472813
-27.0279684091
-27.0310893621
-27.0346401066
-27.0387355105
-27.0432659598
-27.048503995
-27.0549427293
-27.0631569071
-27.0735777945
-27.0866711349
-27.1026841446
-27.1220322015
-27.1449952279
-27.1719621916
-27.2033042495
-27.2394597324
-27.2808264078
-27.3279081032
-27.381171829
-27.4412016545
-27.5085528512
-27.5838678902
-27.6674149004
-27.7591058023
-27.858305668
-27.9626271864
-28.0686211026
-28.1708280322
-28.2648642328
-28.3479265448
-28.4176929015
-28.4742222976
-28.5182215828
-28.5540922789
-28.5883265919
-28.6286849205
-28.681602184
-28.7540668988
-28.8481129344
-28.9602387065
-29.0848520176
-29.2113196627
-29.3184431295
-29.3659672021
-29.3405272423
-29.293101922
-29.231340378
-29.1031666464
-28.9279653101
-28.7994367352
-28.742232253
-28.7250432102
-28.7280126912
-28.7398391511
-28.7547635918
-28.7689007323
-28.7799612844
-28.7866978062
-28.789401273
-28.7887831338
-28.7860125509
-28.7815647931
-28.776129789
-28.7698182937
-28.7631314443
-28.7560939895
-28.7492384659
-28.7426587209
-28.737081196
-28.7332642463
-28.7329696717
-28.7383252585
-28.7523995132
-28.777432035
-28.8148267742
-28.8629452477
-28.918855807
-28.9794091985
-29.0434248167
-29.1115495102
-29.1849723758
-29.2645534694
-29.3505131285
-29.4426352388
-29.5399373582
-29.6409914911
-29.7431608397
-29.8431980418
-29.936096973
-30.0163104877
-30.0759400284
-30.1067069778
-30.0970078012
-30.0350128026
-29.9040407879
-29.6872587526
-29.3610182042
-28.902139863
-28.2785436629
-27.4597550277
-26.4043083718
-25.074472154
-23.4192507861
-21.393588465
-18.9359920619
-15.9938781669
-12.4957786293
-8.38123104274
-3.5647447248
2.02741062732
8.48750289513
15.8900429522
24.345869294
33.9523375513
44.8284265185
57.0394197254
70.7475584856
-28.2951746019
-28.3568670813
-28.3184988956
-28.2779552534
-28.2766707532
-28.2941811084
-28.3154187608
-28.3401384408
-28.3678706845
-28.3937340076
-28.4122660159
-28.4197071798
-28.4158592196
-28.4012608169
-28.3782181483
-28.3477182939
-28.3117703447
-28.270746398
-28.2261327477
-28.1780499465
-28.1277641454
-28.0754014898
-28.0220838865
-27.9680155317
-27.9141273772
-27.8606269008
-27.8082412398
-27.7571389072
-27.7078350617
-27.6604440364
-27.6152931352
-27.5724403023
-27.5320151218
-27.4940977567
-27.458702237
-27.4259178189
-27.39574159
-27.3683667358
-27.343791055
-27.3222704922
-27.3038933101
-27.2888816395
-27.2774058312
-27.2695705907
-27.2656025453
-27.2654379545
-27.2693001081
-27.2769840318
-27.2887445692
-27.3042134545
-27.3235765405
-27.3465507946
-27.3731992134
-27.4032256333
-27.4366880323
-27.4733598809
-27.5132086228
-27.5561826848
-27.6022327057
-27.6514192987
-27.7036685132
-27.7595813324
-27.8203403435
-27.8863265075
-27.9551872469
-28.0263180464
-28.0992655564
-28.1732630043
-28.2470883149
-28.3195848865
-28.3896271335
-28.4561508108
-28.5182721208
-28.5752872388
-28.6266951942
-28.6722277766
-28.7119216496
-28.7459186643
-28.7745483602
-28.798204186
-28.8173780907
-28.832567789
-28.8443808124
-28.8534500911
-28.86055721
-28.8664564711
-28.8720411551
-28.8779276529
-28.88452817
-28.890096186
-28.8926571712
-28.8901738896
-28.8809190796
-28.8634820785
-28.8366490188
-28.8000276604
-28.7550854471
-28.7058231093
-28.6578393089
-28.6198956304
-28.6033447886
-28.6166547427
-28.6644625929
-28.7536149516
-28.8840820286
-29.0238596901
-29.1274537995
-29.2189154733
-29.3267111043
-29.3673700965
-29.2547480094
-29.0604815381
-28.8977371157
-28.7940119629
-28.7297728228
-28.6865722225
-28.6531440062
-28.6237255067
-28.5951295451
-28.5657452374
-28.5351454923
-28.5040082217
-28.4734005718
-28.444349225
-28.4174494114
-28.3931356068
-28.3715286315
-28.352801026
-28.3369468916
-28.3241768274
-28.3146468037
-28.3091260401
-28.3086647753
-28.315121179
-28.3305906841
-28.3573168053
-28.3962820391
-28.4471173121
-28.5082575446
-28.5768005474
-28.64973903
-28.7261453802
-28.8064194503
-28.8916958015
-28.9824316181
-29.0789049059
-29.1805056881
-29.2864577147
-29.394910173
-29.5035415307
-29.6086171884
-29.7056401095
-29.788475407
-29.8499713091
-29.881169177
-29.8715178563
-29.8082395782
-29.6759593694
-29.4566223666
-29.1282471878
-28.6659792907
-28.0396308218
-27.2165023579
-26.1574040765
-24.8218121974
-23.1613999729
-21.1279709628
-18.6640288524
-15.7141372873
-12.2104837534
-8.08469052867
-3.25277289195
2.36640452707
8.86881891335
16.3477538519
24.9134466502
34.6231240384
45.467437755
57.4831771004
70.7526821931
-28.3126539792
-28.5487793813
-28.4584449658
-28.345609142
-28.3083821132
-28.3000229609
-28.2974678318
-28.3039694304
-28.3206770838
-28.3419500148
-28.3614485368
-28.3749517597
-28.3815655594
-28.3811265313
-28.3749438401
-28.3633872117
-28.3477362007
-28.3281264208
-28.305610986
-28.2802702909
-28.2530304465
-28.2240658145
-28.194191427
-28.1636522321
-28.1331397637
-28.102909933
-28.073505253
-28.0451302059
-28.0181937095
-27.9928013694
-27.9692237533
-27.9474520924
-27.9276546436
-27.9097045045
-27.8936597075
-27.8794184614
-27.8669454725
-27.856170342
-27.8470650975
-27.8396067415
-27.8337486647
-27.8294725605
-27.8267257212
-27.8254257386
-27.8255019202
-27.8267755632
-27.8291728081
-27.8324454805
-27.8364842275
-27.8410645459
-27.8461021146
-27.8512887115
-27.8565982733
-27.861775222
-27.8667521537
-27.8713307375
-27.8755076918
-27.8792005398
-27.8824621117
-27.8853180426
-27.88768745
-27.8888186141
-27.8882535336
-27.8878652744
-27.8894602277
-27.8938510389
-27.9014497023
-27.912690212
-27.9277415637
-27.946621701
-27.9690671581
-27.9946679231
-28.0228349705
-28.0528739148
-28.0841868418
-28.116233509
-28.148629434
-28.1811999598
-28.2139581396
-28.2470964126
-28.2809703081
-28.3160708915
-28.3529757976
-28.3923318828
-28.4347470997
-28.4807704543
-28.530700386
-28.5846986595
-28.6418462984
-28.7003914133
-28.7562628142
-28.8072975746
-28.8512200474
-28.8866925601
-28.9104285252
-28.9194149877
-28.9109188502
-28.8850304669
-28.8431663341
-28.7926677716
-28.7416863536
-28.6975549776
-28.6742679827
-28.6919288483
-28.7422077234
-28.7865692969
-28.8396540718
-28.9753527441
-29.1569747108
-29.2372789448
-29.1643314673
-29.0212624343
-28.8908544096
-28.7980524978
-28.7372472232
-28.6977140143
-28.6709678849
-28.6512003082
-28.6346074736
-28.6184962242
-28.6018103735
-28.5842062717
-28.5663417385
-28.5484372747
-28.5311112771
-28.5143577289
-28.4986324294
-28.4838274063
-28.4703829338
-28.4583392457
-28.4485570822
-28.4415960051
-28.4388513195
-28.4417319533
-28.4525988782
-28.4732852949
-28.5052906325
-28.5485763649
-28.6022171502
-28.6633173505
-28.7295441667
-28.7999682603
-28.8753723069
-28.9563826176
-29.0437376322
-29.1371652665
-29.2364691989
-29.340310615
-29.4472765184
-29.5543952268
-29.6583883999
-29.7540432738
-29.8357353534
-29.8955205901
-29.9250391929
-29.9129797879
-29.8472765012
-29.711784529
-29.489208609
-29.1568860428
-28.6907412508
-28.0599300479
-27.2324894631
-26.168577571
-24.8282029542
-23.1622478441
-21.1228360479
-18.6518002799
-15.6939453728
-12.1805511032
-8.04196444859
-3.19349381065
2.44707748054
8.97786960333
16.4973078398
25.1121977373
34.8613561745
45.686791774
57.609833372
70.658530979
-28.2915512017
-28.8705560373
-28.6680852417
-28.4393178307
-28.3566761475
-28.3205896353
-28.2965160136
-28.2873457878
-28.2923816468
-28.304844493
-28.3185352963
-28.329678235
-28.3371861252
-28.3405139309
-28.3402102236
-28.3362541482
-28.3293700671
-28.3195698082
-28.3075390451
-28.2933556297
-28.2776467016
-28.2605873396
-28.2427454098
-28.2243821542
-28.2059876881
-28.1878584875
-28.1704184696
-28.1539263245
-28.1387435516
-28.1250202224
-28.1130610873
-28.1028619607
-28.0946258763
-28.088244015
-28.0838345392
-28.081189148
-28.0803755394
-28.0812157692
-28.0836950151
-28.0876865938
-28.0931394579
-28.0999473768
-28.1080069779
-28.1172002815
-28.1273681693
-28.1383722138
-28.1500078019
-28.1621452012
-28.1746150452
-28.1872821207
-28.2000194694
-28.2127733723
-28.2254514753
-28.237979643
-28.2503712803
-28.2625871241
-28.274746113
-28.2869619103
-28.2995648079
-28.3129184841
-28.3277067268
-28.3448025239
-28.3637617317
-28.3830886792
-28.4021895577
-28.4210125881
-28.4394500514
-28.457521723
-28.4751772807
-28.4924333771
-28.5092353958
-28.5255007703
-28.5411156399
-28.5559716442
-28.5699209312
-28.582844648
-28.5947058084
-28.605453163
-28.61511906
-28.6237805588
-28.6315950295
-28.6388017765
-28.6457307121
-28.6528449728
-28.6606828087
-28.66995065
-28.6813590111
-28.6955515116
-28.7131788806
-28.7327058472
-28.753417369
-28.7743516282
-28.7971408381
-28.8225237638
-28.849860953
-28.8758684396
-28.8965587607
-28.9067686669
-28.9011731378
-28.8772021381
-28.8350763501
-28.7851766621
-28.7495653633
-28.732940416
-28.7040944944
-28.6545716918
-28.6639444318
-28.7931609302
-28.9572926305
-29.0357233313
-29.0094230887
-28.9314631506
-28.8481002646
-28.7788480089
-28.7263710683
-28.6873382533
-28.6571904436
-28.6321988819
-28.6095672839
-28.5875953553
-28.5657456875
-28.5442816654
-28.5237809527
-28.5046883226
-28.487339236
-28.4718444964
-28.4583064786
-28.4466796822
-28.4370371996
-28.4294500764
-28.4242426325
-28.4218484586
-28.4233358917
-28.4302140853
-28.4447101911
-28.4687907538
-28.5033449103
-28.5482654106
-28.6021178414
-28.6623708768
-28.7270700956
-28.7957801943
-28.8691580168
-28.9479585401
-29.0326596887
-29.1231633093
-29.2190366005
-29.3191759202
-29.4219215872
-29.5245910375
-29.6236207812
-29.7141538005
-29.7902498864
-29.8444311379
-29.8678932827
-29.8498973447
-29.7778701817
-29.6364720441
-29.4077357706
-29.0699939566
-28.5982530675
-27.9629228604
-27.1307797411
-26.0634222885
-24.7190795954
-23.0502078674
-21.0065265142
-18.5313073475
-15.5662451562
-12.0444933758
-7.89474250853
-3.03612596452
2.6139704531
9.14790270321
16.6611392648
25.2529381695
34.9727256655
45.7925093286
57.7463634226
70.8631073732
-28.3097457295
-29.3334837135
-28.8975183661
-28.533215508
-28.4254139046
-28.3766653035
-28.3426761854
-28.3235839618
-28.3179471702
-28.3200183628
-28.325154024
-28.3307263034
-28.3357283555
-28.3395055319
-28.3420424022
-28.3430752547
-28.3428190103
-28.341145798
-28.3383338073
-28.3343614288
-28.329522342
-28.3239116509
-28.3178081012
-28.3114020313
-28.3049622104
-28.2987275834
-28.2929593045
-28.287883532
-28.2837508037
-28.2807010888
-28.2789482688
-28.2784988566
-28.2795329997
-28.2818933831
-28.2856885453
-28.2907080538
-28.2969723965
-28.3042486626
-28.3125226486
-28.321592691
-28.3313797448
-28.341720505
-28.3524689423
-28.3634757101
-28.3745218566
-28.385464479
-28.3960384993
-28.4061209398
-28.4154290102
-28.423896933
-28.4313021654
-28.4375632719
-28.4425589673
-28.446233324
-28.4485269378
-28.4493837303
-28.4488638879
-28.4470269719
-28.4441555958
-28.4403942013
-28.4356132257
-28.4299382829
-28.4246341612
-28.4206411968
-28.4184212162
-28.4185491532
-28.4216070356
-28.4280153315
-28.4378272871
-28.4507810531
-28.4662411283
-28.4834190527
-28.5014208017
-28.5194118983
-28.5367579555
-28.55302159
-28.5679776141
-28.5816313725
-28.5941550194
-28.6058421948
-28.6170925514
-28.6283477642
-28.6400670355
-28.652718166
-28.6666407491
-28.6820845483
-28.6989930073
-28.7173571824
-28.7359077495
-28.752629612
-28.7646452767
-28.7712960135
-28.7760558954
-28.7816701762
-28.791465676
-28.80521302
-28.8216876906
-28.8346577627
-28.8367452714
-28.8256884334
-28.8083445308
-28.802992397
-28.8193527718
-28.8206499253
-28.7557477605
-28.6584833448
-28.6338833965
-28.712590143
-28.81906261
-28.8807275701
-28.8856845314
-28.8548474373
-28.8095924167
-28.7638959385
-28.723958207
-28.6912598441
-28.6646184811
-28.6423342685
-28.6224767894
-28.6039199941
-28.5858537238
-28.5683618338
-28.5512091163
-28.5346378233
-28.5184051353
-28.5027949645
-28.4876672304
-28.4734485525
-28.4601822035
-28.4485167362
-28.4388497221
-28.4324574801
-28.4306146818
-28.4355068325
-28.4489348895
-28.4725412692
-28.5065474243
-28.5506215004
-28.6032089326
-28.6621077001
-28.7256481713
-28.7936837441
-28.8666429852
-28.9453963474
-29.0300891282
-29.1207930402
-29.2167113392
-29.3169213382
-29.4193853953
-29.5216245667
-29.6196962355
-29.7089754278
-29.7831592888
-29.8350804478
-29.8555794031
-29.8342299141
-29.7581089088
-29.6122680073
-29.3784641434
-29.0354313254
-28.5578816055
-27.9166509776
-27.0781396175
-26.0043270489
-24.6527838151
-22.9763112724
-20.9235262979
-18.4378337207
-15.4591552715
-11.9215512862
-7.75460464353
-2.88135683388
2.77796912925
9.3086181087
16.7969426995
25.3377571766
35.002605031
45.8361027112
57.9038048233
71.2698817345
-28.4422027216
-29.8838049752
-29.096331697
-28.6309884947
-28.530531498
-28.4785093464
-28.439836042
-28.4117022805
-28.3955300989
-28.3872006942
-28.383501913
-28.3825115927
-28.3831406807
-28.3846364077
-28.3865759529
-28.3885449576
-28.3903771956
-28.391835512
-28.392887385
-28.393446039
-28.3935595756
-28.3932750293
-28.392691422
-28.3919553533
-28.3911910511
-28.3906018195
-28.3903322753
-28.3905807396
-28.3915008131
-28.3932224644
-28.3959001079
-28.3995466319
-28.4042728673
-28.4099950413
-28.4167828089
-28.424453912
-28.4330502785
-28.4423886294
-28.4524553548
-28.4631040468
-28.4742857777
-28.4858918264
-28.4978154154
-28.5099726895
-28.5221859192
-28.5343838259
-28.5463229186
-28.5579429523
-28.5689783939
-28.5793580669
-28.5888219371
-28.5973247942
-28.6046675206
-28.610822743
-28.6157312336
-28.6193686213
-28.6217181191
-28.6228110891
-28.6230002612
-28.6228179366
-28.6230290556
-28.6232879711
-28.6231228039
-28.6222736554
-28.6207052035
-28.6187466025
-28.6171596145
-28.6169926091
-28.6191078808
-28.6240233444
-28.6316934301
-28.6416270743
-28.6530120831
-28.6649486326
-28.6765425656
-28.6870750322
-28.6960811696
-28.7033070216
-28.7087575807
-28.7126314727
-28.7152766828
-28.7170930285
-28.7186776704
-28.7206130682
-28.7237525301
-28.7287204516
-28.7362277596
-28.7463598528
-28.7585150643
-28.7690593219
-28.7742798295
-28.7716740981
-28.762268098
-28.7486783211
-28.7332683213
-28.7168837078
-28.7001390048
-28.6859827399
-28.6774198856
-28.6869511856
-28.7369073458
-28.8329219211
-28.9285427624
-28.9423040738
-28.8480938523
-28.7222511198
-28.6609634608
-28.6790106454
-28.7290316613
-28.7692507248
-28.7848264203
-28.7772455796
-28.754218655
-28.7244216977
-28.6940425192
-28.6660522167
-28.6410828054
-28.618561801
-28.5975556691
-28.5773887617
-28.5577799694
-28.5387494518
-28.5203732668
-28.5028340084
-28.4862543962
-28.4708667513
-28.4568266218
-28.4444159988
-28.4338496526
-28.4255369481
-28.4199834638
-28.4181714153
-28.4213495557
-28.4312378639
-28.4493962798
-28.4768117141
-28.5137668398
-28.5597016515
-28.6132082498
-28.6724156657
-28.7361580321
-28.80427539
-28.8772982341
-28.9558736512
-29.0402735644
-29.1303936619
-29.2255893139
-29.3247464088
-29.4259848213
-29.5266206544
-29.6228943155
-29.7099532578
-29.7816957152
-29.8307044137
-29.8480773967
-29.8231210825
-29.7431808972
-29.5929783066
-29.354579534
-29.0063291859
-28.523268151
-27.8757428317