/*--------------------------------*- C++ -*----------------------------------*\
| =========                 |                                                 |
| \\      /  F ield         | OpenFOAM: The Open Source CFD Toolbox           |
|  \\    /   O peration     | Version:  v1806                                 |
|   \\  /    A nd           | Web:      www.OpenFOAM.com                      |
|    \\/     M anipulation  |                                                 |
\*---------------------------------------------------------------------------*/
FoamFile
{
    version     2.0;
    format      ascii;
    class       volScalarField;
    location    "19";
    object      sensitivity;
}
// * * * * * * * * * * * * * * * * * * * * * * * * * * * * * * * * * * * * * //

dimensions      [0 2 -3 0 0 0 0];


internalField   nonuniform List<scalar> 
12225
(
-3.22555785762
-9.9479412553
-7.32552039899
-8.15868512911
-7.82193580985
-7.85338862685
-7.72881829786
-7.69813610548
-7.75244567843
-7.96857059034
-8.34183541526
-8.78101369517
-9.08752624525
-9.12999391157
-9.37035935171
-11.3109582039
-16.0478692457
-18.9509617872
-22.8764849197
-9.8390183624
-11.6736490522
-11.4450741003
-11.8521482027
-12.1299849553
-12.4954846321
-12.9385486426
-13.5110055853
-14.22364718
-15.0411121393
-15.8318057072
-16.4129730574
-16.7666840477
-17.4933571668
-19.8848110328
-23.934288448
-24.2826577073
7.74868132389
-12.2292433476
-8.7872706331
-9.98119963307
-9.56285236783
-9.70586665424
-9.70769228877
-9.86882960244
-10.1389821467
-10.5556580658
-11.0606606346
-11.5279906312
-11.8070331975
-11.964826929
-12.6324916539
-14.8187671581
-18.0832360214
-18.5139574197
-25.786789926
-7.41872216829
-11.0922897423
-10.1311320431
-10.524808803
-10.543558626
-10.7154688534
-10.9491769133
-11.3042822007
-11.7692674593
-12.2822373008
-12.7099325328
-12.9235573885
-13.0051243609
-13.4492176971
-14.7996589767
-16.3351909264
-15.719562221
7.26520264396
-11.596079243
-8.68294095646
-9.77994876558
-9.5144897341
-9.6906373267
-9.79100350956
-10.0231048783
-10.3598068422
-10.8151462068
-11.3291022374
-11.7991634737
-12.1500057225
-12.4894451072
-13.1557439721
-14.2869592017
-15.0642599898
-14.1760340062
-17.6945233379
-9.90195002538
-9.79043439827
-9.94789042996
-9.96439772336
-10.0620259947
-10.1623706784
-10.3424115252
-10.5964734841
-10.9246137597
-11.277081119
-11.5859851584
-11.8327679437
-12.1457772472
-12.743269433
-13.5528474729
-13.8860951076
-13.063114994
-5.33126532462
-9.7613831435
-9.42427755887
-9.72753140487
-9.74392016522
-9.88615341927
-10.0293950354
-10.2430725095
-10.5120666421
-10.824409173
-11.1323394522
-11.3887957031
-11.6033803083
-11.8879916745
-12.3556174815
-12.8546706102
-12.9074620035
-12.2066356943
-9.79690314089
-10.0218558815
-9.44400131732
-9.74790663938
-9.7443128179
-9.87443910629
-10.0047574968
-10.1996955208
-10.4389295015
-10.7068728292
-10.9624953155
-11.1766616502
-11.3696042385
-11.6183267861
-11.955205693
-12.2195881717
-12.1165578959
-11.5296299854
-8.9662648957
-9.80679006202
-9.50894576528
-9.71978577272
-9.74762755422
-9.86485932965
-9.99188220588
-10.1671251361
-10.3744899689
-10.5963722292
-10.8020238531
-10.9765192752
-11.1411335319
-11.3387716613
-11.5554907405
-11.6576355502
-11.4788293966
-10.9878810493
-9.19746432791
-9.77989942761
-9.53960183653
-9.71395021615
-9.75213400832
-9.85776980659
-9.97684618577
-10.1307637966
-10.3061139001
-10.4856062156
-10.6477406197
-10.7862416015
-10.9171167661
-11.0569543125
-11.1730141055
-11.169142126
-10.9593395265
-10.5453541486
-9.30035767035
-9.7281501007
-9.58758193659
-9.71171355305
-9.76146853823
-9.8509526498
-9.95886396884
-10.0889261197
-10.2323329944
-10.3730021936
-10.4969722602
-10.6017865414
-10.6960614414
-10.7796850832
-10.8178299627
-10.7481299626
-10.5306732785
-10.177807343
-9.37955791706
-9.68664169552
-9.61730888459
-9.70062091244
-9.75677201047
-9.83037279044
-9.92543581523
-10.0328023607
-10.1480390283
-10.2566210487
-10.3493090631
-10.4243944834
-10.484520111
-10.5223314938
-10.5085759805
-10.4043372125
-10.1921350367
-9.88532089273
-9.4852130991
-9.65772031791
-9.64747658938
-9.69321261726
-9.75198089164
-9.80932668726
-9.88997601606
-9.97486435115
-10.0632619044
-10.1423268897
-10.2060778148
-10.2524628258
-10.2801959614
-10.279277453
-10.2279868136
-10.1036117244
-9.90079195871
-9.63168828365
-9.59103140514
-9.62859453122
-9.67323503332
-9.68073649263
-9.73851691434
-9.77720418322
-9.84020916605
-9.90044523679
-9.96089190653
-10.0100629174
-10.0442507399
-10.0608451502
-10.056279171
-10.0213950295
-9.9418264787
-9.80629004762
-9.61584130875
-9.38106758054
-9.7048891998
-9.5979437747
-9.69609111866
-9.66395922151
-9.71630503324
-9.73383000192
-9.77593598025
-9.8100060514
-9.84172153156
-9.86126460396
-9.86597141176
-9.85322035922
-9.81922558868
-9.75723028112
-9.6590669853
-9.52016777
-9.34444195024
-9.140392568
-9.83567943591
-9.58024601031
-9.71678800382
-9.64866981751
-9.69010076033
-9.68534084246
-9.7045508088
-9.71202800432
-9.71565589573
-9.70654909099
-9.68333095396
-9.64356092527
-9.58475251572
-9.50276692699
-9.39387406052
-9.25690341071
-9.09647637729
-8.91948423781
-9.91764694647
-9.57486549182
-9.72065164921
-9.62561825064
-9.64978338037
-9.62300249248
-9.61829905045
-9.60027183704
-9.57744970032
-9.54240985691
-9.49446396357
-9.43225216142
-9.35464310444
-9.25977672411
-9.14624816928
-9.01451110656
-8.86867865074
-8.71422157172
-9.94548787831
-9.55726197985
-9.71072460257
-9.59268829166
-9.59630778574
-9.54892880714
-9.52146277697
-9.48076053335
-9.43515447796
-9.37875845596
-9.31169235835
-9.23359974993
-9.1444525323
-9.04380440974
-8.93130855508
-8.80794690201
-8.67733464178
-8.5441963607
-10.1831100123
-9.62500857205
-9.68346741973
-9.54237075951
-9.52166013508
-9.4564630479
-9.40840318695
-9.34808393963
-9.2828615927
-9.20833985739
-9.12506124247
-9.03388655279
-8.93556566796
-8.83020649859
-8.71768036618
-8.59887932383
-8.47661326665
-8.35596137022
-9.22544272911
-9.34128023839
-9.65718027297
-9.53808672154
-9.52384377079
-9.453868585
-9.40034008542
-9.334550121
-9.26425755974
-9.18624776926
-9.10189127054
-9.01128877296
-8.91586697585
-8.8157555128
-8.71112683716
-8.60233783491
-8.49198980153
-8.3795185023
-12.0977056638
-9.95314452661
-9.6327595118
-9.47701455237
-9.4380010834
-9.36684219657
-9.30531863977
-9.23137447597
-9.15222638671
-9.06537416611
-8.97202064122
-8.87493578447
-8.77558577403
-8.67448814474
-8.57162307702
-8.46765822
-8.36525814437
-8.28090403035
-4.55173622766
-8.90809938105
-9.72682976132
-9.66005837525
-9.6514330194
-9.55963018539
-9.49047358312
-9.40380802351
-9.31538337623
-9.21986187765
-9.11954863628
-9.01349878733
-8.90344018021
-8.78868240784
-8.66893826724
-8.54443834323
-8.41646221632
-8.264872726
-21.612578355
-10.1339572394
-9.7894883341
-9.45015464537
-9.46930251421
-9.41645200869
-9.36954130879
-9.31507510351
-9.25881079603
-9.20137574265
-9.14411204624
-9.08699128417
-9.03108437649
-8.97725086414
-8.92518561713
-8.87402639871
-8.82478260734
-8.81182037675
11.7918997598
-9.82592049148
-9.36857958941
-9.93565333983
-9.73958050791
-9.64184160501
-9.52581552557
-9.39053128352
-9.25012494472
-9.09884865363
-8.94043538232
-8.77720831745
-8.61076420726
-8.44095365699
-8.26909603704
-8.09937538733
-7.93843837212
-7.76000260068
-45.1251104657
-7.68551691967
-11.0074523594
-9.37234122543
-9.86051233811
-9.7234832778
-9.73416044012
-9.70584872295
-9.68924203628
-9.67456630478
-9.66278841172
-9.65097425336
-9.63838464703
-9.62183240925
-9.59887377925
-9.56605523641
-9.51966115124
-9.49643243317
39.2866449548
-14.9908236542
-7.50403800335
-10.4535686605
-9.45185057256
-9.55336185149
-9.34151956621
-9.20328130422
-9.04206649187
-8.88358550508
-8.72257116399
-8.5578015586
-8.38834356999
-8.21353929007
-8.03512938199
-7.86043303328
-7.70299534261
-7.52875315865
-58.9112667577
-1.72470262188
-13.3756508878
-9.33041647029
-10.659530897
-10.2179742495
-10.3127936821
-10.2388359299
-10.2130968184
-10.1735478939
-10.1382575913
-10.0995441041
-10.0591618474
-10.0188534142
-9.98337836716
-9.95819506151
-9.94072013266
-9.96414261212
31.6031264628
-16.8347738546
-7.18687394577
-10.3596861892
-9.1949102798
-9.39402068798
-9.16762467678
-9.06997940132
-8.93017911687
-8.80329637492
-8.67311813505
-8.54368956591
-8.41473708861
-8.28700520303
-8.16009298217
-8.03347833659
-7.90482552699
-7.71401027045
-35.8340416063
-7.07946814571
-13.0140046977
-10.9263793018
-11.5378167486
-11.2894623434
-11.3116916035
-11.2418193651
-11.1935132037
-11.1336048282
-11.0730322789
-11.005229111
-10.9320286797
-10.8520535786
-10.760525412
-10.6491379786
-10.501391722
-10.3762001018
-1.24934960386
-9.27616171137
-6.08414012396
-6.77970408341
-6.39554444321
-6.34122339182
-6.19784862439
-6.07625653549
-5.94832569964
-5.82061594039
-5.69297506386
-5.56750978105
-5.44761382757
-5.33318741056
-5.22128943103
-5.11286935036
-5.03300805499
-4.98922579951
0.00326315374193
0.00405532187435
0.0123321575902
0.0160272143739
0.013822714108
-0.0156486639359
-0.0488573119127
-0.0831984562704
-0.1158006091
-0.146425017607
-0.176733732289
-0.208781190869
-0.24465206544
-0.285520547416
-0.331829471547
-0.383245482485
-0.43900158526
-0.498169983064
-0.559753464396
-0.622995214632
-0.687210839965
-0.75202300377
-0.817062889443
-0.882208487709
-0.947217576957
-1.01204979819
-1.0765113728
-1.14052904146
-1.20379004461
-1.26611311054
-1.32711583494
-1.38654813216
-1.44398837171
-1.49909356064
-1.55143697575
-1.60062233327
-1.64628998312
-1.68801321488
-1.72548259803
-1.75827102282
-1.78615905512
-1.80873628127
-1.82587653971
-1.83722782465
-1.84277708484
-1.84230382714
-1.8358451985
-1.82339067926
-1.80506204051
-1.78098620075
-1.7513359019
-1.71640412661
-1.67625804376
-1.63126903934
-1.58161980139
-1.52766539037
-1.46954393728
-1.4076198756
-1.3420619123
-1.27318908845
-1.20121566291
-1.12647495575
-1.04934925291
-0.971123346569
-0.891220420483
-0.810010495881
-0.727452416507
-0.643502193621
-0.558471491322
-0.472652158759
-0.386468176786
-0.300215495698
-0.214232610649
-0.128761917148
-0.0440081615091
0.039825210336
0.122533760745
0.20389980884
0.283625794145
0.3614322791
0.436992803859
0.51001839625
0.58017990567
0.647386572257
0.711682862493
0.77317800956
0.832335086916
0.8892036445
0.944212103296
0.996789657399
1.04671431701
1.09473861649
1.14105433605
1.18495535029
1.22511378809
1.26001631875
1.28853458614
1.31038041218
1.32583394259
1.33506933604
1.33467777002
1.318126255
1.28223559046
1.22184826967
1.1187528682
0.969725911707
0.797200838936
0.577245331454
0.338143133248
0.181628176533
0.0274527438997
-0.162808658233
-0.129071802181
-0.142139263804
-0.151974600726
-0.1637123902
-0.176191279518
-0.18991674485
-0.204536418755
-0.219912172757
-0.235903806131
-0.252276527527
-0.268523774651
-0.284108775842
-0.298542198637
-0.31155062512
-0.322868462254
-0.332243615468
-0.339347078864
-0.343804362396
-0.345146297644
-0.342927978765
-0.336829681856
-0.326897323958
-0.313701766007
-0.297759137071
-0.279763494389
-0.260191112883
-0.238858030756
-0.215641991252
-0.191128612851
-0.166412094541
-0.142364937644
-0.119289613843
-0.0969975866063
-0.075405613308
-0.0543595892054
-0.0338575934576
-0.0137325405343
0.00600887885754
0.0255696376224
0.0448487104056
0.0640055703528
0.082705969998
0.10096590663
0.118217379346
0.134518307477
0.149365062442
0.163100403956
0.175307436162
0.186685372951
0.196860177775
0.206339102926
0.21405745509
0.219789180662
0.223227362612
0.224285869123
0.220670444685
0.21362761586
0.206397787034
0.200216693073
0.194479971804
0.153045027129
0.10669673905
0.0578424761171
-0.0255107233786
-0.217690561305
-0.430993756452
-0.597036770646
0.0180763138919
0.0280184517427
-0.000481056418345
-0.0379003109605
-0.0412078169489
-0.0312650883254
-0.0142965434304
0.0044909379025
0.0248953427873
0.0469139159155
0.0691411022889
0.0893178165699
0.105552851707
0.1165232951
0.121797742213
0.121602379879
0.116654431424
0.107993416147
0.0967253925754
0.0840460923567
0.0710028458589
0.0586199700654
0.0476663109568
0.0388775996167
0.0327415194623
0.0297048514408
0.0299733480746
0.0337380329447
0.0410100055053
0.0518564426458
0.0662047041427
0.0840519458873
0.105308973524
0.129980031693
0.15806525063
0.189618670503
0.224737583771
0.263545525144
0.306267563707
0.353092118986
0.404343392205
0.46024849859
0.521168007757
0.587310179733
0.658988207528
0.736327084976
0.819487941247
0.908464006613
1.00322447342
1.10360218426
1.20928100797
1.31998672926
1.43528835748
1.55478148708
1.67789705493
1.80413404639
1.93283676294
2.0634760411
2.19541542331
2.32810251007
2.46088971248
2.59323430382
2.72461808528
2.85519940473
2.98523333063
3.11314101999
3.23756370448
3.35707609843
3.47080749172
3.57797622129
3.67790504689
3.76991117852
3.85341163747
3.92792565599
3.9930975783
4.04870916763
4.09471664569
4.13118215733
4.15824157559
4.17605972376
4.18479933717
4.18445723126
4.17484252024
4.15542360004
4.12536295557
4.08330724416
4.02741662134
3.95529549205
3.86441042995
3.75191331151
3.61539798164
3.45457642436
3.27114773213
3.06873592904
2.85242983753
2.62884601683
2.40558185816
2.19008034446
1.98753991437
1.79870406533
1.62254475134
1.46275576631
1.31991445522
1.17636653897
1.01767723008
0.858887381851
0.6986996753
0.489368266091
0.296196290179
0.174848413799
-0.0685725308047
-0.298598699513
-0.303711694291
-0.32907347777
-0.414422597429
-0.501555717237
-0.591450792337
-0.678481091565
-0.760916803504
-0.8373423939
-0.907274515638
-0.970693315796
-1.02768108952
-1.07823601226
-1.12230256748
-1.15995661581
-1.19138844264
-1.21684691471
-1.23653818666
-1.25054662716
-1.25885648805
-1.26140799966
-1.25824169498
-1.24966129979
-1.23623602655
-1.21838338173
-1.19736887414
-1.17414691846
-1.14871327364
-1.1206477927
-1.08977632451
-1.05677591843
-1.0229155707
-0.989132715391
-0.955720144197
-0.922556835035
-0.889565177037
-0.856697691988
-0.824019399248
-0.791518202935
-0.759194784914
-0.72690839487
-0.694653254313
-0.662357932163
-0.630257903045
-0.59844079681
-0.567322964419
-0.537011671994
-0.508032334755
-0.480446339312
-0.454631943128
-0.430219777601
-0.407667324634
-0.387091961699
-0.369637684393
-0.355668336544
-0.346620740075
-0.346359432676
-0.35718111793
-0.378351489405
-0.402799030619
-0.429010648318
-0.454184702079
-0.478988875293
-0.438277628966
-0.397517019331
-0.405818772283
-0.651583914803
-1.04433172727
-1.60615606282
-2.21858674972
-0.0192800326499
-0.0312721953488
-0.0118602051302
0.0229397907905
0.0632765886996
0.101582587738
0.13634186343
0.169840051154
0.203360284754
0.236638613168
0.268526728087
0.298256871808
0.325528339664
0.350561944493
0.373773607644
0.395607120235
0.416481446046
0.436676886572
0.456477577625
0.476024840861
0.495527252917
0.515075062916
0.534842273502
0.554909524592
0.575447161355
0.596533787588
0.618320730395
0.640885541593
0.66437270049
0.688860493883
0.714464939922
0.741243836061
0.769277651077
0.798594389237
0.829224191736
0.861179673727
0.89442965918
0.928966489971
0.964723487018
1.00167451218
1.0397016339
1.07875084639
1.11865489618
1.15930937978
1.20049282919
1.24202697826
1.28366504248
1.32514270401
1.36619185988
1.40653628869
1.44590600118
1.48400876139
1.5206677367
1.55561989565
1.58869603607
1.61969048727
1.64850832266
1.67503050224
1.69919190142
1.72096044227
1.74022570853
1.7566326574
1.77046987845
1.78236807147
1.79299435117
1.80340885575
1.81407085312
1.82534461065
1.83771388803
1.85176768209
1.86806490638
1.88711462329
1.90930624193
1.93492592955
1.9641696301
1.99708685146
2.0336195808
2.07358652726
2.1166873101
2.16250939726
2.21050051959
2.25995714152
2.30999881953
2.3595540068
2.4072540955
2.45126383272
2.48942680625
2.51881906401
2.53560116947
2.53512155116
2.51263195161
2.46468944464
2.38890481605
2.28487698913
2.15423412756
2.00053418315
1.82880528807
1.64510273338
1.45737863273
1.27684347726
1.11180053438
0.954493915162
0.79585502817
0.659407009646
0.546393536582
0.409610547339
0.285210533591
0.217334673324
0.0213017020351
-0.181424244895
-0.242684612447
-0.289336601012
-0.402469924078
-0.518451451955
-0.611409975645
-0.688381663838
-0.752246841229
-0.806920925373
-0.854782765679
-0.89776230895
-0.937235743493
-0.97392742059
-1.00799530535
-1.03924690102
-1.06748444936
-1.09260801925
-1.11463004314
-1.1336095246
-1.14960500145
-1.16269528089
-1.17296661742
-1.18057752135
-1.18566453915
-1.18831030384
-1.18857009672
-1.18648851842
-1.18205153243
-1.17502290937
-1.16490082349
-1.1517033064
-1.13603973785
-1.11905236448
-1.10143353063
-1.08321107124
-1.0640465278
-1.04365760079
-1.02182407426
-0.998441300743
-0.973339691023
-0.946430353299
-0.91757353751
-0.88685317898
-0.854331968
-0.820422177207
-0.785477098204
-0.750271505389
-0.715355996042
-0.681655762265
-0.649618780842
-0.620020415182
-0.592904805076
-0.568903609781
-0.548011105511
-0.530973181843
-0.518111831419
-0.510827518856
-0.511444425108
-0.522664327849
-0.54537526379
-0.580482428664
-0.62824848436
-0.68264749924
-0.736679365317
-0.748954641514
-0.733553082562
-0.710626927287
-0.712624962347
-0.787288896824
-1.04724670716
-1.48592355409
-0.0172408574628
0.0236469063588
0.068614970333
0.109394481334
0.147570291665
0.17835258953
0.203716032811
0.229266017314
0.257834102847
0.289221063297
0.321887303189
0.354638153119
0.386887888874
0.418569357064
0.44985700145
0.480954952425
0.512117831704
0.543505489473
0.575357160969
0.607820061962
0.641140866143
0.675467182685
0.711031770692
0.747963014987
0.78643666744
0.826533140749
0.86834793716
0.911900966708
0.957209115897
1.00423627873
1.05293596236
1.10321537733
1.15497168072
1.20808672659
1.26242364659
1.31783803641
1.37418678571
1.43133361204
1.48911864228
1.54741676575
1.60605920378
1.66491401344
1.72379112526
1.78253381184
1.84093432282
1.89880543169
1.95593351716
2.01214526932
2.06726839782
2.12112663607
2.17363289891
2.22470267356
2.27429853415
2.32240444847
2.36909164834
2.41440877483
2.45849660249
2.50145900296
2.54350625562
2.58477235998
2.62549112777
2.66638592198
2.70691573022
2.7470871347
2.78551666366
2.82166452831
2.85509869947
2.88525780463
2.91148645365
2.93321926688
2.9499770148
2.96142833854
2.96741560739
2.96793878305
2.96313951966
2.95331270833
2.93884790996
2.92017228426
2.89773988981
2.87198372735
2.84326091546
2.81181462541
2.77773036433
2.74089219275
2.70090772142
2.65711044369
2.60850152767
2.55389149188
2.49145357413
2.41916386505
2.33568282954
2.24013231462
2.13156698935
2.00841036305
1.86842692993
1.70995152608
1.53366858468
1.34442334074
1.14983778473
0.956234136047
0.761706339989
0.568447026845
0.398751042568
0.271888052815
0.135085220446
0.0408389255279
0.0372066311761
-0.0242947010597
-0.152234470221
-0.226017362648
-0.28674908765
-0.41159661672
-0.565885233176
-0.699148096962
-0.807677162924
-0.899649733415
-0.979274115434
-1.05011488521
-1.11369139357
-1.17086461019
-1.2220622307
-1.26740915086
-1.30680839611
-1.34021211366
-1.36774982763
-1.38975415087
-1.40664599507
-1.41886329046
-1.42675433907
-1.43056654818
-1.43044809081
-1.42645663724
-1.41865808726
-1.40716771051
-1.39222781195
-1.37429806681
-1.35399530005
-1.33161098075
-1.30718095336
-1.2807483755
-1.25307988387
-1.22531962576
-1.19817958503
-1.17172252067
-1.14572157378
-1.11992822396
-1.09417003069
-1.06829939985
-1.04216047851
-1.01558025956
-0.988391021686
-0.96049799353
-0.931895926859
-0.902771683771
-0.87339223042
-0.844248457222
-0.815808345676
-0.788723017183
-0.763434800882
-0.740534560626
-0.720195014339
-0.702929884671
-0.688782784583
-0.678253291997
-0.671786935483
-0.670424927519
-0.675837552655
-0.690461517593
-0.715743433679
-0.758157778334
-0.820921263111
-0.898943936571
-0.988029130017
-1.05931699299
-1.1095261585
-1.1186265355
-0.952130156389
-0.698349536828
-0.527989299968
-0.418536588837
0.00477940901646
0.158399174999
0.211146353894
0.213184619019
0.2120659139
0.209700768151
0.209881567226
0.218030480431
0.235415636681
0.259930873879
0.28875814624
0.319902524694
0.352280966981
0.385401277962
0.419122320505
0.453376141664
0.488228650544
0.523686907313
0.559880543413
0.596863780061
0.634817656404
0.673845752018
0.714151781016
0.755866312771
0.799177251701
0.844209256741
0.891101182809
0.939941405991
0.990797602937
1.04369665951
1.0986151747
1.15549747348
1.2142301986
1.27464919597
1.33655626913
1.39970983955
1.46382771522
1.52860198156
1.59369938101
1.658762359
1.72340306342
1.7872244771
1.84979839481
1.9106958148
1.96947100552
2.02569376946
2.07895599811
2.12886749458
2.17510089669
2.21739291149
2.25551900503
2.28932224326
2.31872230883
2.34368661288
2.36421906235
2.38036482829
2.39221074859
2.39979719319
2.40327760623
2.40264551146
2.3975911238
2.38888117307
2.37767709328
2.3647052235
2.35128438871
2.33841175727
2.32687385946
2.31737788669
2.31047093472
2.30650348364
2.30558419054
2.30760684322
2.31224023592
2.31901935101
2.32741008788
2.33683026699
2.34671509362
2.35653126976
2.36577748495
2.3739736971
2.38062817888
2.38516804251
2.38687154072
2.38476617589
2.37749019053
2.36322070134
2.33982236327
2.30479321859
2.25570754694
2.19014282862
2.10697055803
2.00658460821
1.88974441298
1.75680796931
1.60782541214
1.4438791419
1.26811501189
1.08213733144
0.885502410827
0.676577431184
0.458132384051
0.256473941747
0.0731733847891
-0.0972475708768
-0.236865100229
-0.230700463564
-0.228222790254
-0.297202166824
-0.350113488224
-0.397001654636
-0.489186904498
-0.62864682881
-0.770081072613
-0.88737295008
-0.982125139844
-1.05959261822
-1.12324214167
-1.17659973257
-1.22207175547
-1.26163606498
-1.29675865607
-1.32839324564
-1.35696693361
-1.38264118533
-1.40545073237
-1.42539986454
-1.4424634682
-1.45659087963
-1.46768081614
-1.47561194658
-1.48024704429
-1.48153556274
-1.47957040645
-1.47455087881
-1.46675119344
-1.45654531725
-1.44445234421
-1.43027316172
-1.41364750082
-1.39453752405
-1.37360512949
-1.35182132766
-1.3296869267
-1.30720392728
-1.28411547852
-1.2602002717
-1.235301233
-1.20933506432
-1.18221760029
-1.15390575709
-1.12436125259
-1.09366631542
-1.0619743565
-1.02965582872
-0.997127351035
-0.965021614582
-0.933940180342
-0.904648212054
-0.877697053017
-0.853723704778
-0.832989879217
-0.816057707723
-0.803026428094
-0.794312694111
-0.790308742441
-0.791794712813
-0.800060818613
-0.816928634569
-0.843083028515
-0.885633684278
-0.949645795731
-1.03088123612
-1.12880486623
-1.21860350364
-1.29870152086
-1.33944054886
-1.14317910904
-0.753032911739
-0.362153999819
0.0873680633025
0.0359986021608
0.412067978929
0.397056872553
0.299968293543
0.242382485254
0.209694008148
0.194431569064
0.194405393086
0.207043399442
0.228417878348
0.255276239159
0.28559796566
0.318337022438
0.352945256067
0.389212382689
0.426981435812
0.466242640437
0.506926270441
0.549079762132
0.592672016535
0.637778241199
0.684404603132
0.732637132755
0.782505205254
0.834087711492
0.887422643075
0.942559769483
0.999526444767
1.05832424411
1.1189383695
1.18130617919
1.24533115832
1.31086336289
1.37771665593
1.44564635335
1.51435843711
1.58353337738
1.65279430411
1.72174213234
1.78993813371
1.85692900672
1.92223066938
1.98535680146
2.04580885926
2.10311485437
2.1568218662
2.20654015279
2.25195720837
2.29285192771
2.32909669847
2.36068876019
2.38773355418
2.41040606012
2.42897134045
2.44373106355
2.45502839272
2.46312813732
2.46850671312
2.47144686364
2.4723371422
2.47188334601
2.46977942819
2.4662738738
2.45965450433
2.44978555927
2.43661917168
2.42024185573
2.40093210816
2.37912190316
2.35538949496
2.33037071131
2.30471414819
2.27902824828
2.25383004519
2.22950479717
2.20634172888
2.1845180195
2.16409895274
2.14506957677
2.12735092342
2.11081323775
2.09518885694
2.08004635636
2.06458271555
2.04746335652
2.02670158087
1.99957747947
1.96316580286
1.91388420271
1.8483290797
1.76432088433
1.66113218786
1.54042562279
1.40453690709
1.25671476024
1.09930246939
0.933690651754
0.755175933003
0.559285615314
0.355079707531
0.146734539369
-0.0520343243596
-0.268112753921
-0.41562394353
-0.437940330187
-0.426875509475
-0.476978159415
-0.537742382486
-0.584341432991
-0.650953920125
-0.751290195581
-0.871452322231
-0.986120096162
-1.08472726979
-1.16920749761
-1.24219229816
-1.30571423905
-1.36195609386
-1.412315199
-1.45765329767
-1.49833552102
-1.53426948013
-1.56518133302
-1.59082739831
-1.61117980426
-1.62639639564
-1.63680568808
-1.64278934897
-1.64473275739
-1.64298284777
-1.63784104817
-1.62961867027
-1.61863121795
-1.60519164439
-1.58958815383
-1.57209519047
-1.55322992361
-1.53256932747
-1.50994954122
-1.48543348445
-1.45966516424
-1.43346763664
-1.40727715077
-1.3811363207
-1.35488081893
-1.32836593682
-1.30148674879
-1.27417829477
-1.24636634531
-1.21798418171
-1.18897582471
-1.15936458034
-1.1292695066
-1.0989845812
-1.06892277184
-1.03963731189
-1.01170848605
-0.985768023821
-0.962359893716
-0.941993177851
-0.924964990469
-0.911726933238
-0.90253563077
-0.897809997485
-0.898137291013
-0.904179642466
-0.917185140497
-0.938385978916
-0.967307698955
-1.00856301351
-1.06661608364
-1.13769971331
-1.22435758978
-1.30317875898
-1.381719441
-1.44513662519
-1.32436673399
-1.00221666978
-0.650683933347
-0.177242514283
0.103148582114
0.794626329552
0.582549510358
0.352049172453
0.252771155416
0.205781904695
0.185154298934
0.180086357779
0.187417377747
0.203264042153
0.225069633181
0.251222599629
0.280794167036
0.313173416966
0.348012611601
0.385006544092
0.424004505351
0.464825328284
0.507408309423
0.551648695911
0.597537871405
0.645021154201
0.694114359557
0.744796059236
0.797081603744
0.850965336907
0.9064468825
0.963509112684
1.02211308416
1.08219873839
1.14366042051
1.20636546071
1.27012511897
1.33469714811
1.3998045385
1.4651078729
1.53023568726
1.59476236189
1.65825146721
1.72021366422
1.78016231975
1.83757609984
1.8919522538
1.94277845694
1.98959134331
2.03196483492
2.06956556298
2.10215308786
2.12961388582
2.15197418625
2.16936122175
2.18202261247
2.190296472
2.19452812531
2.19504909818
2.19216189704
2.18606017753
2.1769256329
2.16478304703
2.14929682952
2.13082788958
2.11104248382
2.08847051221
2.06407883672
2.03868528311
2.0130153268
1.987726357
1.96328797994
1.939938112
1.91770351427
1.89645661111
1.876008231
1.85615686459
1.83676993669
1.81780047149
1.79926992387
1.78127950027
1.76398110062
1.74753091024
1.73209437567
1.71781753087
1.70477478228
1.69284185792
1.68139234389
1.66903036476
1.65322944867
1.63054646228
1.59675287808
1.54734601376
1.47827233351
1.38695743287
1.2743931625
1.14555421721
1.00434482862
0.853520633331
0.692586056231
0.525418761985
0.348594181392
0.158893090471
-0.0258794457759
-0.232040153538
-0.426263330007
-0.555037946137
-0.577596743296
-0.561834067245
-0.60273840072
-0.691318628463
-0.769848877293
-0.841970077681
-0.923071464972
-1.01343813259
-1.10736396127
-1.19563955249
-1.27434749545
-1.34381698473
-1.40427710047
-1.45608707635
-1.50020158309
-1.53757215555
-1.56911148532
-1.59564281423
-1.61780128283
-1.63614782545
-1.65119617926
-1.66342052654
-1.67320085149
-1.68078924538
-1.68628361757
-1.68962030033
-1.6906751418
-1.68923236211
-1.68511594538
-1.67823556927
-1.66864016828
-1.65651329992
-1.64228366492
-1.62637333104
-1.60837938682
-1.58831333598
-1.56631004147
-1.54300689386
-1.51906256424
-1.49484844519
-1.47036117138
-1.44544727007
-1.41995254423
-1.39378211646
-1.36687903386
-1.33919944338
-1.31070917244
-1.28141252369
-1.25139107884
-1.22084245076
-1.19011602302
-1.15970055072
-1.13021007713
-1.10228823887
-1.07658180238
-1.05364716306
-1.03396934168
-1.0178695351
-1.0057802907
-0.998139246247
-0.995488353274
-0.998657774894
-1.00820253674
-1.0253599105
-1.050737033
-1.0827785608
-1.12242492529
-1.17194041347
-1.22741593696
-1.29385730363
-1.34851771885
-1.40805738075
-1.48087287233
-1.46764132883
-1.31641113714
-1.15434069529
-0.857601810116
0.245978016412
1.25742269745
0.717189203625
0.37603096214
0.268700001773
0.219893113401
0.197117193022
0.185416550597
0.185742431001
0.19442081973
0.209794814629
0.23040678486
0.255282294825
0.283705877789
0.315167326038
0.349226873051
0.385588294369
0.423963484884
0.464174532473
0.506030993954
0.549427269076
0.594243107019
0.640409010218
0.687848584962
0.736512912613
0.786347130075
0.837299330383
0.889313318338
0.942312237558
0.996207125022
1.05087482148
1.10615658703
1.16185898567
1.21774268082
1.27353058133
1.32889183171
1.3834823878
1.43690114973
1.4887469432
1.53858096903
1.58598063343
1.63050634059
1.67175688836
1.70934770278
1.74296813318
1.77237934753
1.79746387032
1.81824510414
1.83488556639
1.84768716715
1.85705407114
1.86347839275
1.86743852889
1.86939613963
1.86969901235
1.86850043096
1.8658326771
1.86143703842
1.85514549909
1.84692501969
1.83565861498
1.82127206661
1.80174919009
1.7774522873
1.74877923379
1.71639581151
1.68129769426
1.64459033635
1.60730931908
1.570299508
1.53413551259
1.49913552067
1.46544211417
1.43310278525
1.4021221946
1.37259046575
1.3447097439
1.31879681324
1.29528452494
1.27464283407
1.25735713329
1.24393040625
1.23458906931
1.22891845603
1.22520645151
1.22000141811
1.20796918868
1.182871176
1.1383983397
1.06984206702
0.974857032001
0.854337160569
0.716172923646
0.564254284236
0.402229531593
0.228458178831
0.0552980119544
-0.117087770604
-0.304578678508
-0.47974481116
-0.634445102422
-0.719733886544
-0.718248658062
-0.682741769281
-0.703506949705
-0.798186490138
-0.915972036925
-1.01784022663
-1.10669309148
-1.18721638926
-1.26193375006
-1.33354155719
-1.40084027714
-1.46277136061
-1.51908753321
-1.56941405231
-1.61376410624
-1.65278320458
-1.68723490266
-1.71783713626
-1.74503580097
-1.76904223013
-1.78986466604
-1.80744346019
-1.8216653106
-1.83244738103
-1.83970985018
-1.84340998147
-1.84352638557
-1.84012749896
-1.83330161139
-1.82324102142
-1.81026101966
-1.79477947681
-1.77722247295
-1.7582303719
-1.73791253104
-1.71601674319
-1.69263285082
-1.66785827686
-1.64216814582
-1.61605461233
-1.5897957081
-1.56337250669
-1.53664715667
-1.50947941609
-1.48179244349
-1.45354431019
-1.42470728847
-1.39526307013
-1.3652300119
-1.33470913185
-1.30391497289
-1.27321383831
-1.24309566639
-1.21417977446
-1.18710322943
-1.16251749877
-1.14095819091
-1.12291436785
-1.10869839246
-1.09877502304
-1.09368296837
-1.09414411143
-1.10113796597