/*--------------------------------*- C++ -*----------------------------------*\
| =========                 |                                                 |
| \\      /  F ield         | OpenFOAM: The Open Source CFD Toolbox           |
|  \\    /   O peration     | Version:  v1806                                 |
|   \\  /    A nd           | Web:      www.OpenFOAM.com                      |
|    \\/     M anipulation  |                                                 |
\*---------------------------------------------------------------------------*/
FoamFile
{
    version     2.0;
    format      ascii;
    class       volVectorField;
    location    "19";
    object      U;
}
// * * * * * * * * * * * * * * * * * * * * * * * * * * * * * * * * * * * * * //

dimensions      [0 1 -1 0 0 0 0];


internalField   nonuniform List<vector> 
12225
(
(9.73890225964 0.0399542903621 0)
(9.50275379715 0.0407256572854 0)
(9.24684687236 0.0401492518134 0)
(8.99588930023 0.0404582139151 0)
(8.75785602607 0.0404046711105 0)
(8.53147728186 0.0399944250986 0)
(8.31511506411 0.0394620771948 0)
(8.10807484367 0.0389117225666 0)
(7.90983220681 0.0383780280471 0)
(7.71967509333 0.0378900801747 0)
(7.53675262374 0.0374842973348 0)
(7.36015452185 0.0372020104396 0)
(7.18889397489 0.0370912367193 0)
(7.02182418751 0.0372183506921 0)
(6.85748601538 0.0376959733865 0)
(6.69373510007 0.0387714726213 0)
(6.52726408662 0.0412338983188 0)
(6.34151196455 0.0421803848969 0)
(10.016512381 0.0713436903198 0)
(10.0364008041 0.0696603578173 0)
(10.0236051586 0.0670213907387 0)
(9.99547188966 0.0678155533203 0)
(9.96117826806 0.0685694840503 0)
(9.92177008447 0.0689373443635 0)
(9.87737111261 0.0692889741585 0)
(9.82865862292 0.0697537956702 0)
(9.77631317134 0.0703373610183 0)
(9.72072585787 0.0710642694059 0)
(9.66204335558 0.0719994330709 0)
(9.60024125349 0.0732356519367 0)
(9.53511685577 0.0748956567317 0)
(9.46621672507 0.077161874375 0)
(9.39270359351 0.0803498191444 0)
(9.31306295856 0.0851014481317 0)
(9.22569088892 0.0930570910287 0)
(9.11855052023 0.109902311651 0)
(10.0211947814 0.0581074930045 0)
(10.0532033743 0.0580696490112 0)
(10.0670442376 0.0564636384371 0)
(10.0709821041 0.0591146150423 0)
(10.072166183 0.0619045806314 0)
(10.0711273214 0.0641695424937 0)
(10.0672710372 0.0663452179838 0)
(10.0605856862 0.0686134676649 0)
(10.0512348239 0.0709933054012 0)
(10.0392420169 0.0735352390937 0)
(10.0244956651 0.0763537745564 0)
(10.0068092415 0.0796090159488 0)
(9.98592104911 0.0835103407434 0)
(9.96144702341 0.0883618084311 0)
(9.9328239251 0.0946660875499 0)
(9.89925812733 0.103342897893 0)
(9.8605242426 0.116230466127 0)
(9.81205850324 0.135173832412 0)
(10.0159573686 0.0476840420595 0)
(10.0430843624 0.0551646808559 0)
(10.0587724485 0.056865367383 0)
(10.0658896977 0.0608572875851 0)
(10.070696606 0.0645770664201 0)
(10.0742625042 0.0674915582027 0)
(10.0760935529 0.0701456502132 0)
(10.0760776025 0.0728458437226 0)
(10.0743089401 0.075686751428 0)
(10.0707824192 0.0787668860079 0)
(10.0653720989 0.0822433217975 0)
(10.0578937238 0.0863200340604 0)
(10.048126832 0.0912554751742 0)
(10.0358028833 0.0974120642042 0)
(10.0206100542 0.105353471283 0)
(10.0022631267 0.115997012708 0)
(9.9811230487 0.130828773604 0)
(9.95575953718 0.150835890026 0)
(10.011601616 0.0396195537756 0)
(10.0335613153 0.0511401216958 0)
(10.0484904135 0.0541140949755 0)
(10.0559369861 0.0578921847388 0)
(10.0608915179 0.061635096759 0)
(10.064736188 0.0647862371202 0)
(10.067123272 0.0677542928335 0)
(10.0679011594 0.0708557662386 0)
(10.0671488219 0.0742124749036 0)
(10.0648901963 0.0779324198404 0)
(10.0610413702 0.0821788549487 0)
(10.055466751 0.0871685245889 0)
(10.0480164399 0.0931796989719 0)
(10.0385384541 0.100594292076 0)
(10.0269126739 0.109970414279 0)
(10.013150466 0.12212497751 0)
(9.99779623726 0.138182549541 0)
(9.98062564942 0.158863543161 0)
(10.0084356277 0.0331921497211 0)
(10.0260201741 0.0468707998706 0)
(10.0397362578 0.0515426937185 0)
(10.0472745626 0.0559410427843 0)
(10.0522011383 0.0603785967666 0)
(10.0559753091 0.0642975278813 0)
(10.0584072277 0.0679612925564 0)
(10.059331103 0.0717080015515 0)
(10.0588041388 0.0757174991503 0)
(10.056868035 0.0801303297432 0)
(10.0534743046 0.0851274502372 0)
(10.0485304254 0.0909426068613 0)
(10.041946422 0.0978705770953 0)
(10.0336623173 0.106297028994 0)
(10.0236922804 0.116742973474 0)
(10.0122167934 0.129894670479 0)
(9.99983472418 0.146571424397 0)
(9.98678049174 0.167292890808 0)
(10.0061068979 0.028087894768 0)
(10.0200937177 0.042701811791 0)
(10.0323828875 0.0489078359617 0)
(10.0398218915 0.0538734704184 0)
(10.0446836405 0.0587011383576 0)
(10.0483460675 0.0630436281096 0)
(10.0507734333 0.0671109086322 0)
(10.0518093706 0.0712641533594 0)
(10.0514839591 0.0757339675983 0)
(10.0498441484 0.080686565464 0)
(10.0468703682 0.0863104863135 0)
(10.0425099589 0.0928429782417 0)
(10.0367264246 0.100577746662 0)
(10.0295346675 0.109881094873 0)
(10.021044622 0.121211257282 0)
(10.0115322399 0.135113816489 0)
(10.0015910998 0.152157528778 0)
(9.99156996124 0.172654902811 0)
(10.0044287927 0.0240316018883 0)
(10.0155079409 0.0387712363645 0)
(10.0263015673 0.0462042508904 0)
(10.0334826627 0.0517695098709 0)
(10.0382790424 0.0570088983287 0)
(10.0418685528 0.0618451662855 0)
(10.0443289055 0.0664519172465 0)
(10.0455259629 0.0711662779988 0)
(10.0454645058 0.0762355357935 0)
(10.0441915145 0.0818392087427 0)
(10.0417146981 0.0881678873136 0)
(10.0380215746 0.0954551596073 0)
(10.0331252872 0.103982548801 0)
(10.0271015196 0.114082907394 0)
(10.0201259779 0.126140531543 0)
(10.01252225 0.140567751776 0)
(10.0048466521 0.157736693305 0)
(9.99748267918 0.177791001606 0)
(10.0032201428 0.0207938258573 0)
(10.0119860318 0.0351621975178 0)
(10.0213253907 0.0434827775247 0)
(10.028123894 0.0496342492026 0)
(10.0328384797 0.0552711454343 0)
(10.0363823295 0.0605531657386 0)
(10.0388975429 0.0656439919272 0)
(10.0402825074 0.0708488219934 0)
(10.0405272423 0.076425572116 0)
(10.0396787273 0.0825717200036 0)
(10.0377698025 0.0894838852321 0)
(10.0348254609 0.0973891094672 0)
(10.0309014458 0.106548107781 0)
(10.0261185133 0.117250379481 0)
(10.0206914237 0.129802934785 0)
(10.0149563329 0.144500023923 0)
(10.0094095657 0.161564403387 0)
(10.004422238 0.181018227199 0)
(10.0023539166 0.0181901297207 0)
(10.009306506 0.0319048242188 0)
(10.0173065391 0.0407846506245 0)
(10.0236414361 0.0474565270813 0)
(10.0282530934 0.0534692242462 0)
(10.0317797355 0.0591590196534 0)
(10.0343829318 0.064708049306 0)
(10.0359958091 0.0703939809835 0)
(10.0366031448 0.076475062507 0)
(10.0362510145 0.0831580589968 0)
(10.0349916652 0.090637308682 0)
(10.0328807974 0.0991227572216 0)
(10.0300070009 0.108843001706 0)
(10.0265204172 0.120036398389 0)
(10.0226528147 0.132934367295 0)
(10.0187295998 0.147731620264 0)
(10.0151786788 0.164541397061 0)
(10.0123702271 0.183308273388 0)
(10.0017328426 0.0160773200844 0)
(10.0072831249 0.0290068625921 0)
(10.0141028792 0.0381640174631 0)
(10.0199412607 0.0452510002289 0)
(10.0244346873 0.0515988094885 0)
(10.0279730369 0.0576480302305 0)
(10.0307018262 0.0636086183142 0)
(10.0325833024 0.0697334540577 0)
(10.033603795 0.0762694005738 0)
(10.0338083459 0.0834219124715 0)
(10.0332629882 0.0913765673118 0)
(10.0320467992 0.100321464283 0)
(10.0302716953 0.110449897818 0)
(10.028103686 0.12195003957 0)
(10.0257747612 0.13498708983 0)
(10.0235843992 0.149677731688 0)
(10.021888651 0.166059551261 0)
(10.0210542758 0.184034396389 0)
(10.0013223191 0.0144473961764 0)
(10.0058927127 0.0266095228377 0)
(10.0117903767 0.0358297505317 0)
(10.017180011 0.0431991320102 0)
(10.0215612771 0.04981192273 0)
(10.0251383755 0.0561473859935 0)
(10.0280209101 0.0624391855891 0)
(10.0301890507 0.0689214087095 0)
(10.03163405 0.0758250116757 0)
(10.0324002636 0.0833476970841 0)
(10.032561302 0.0916632136633 0)
(10.0322100754 0.100937212089 0)
(10.0314705049 0.111329555884 0)
(10.0305118397 0.122984213374 0)
(10.0295545109 0.1360131874 0)
(10.0288666071 0.150476475277 0)
(10.0287435233 0.166362457566 0)
(10.0295608552 0.183549934773 0)
(10.001018991 0.0130905746953 0)
(10.0048276495 0.0244740454449 0)
(10.0099507354 0.0335845360481 0)
(10.0149232444 0.0411174508348 0)
(10.0191957524 0.0479345502235 0)
(10.022830391 0.0545023010156 0)
(10.0258936235 0.0610676418632 0)
(10.0283758231 0.0678493577668 0)
(10.0302745491 0.0750590691958 0)
(10.0316341375 0.0828806344532 0)
(10.0325322672 0.0914718078792 0)
(10.0330699289 0.100974404247 0)
(10.0333764454 0.111515439238 0)
(10.0336174129 0.123198853317 0)
(10.0339958714 0.136092235524 0)
(10.0347456923 0.150212404982 0)
(10.036103372 0.165513653452 0)
(10.0384569476 0.181860244481 0)
(10.0007712001 0.0117573649142 0)
(10.0039379031 0.0222683451156 0)
(10.008367836 0.0311120102142 0)
(10.0129422552 0.0387014651666 0)
(10.017123369 0.0456690551537 0)
(10.0208648263 0.0524312472674 0)
(10.0241845232 0.05923408955 0)
(10.0270748744 0.0662789488956 0)
(10.0295386379 0.0737530218776 0)
(10.0316189834 0.0818188682564 0)
(10.033393161 0.0906122269502 0)
(10.0349631434 0.100246751005 0)
(10.0364552 0.110814408715 0)
(10.038022137 0.122379390421 0)
(10.0398406606 0.134969114887 0)
(10.0421041572 0.14856525374 0)
(10.0449892665 0.163099220058 0)
(10.0489045155 0.178434760481 0)
(10.0005823741 0.0104434475169 0)
(10.0032514162 0.0199974382632 0)
(10.0071171738 0.028397860151 0)
(10.0113583474 0.035881925361 0)
(10.0154932484 0.0428858170681 0)
(10.0194082654 0.0497510146507 0)
(10.02307604 0.0567036045252 0)
(10.0264833552 0.0639217373942 0)
(10.0296348004 0.0715631119685 0)
(10.0325701599 0.0797619783949 0)
(10.0353608019 0.0886260333177 0)
(10.0381014587 0.0982375325433 0)
(10.0409061275 0.108653260609 0)
(10.0439059779 0.119901048262 0)
(10.0472444394 0.131974793745 0)
(10.051070828 0.144830851862 0)
(10.0555035748 0.158387522076 0)
(10.0609771603 0.172514884768 0)
(10.0004544493 0.00911458760392 0)
(10.0027863612 0.0176102598502 0)
(10.0062640858 0.0253699187148 0)
(10.010297152 0.0325394148889 0)
(10.0144789611 0.0394046719921 0)
(10.0186660052 0.0462212738982 0)
(10.0227960319 0.053176472506 0)
(10.0268448053 0.0604165373255 0)
(10.0308135661 0.06806445705 0)
(10.0347346127 0.0762205688346 0)
(10.0386672918 0.0849599903803 0)
(10.0426906761 0.0943324728989 0)
(10.0468977115 0.104362186882 0)
(10.0513906429 0.115046712233 0)
(10.0562754655 0.126355481215 0)
(10.0616571697 0.138229647058 0)
(10.0676003716 0.150584352601 0)
(10.07456989 0.163302014227 0)
(10.0003876135 0.00769487564404 0)
(10.0025535543 0.0149787873383 0)
(10.0058606449 0.0218595056957 0)
(10.0098733657 0.0284459537841 0)
(10.0142524851 0.0349178585246 0)
(10.0188491717 0.0414468053568 0)
(10.0235790128 0.0481681975243 0)
(10.0284046521 0.0551878418063 0)
(10.0333182082 0.0625898475904 0)
(10.0383392008 0.0704375234288 0)
(10.0435089445 0.0787722167558 0)
(10.0488838209 0.0876128788013 0)
(10.0545291252 0.0969565661277 0)
(10.0605140466 0.106778713062 0)
(10.0669063001 0.11703419548 0)
(10.073769864 0.127658675026 0)
(10.081122634 0.138572380271 0)
(10.0894620888 0.149675114144 0)
(10.0003809301 0.00604913667942 0)
(10.0025612975 0.0118660430274 0)
(10.0059505007 0.017559894393 0)
(10.0101879869 0.0232282613706 0)
(10.0149710808 0.0289745530393 0)
(10.0201529385 0.0348932068984 0)
(10.0256367957 0.0410613990369 0)
(10.0313724114 0.0475385748739 0)
(10.0373382597 0.0543674095641 0)
(10.0435364338 0.0615740138615 0)
(10.0499860379 0.069167692342 0)
(10.0567170021 0.0771411164648 0)
(10.0637645245 0.0854710060269 0)
(10.0711647242 0.0941192499981 0)
(10.0789503723 0.103034570521 0)
(10.0871508013 0.112154673583 0)
(10.0957471071 0.12140931064 0)
(10.1052685735 0.130717018345 0)
(10.0004502688 0.0039201461101 0)
(10.0028658155 0.00780166729003 0)
(10.0066550828 0.0118485055908 0)
(10.0114376137 0.0161468838936 0)
(10.0168979151 0.0207247574931 0)
(10.0228852204 0.0255972387915 0)
(10.0292970191 0.0307799812315 0)
(10.0360722309 0.0362839794073 0)
(10.0431737897 0.0421109405843 0)
(10.050584618 0.0482524210313 0)
(10.0583013119 0.054690585079 0)
(10.0663282418 0.0613982854168 0)
(10.0746726566 0.0683396279778 0)
(10.0833414575 0.0754707110278 0)
(10.0923381602 0.0827413159906 0)
(10.1016643791 0.0900965521183 0)
(10.1112725398 0.0974791321569 0)
(10.1217181161 0.104827022166 0)
(10.0006030896 0.00159019422936 0)
(10.0034686143 0.00336310119605 0)
(10.0079455548 0.00562941233447 0)
(10.0135061303 0.00844299272125 0)
(10.0197673404 0.01173237684 0)
(10.0265774002 0.0154291594877 0)
(10.0338445972 0.0194951091556 0)
(10.0415063533 0.0239022789531 0)
(10.0495158506 0.0286205161532 0)
(10.0578444034 0.0336170767586 0)
(10.0664759788 0.0388575144899 0)
(10.0754004475 0.0443050361548 0)
(10.0846090397 0.0499194468496 0)
(10.094092484 0.0556575063317 0)
(10.103839211 0.0614738202903 0)
(10.1138377136 0.0673225604831 0)
(10.124028335 0.0731586357098 0)
(10.1349746678 0.078936546 0)
(10.0007977955 -0.000683478502764 0)
(10.0042361237 -0.000884590134909 0)
(10.0095301125 -0.000165013955585 0)
(10.0159108397 0.00142617512522 0)
(10.022913042 0.00366376987211 0)
(10.0304147704 0.00639264863881 0)
(10.0383576561 0.009535633115 0)
(10.0466862071 0.0130361315878 0)
(10.0553509493 0.0168389473394 0)
(10.0643211785 0.0208941810958 0)
(10.0735782227 0.0251580274948 0)
(10.0831062967 0.0295897599924 0)
(10.0928886644 0.0341485830118 0)
(10.102907618 0.0387934720305 0)
(10.1131443206 0.043483290712 0)
(10.1235816951 0.0481780087398 0)
(10.1341557619 0.0528389142925 0)
(10.1454464332 0.0574275127017 0)
(10.0010903297 -0.00316135691033 0)
(10.0053556905 -0.00534844597448 0)
(10.0117066849 -0.00598471846481 0)
(10.019002125 -0.00538835026308 0)
(10.0267251919 -0.00402228828355 0)
(10.0348476606 -0.00211162736477 0)
(10.0433653712 0.000251683811545 0)
(10.0522283744 0.0029913434251 0)
(10.0613872539 0.00603254048217 0)
(10.0708178851 0.00931298693807 0)
(10.0805057689 0.012784872115 0)
(10.0904343747 0.0164055096643 0)
(10.1005832639 0.0201336915557 0)
(10.1109302963 0.0239293610124 0)
(10.1214521457 0.0277546106279 0)
(10.1321271244 0.0315736217615 0)
(10.1428858962 0.0353536112389 0)
(10.1543037302 0.039063561193 0)
(10.001557291 -0.00599054489238 0)
(10.007019188 -0.0101534601941 0)
(10.0146994979 -0.0118540029623 0)
(10.0229519858 -0.0119840179305 0)
(10.0313294659 -0.0113114743032 0)
(10.0399988137 -0.0100857240689 0)
(10.0490207499 -0.00839664354739 0)
(10.0583432502 -0.00634553765233 0)
(10.0679198667 -0.00402404308259 0)
(10.077735374 -0.00149169356012 0)
(10.0877808441 0.00120944485697 0)
(10.0980385062 0.00404231683946 0)
(10.1084854653 0.00696936625052 0)
(10.1190986594 0.00995347281558 0)
(10.1298539099 0.0129609791764 0)
(10.1407300114 0.0159599038191 0)
(10.1516602288 0.0189193691533 0)
(10.1632404214 0.0218086993116 0)
(10.0022822291 -0.00936554582282 0)
(10.0094716962 -0.0153718567343 0)
(10.0187595092 -0.0176885241479 0)
(10.0279251246 -0.0182472825807 0)
(10.0368393482 -0.0180778723074 0)
(10.0459548112 -0.0173359532976 0)
(10.0553684046 -0.0160893985172 0)
(10.0650131272 -0.0144745105252 0)
(10.0748601338 -0.0126053365675 0)
(10.0849192397 -0.0105471037345 0)
(10.0951911632 -0.00834077412332 0)
(10.1056573274 -0.00602178262072 0)
(10.1162903228 -0.00362329973494 0)
(10.1270622173 -0.00117557226985 0)
(10.1379458019 0.00129144693883 0)
(10.1489144789 0.0037480930162 0)
(10.159893429 0.00616314026304 0)
(10.171456864 0.00850364434227 0)
(10.0035151074 -0.013572432354 0)
(10.0131601214 -0.0210307642924 0)
(10.024266694 -0.0233881302857 0)
(10.0342024904 -0.0241781977246 0)
(10.043556673 -0.0244983818989 0)
(10.0531055774 -0.0243002515372 0)
(10.0629093818 -0.0236246664892 0)
(10.0728664148 -0.0226200109066 0)
(10.082970784 -0.0213877266767 0)
(10.0932574351 -0.0199763139538 0)
(10.1037354778 -0.018418620202 0)
(10.1143868413 -0.016746419614 0)
(10.1251848284 -0.0149889072297 0)
(10.1361027592 -0.0131708295666 0)
(10.1471117871 -0.0113146592148 0)
(10.1581818328 -0.00944540603854 0)
(10.169235766 -0.0075967721716 0)
(10.1808727725 -0.00581653702706 0)
(10.0053787951 -0.0189711393022 0)
(10.0183995644 -0.0270019993067 0)
(10.0313407417 -0.0286965788688 0)
(10.0417177094 -0.0293317912312 0)
(10.05129436 -0.0296323610087 0)
(10.0611197623 -0.0293837472676 0)
(10.0711616308 -0.0287187704597 0)
(10.081299685 -0.0278255217522 0)
(10.0915603926 -0.0267838097013 0)
(10.1019950195 -0.0256192248688 0)
(10.1126120292 -0.0243552317605 0)
(10.1233912839 -0.0230185754917 0)
(10.1343073427 -0.0216305108983 0)
(10.1453347787 -0.0202037618031 0)
(10.1564416164 -0.0187462273782 0)
(10.1675854701 -0.0172684188415 0)
(10.1786620919 -0.0157960107469 0)
(10.190199576 -0.0143901299484 0)
(10.0085519457 -0.026051974051 0)
(10.0260567043 -0.0331330917198 0)
(10.0406980243 -0.0342799096771 0)
(10.0513622148 -0.0356716722242 0)
(10.0612193246 -0.0367679386768 0)
(10.0713416059 -0.0371252838611 0)
(10.0815640931 -0.0370030917358 0)
(10.0917976081 -0.0366308110465 0)
(10.1021209997 -0.0360759260668 0)
(10.1125992923 -0.0353591406607 0)
(10.123238067 -0.0345119919743 0)
(10.1340182162 -0.0335711264893 0)
(10.1449208318 -0.032563443172 0)
(10.1559277153 -0.0315016024666 0)
(10.1670106872 -0.030386736138 0)
(10.1781228721 -0.0292138562209 0)
(10.1891381384 -0.0279876037444 0)
(10.2005370067 -0.026768669592 0)
(10.0128510544 -0.0352994022578 0)
(10.0355838783 -0.0374562499661 0)
(10.0506654975 -0.035619529485 0)
(10.0607021156 -0.0360943886866 0)
(10.0702145784 -0.0368077875541 0)
(10.079920046 -0.0370504520236 0)
(10.0894717718 -0.0370512585465 0)
(10.0988365196 -0.0369636572232 0)
(10.1081513298 -0.0367867659508 0)
(10.1174971949 -0.03650096322 0)
(10.126885638 -0.0361144354461 0)
(10.1363113175 -0.0356485387922 0)
(10.1457761958 -0.0351192966505 0)
(10.1552852139 -0.0345303267387 0)
(10.1648331729 -0.0338706612877 0)
(10.1743906156 -0.033107629535 0)
(10.1838196639 -0.0321780426807 0)
(10.1933420183 -0.0309813131579 0)
(10.0163413972 -0.0493078514874 0)
(10.0399522625 -0.0507665039466 0)
(10.0462800721 -0.0485958489113 0)
(10.0449327718 -0.0485755914985 0)
(10.0420766868 -0.0486161559794 0)
(10.0383052736 -0.0482625302863 0)
(10.0334067728 -0.0477646898246 0)
(10.0276377277 -0.0472499881278 0)
(10.0213736318 -0.0467163861019 0)
(10.0148659526 -0.0461474385604 0)
(10.0082617702 -0.0455458453165 0)
(10.001674184 -0.044922956911 0)
(9.99520941119 -0.04428601125 0)
(9.98896396348 -0.0436332317973 0)
(9.98301969278 -0.0429502336304 0)
(9.97744967553 -0.0421928201935 0)
(9.97227897661 -0.0412459720477 0)
(9.9674953798 -0.0394263732147 0)
(9.8528091948 -0.0292013091115 0)
(9.72377155543 -0.0315176012128 0)
(9.57971127722 -0.0315770239952 0)
(9.4370919025 -0.0321343883463 0)
(9.30234456258 -0.0324124557691 0)
(9.17502507654 -0.0323390977737 0)
(9.05417394262 -0.0320847569356 0)
(8.93951376816 -0.0317426862232 0)
(8.8309380245 -0.0313407340564 0)
(8.72823206547 -0.0308921732054 0)
(8.63110550491 -0.0304116995856 0)
(8.53927280999 -0.0299133815876 0)
(8.45248014328 -0.0294068683485 0)
(8.37049683846 -0.0288963770822 0)
(8.29310839902 -0.0283796290482 0)
(8.22012692723 -0.0278377142767 0)
(8.15163384549 -0.0272039163322 0)
(8.08601255538 -0.0258264712485 0)
(0.0281202360997 -0.11473028052 1.76880805664e-19)
(0.0625544995964 -0.112513311267 0)
(0.0941367410006 -0.116139486902 0)
(0.0835791729226 -0.0762146228223 0)
(0.0267828580624 0.0374556891693 0)
(-0.117474879768 0.146246813476 -1.15102482489e-19)
(-0.238009015886 0.159737800887 0)
(-0.36946383949 0.16540209335 0)
(-0.509151798602 0.170599562685 3.98419014054e-20)
(-0.65596302861 0.175101875613 0)
(-0.809034927689 0.17879183355 -2.83484026738e-20)
(-0.96759865471 0.181700313838 0)
(-1.13096226184 0.183900067677 -2.29400679354e-20)
(-1.29850194315 0.18547120691 -2.13356515102e-20)
(-1.46965665399 0.186489608925 0)
(-1.6439206721 0.18702418206 1.93724386162e-20)
(-1.82083948751 0.187135735828 1.88119802204e-20)
(-2.00000304652 0.186877797556 1.84468478422e-20)
(-2.18104254671 0.186296540151 0)
(-2.36362429262 0.185431992367 0)
(-2.54744632502 0.184317864086 0)
(-2.73223265818 0.182982599557 0)
(-2.91773000467 0.181449124034 0)
(-3.10370224782 0.179735895137 0)
(-3.28992685132 0.177856465979 -1.88324527e-20)
(-3.47618974212 0.175820535197 -1.91126777748e-20)
(-3.66228143803 0.173633591588 0)
(-3.84799227399 0.171297910247 1.97542257904e-20)
(-4.03310889002 0.168812202542 2.01055850786e-20)
(-4.21740999063 0.1661727028 2.04718686275e-20)
(-4.40066299712 0.163372964195 0)
(-4.58262053277 0.160404983716 0)
(-4.76301815231 0.157259065304 -2.16276578833e-20)
(-4.941572049 0.153925102514 0)
(-5.11797783672 0.150392620997 0)
(-5.29190980897 0.146652108028 -2.28131331199e-20)
(-5.46302178417 0.142695137037 0)
(-5.63094850824 0.138515843745 0)
(-5.79530864159 0.134111070599 0)
(-5.95570870271 0.129481740428 0)
(-6.11174839075 0.124632830428 0)
(-6.26302662884 0.119574443521 5.00895695551e-20)
(-6.40914854285 0.114321439842 0)
(-6.54973290865 0.108894053858 0)
(-6.68441999074 0.103316990675 5.19947972106e-20)
(-6.81287915769 0.0976193242652 5.25624577677e-20)
(-6.93481576922 0.0918328905872 0)
(-7.04997669897 0.085991575497 0)
(-7.15815402597 0.0801293710975 5.40332032202e-20)
(-7.25918650532 0.0742795656993 0)
(-7.35295895677 0.0684730228066 -5.48039628078e-20)
(-7.43939916466 0.0627375296365 0)
(-7.51847338556 0.0570963473474 5.53952012019e-20)
(-7.59018142447 0.0515682293658 0)
(-7.65455214788 0.0461671581104 5.57991384385e-20)
(-7.71164117767 0.0409028397642 5.59289152619e-20)
(-7.76152655969 0.0357799742154 0)
(-7.8043042644 0.0307988882698 0)
(-7.84008256804 0.0259572979646 0)
(-7.86897625784 0.0212537808144 5.59536942328e-20)
(-7.89111223598 0.0166901009049 0)
(-7.90663128094 0.0122710303907 0)
(-7.91570344494 0.00800273261828 0)
(-7.91854689909 0.00391027599744 0)
(-7.91548516844 5.05064344226e-05 0)
(-7.90689149595 -0.00350001481017 0)
(-7.89319814439 -0.00668630022412 0)
(-7.87488837533 -0.00948899905631 -5.33831224225e-20)
(-7.85247136924 -0.0119065910573 0)
(-7.82646265048 -0.01395046611 -5.22723465792e-20)
(-7.79736943194 -0.0156440587597 -5.16668677209e-20)
(-7.76567453398 -0.0170201414397 0)
(-7.73181939124 -0.0181214180607 5.03697871381e-20)
(-7.69618574855 -0.0189983176071 0)
(-7.65907728895 -0.0197103941622 -4.89717857982e-20)
(-7.62070089026 -0.0203246162678 0)
(-7.581148387 -0.0209181031681 4.74776477975e-20)
(-7.5403778598 -0.021576771099 -4.66902798316e-20)
(-7.49819254833 -0.0223984703769 0)
(-7.45421480544 -0.0234923446212 0)
(-7.4078544472 -0.024983393178 0)
(-7.35826896991 -0.0270100010545 0)
(-7.30431611201 -0.0297251364629 -4.20569192678e-20)
(-7.24450277414 -0.0332891672506 4.08819411449e-20)
(-7.17694901697 -0.0378656225822 -7.91247457884e-20)
(-7.09938710209 -0.0436022788914 -7.6116258699e-20)
(-7.00921186142 -0.050614018977 -7.2645049411e-20)
(-6.90359132646 -0.0589550504689 0)
(-6.77963490673 -0.0686016228178 0)
(-6.63462168783 -0.0794320885429 0)
(-6.46624385051 -0.0912227634403 -5.20095726521e-20)
(-6.27285237119 -0.103664830218 0)
(-6.05363946435 -0.116389492575 0)
(-5.80874661543 -0.129000586927 -2.66540709337e-20)
(-5.53929602601 -0.141107472392 0)
(-5.2473370449 -0.152350883644 3.87033065347e-21)
(-4.9357215906 -0.162418234505 0)
(-4.60790875784 -0.171030229274 2.43391501115e-20)
(-4.26775576303 -0.177911040148 0)
(-3.91926779444 -0.182768943144 0)
(-3.5664068695 -0.185312212457 0)
(-3.2129187352 -0.185308736813 1.02657896882e-19)
(-2.86200676562 -0.182645427585 0)
(-2.51664858074 -0.17746379621 1.59626113349e-19)
(-2.1792375385 -0.170278816127 1.95770331954e-19)
(-1.85193956181 -0.162186754885 0)
(-1.53663427855 -0.154604957096 0)
(-1.23585655042 -0.149844926012 0)
(-0.949949248835 -0.149753887416 4.57684447896e-19)
(-0.678968403178 -0.155558857509 0)
(-0.424585079177 -0.163094403338 0)
(-0.169321931351 -0.170332734003 1.10114798053e-18)
(0.0711258228445 -0.186330694709 1.70844734619e-18)
(0.357409216504 -0.197803757583 0)
(0.530774207004 -0.179283846735 -1.28173616359e-18)
(0.675969132799 -0.152976779455 -8.98828338932e-19)
(0.819983443224 -0.128753999031 7.14312148404e-19)
(0.960343568552 -0.108477123775 0)
(1.0933200276 -0.091658265775 0)
(1.21723457358 -0.0776203531816 0)
(1.33135717265 -0.0658027462951 -4.38816767327e-19)
(1.4354734277 -0.055753894923 0)
(1.52967479919 -0.0471356828878 -3.83554262594e-19)
(1.61422991613 -0.0396773951282 0)
(1.6895234186 -0.0331807777715 0)
(1.75600279777 -0.0274800696252 0)
(1.81415446059 -0.0224553064153 3.2320863322e-19)
(1.86446909085 -0.0180019498066 3.14078801285e-19)
(1.90743703149 -0.014047675937 0)
(1.94353063725 -0.0105278983367 0)
(1.97321043817 -0.00740417093693 0)
(1.99691124054 -0.00464651190427 0)
(2.01504766155 -0.00224800770361 0)
(2.028021786 -0.000191433925616 0)
(2.0362929213 0.00153562383471 5.68270485043e-19)
(2.04075917973 0.0029416860144 0)
(2.04212584554 0.00407032064536 0)
(2.04060394286 0.00499855862736 0)
(2.0364112532 0.00577308647242 -5.61972306602e-19)
(2.02975983512 0.00641977999606 -5.62504295059e-19)
(2.02086983749 0.00695418814724 5.63794729498e-19)
(2.00995808058 0.00739160148001 5.65782466394e-19)
(1.9972294646 0.00774422798166 0)
(1.98287114853 0.00802275206596 0)
(1.96705457889 0.00823562343449 0)
(1.94993840412 0.0083910027138 5.79709892353e-19)
(1.9316699303 0.00849535670744 0)
(1.91238586491 0.0085552772853 0)
(1.8922134412 0.00857563741277 -5.95445354148e-19)
(1.87127021174 0.00856075522572 0)
(1.84966476079 0.00851394641428 -6.08057188733e-19)
(1.82749834874 0.00843919791914 0)
(1.80486574274 0.00833967353529 -6.22175217096e-19)
(1.78185535313 0.00821804761091 0)
(1.75854924474 0.00807603564769 0)
(1.73502276533 0.00791599153301 0)
(1.71134580025 0.00774111824922 0)
(1.68758475266 0.00755400468323 0)
(1.66380103166 0.00735423718589 0)
(1.64004830642 0.00714257280945 0)
(1.61637492888 0.00692249585172 0)
(1.59282763165 0.00669802855693 -7.00817852319e-19)
(1.56944738423 0.00646964363282 0)
(1.54626588294 0.00623824130843 0)
(1.5233078507 0.0060057636922 -7.31325758556e-19)
(1.50059220941 0.00577450639248 0)
(1.47812910508 0.00554521621839 0)
(1.45591412555 0.00532102255369 -7.63513695537e-19)
(1.43392758093 0.00510924803482 0)
(1.41213418262 0.00491614315271 0)
(1.39047431763 0.00474456526196 -7.97522315486e-19)
(1.36885117597 0.00460205550622 8.0941672172e-19)
(1.34711982847 0.00450408005606 -8.2172297645e-19)
(1.32507338966 0.00447495957068 0)
(1.30240785889 0.00454601719958 0)
(1.27865315921 0.00476694321359 -1.72606060778e-18)
(1.2530934271 0.00522537343496 0)
(1.22418264355 0.00613218407451 1.79741610934e-18)
(1.19282178408 0.00772050955706 1.84491861776e-18)
(1.11722404482 0.0146230523947 0)
(-0.0113142538583 -0.121323563797 -5.43777430423e-19)
(-0.0650279872282 -0.00181663990692 0)
(-0.169710746619 0.144214194053 1.80019933452e-19)
(-0.266680331804 0.22086359075 -1.15499236114e-19)
(-0.365327230402 0.284083395096 -8.46327540541e-20)
(-0.471078249198 0.336254923954 3.38699202891e-20)
(-0.585632529678 0.369758349056 5.80796284229e-20)
(-0.71218412942 0.395545224858 0)
(-0.848924487101 0.416525008833 -2.21467165732e-20)
(-0.993829085698 0.433787864444 4.06755537639e-20)
(-1.14544746098 0.448002411433 5.59066048667e-20)
(-1.3026985618 0.459639918993 -3.51387916681e-20)
(-1.46471746322 0.46905820136 4.97687965381e-20)
(-1.63078175858 0.476544811309 1.57415676862e-20)
(-1.80027298986 0.482339508543 0)
(-1.97265273458 0.486647498602 -1.50660361678e-20)
(-2.14744831356 0.489646484245 -1.49368774094e-20)
(-2.32424141002 0.491491732732 -1.49131361075e-20)
(-2.50266069831 0.492318461748 3.06078074024e-20)
(-2.68237441876 0.492244366244 0)
(-2.86308516755 0.491370372467 3.12401011258e-20)
(-3.04452367188 0.489782227759 0)
(-3.22644415796 0.487550603126 -3.22716485954e-20)
(-3.40861892996 0.4847324658 0)
(-3.59083382179 0.481370985091 5.00865669774e-20)
(-3.77288289568 0.477496868771 -1.74382983268e-20)
(-3.95456396856 0.473128362161 -3.50882951918e-20)
(-4.13567382343 0.468272690079 -5.35730924407e-20)
(-4.31600402549 0.462926239619 -1.81007193116e-20)
(-4.49533649356 0.45707630968 -1.85329272418e-20)
(-4.67343974179 0.45070164513 0)
(-4.85006537163 0.443774501964 -3.93353135055e-20)
(-5.02494533842 0.436261575626 1.98672992974e-20)
(-5.19778958014 0.428126574433 0)
(-5.36828468224 0.419331630735 0)
(-5.53609331774 0.409840266672 2.12162760632e-20)
(-5.70085494393 0.399619212626 0)
(-5.86218756835 0.388641802856 0)
(-6.0196910772 0.376889970279 0)
(-6.17295188628 0.364357538398 0)
(-6.32154898372 0.351051762883 0)
(-6.46506084015 0.336995805547 4.84618289423e-20)
(-6.60307328055 0.322229227297 9.75734211066e-20)
(-6.73518787092 0.306809116188 0)
(-6.86103116134 0.290808811018 5.06934781556e-20)
(-6.98026313673 0.274316698457 -5.05145161619e-20)
(-7.0925846628 0.257432603932 0)
(-7.19774337569 0.240264549562 0)
(-7.29553638685 0.222923803626 -1.57947621909e-19)
(-7.38581370572 0.205521005131 -1.06631064678e-19)
(-7.46847422505 0.188161244391 5.34322727794e-20)
(-7.54346267513 0.170940897307 1.08508310631e-19)
(-7.61076434984 0.153943983822 5.50051379322e-20)
(-7.67039395083 0.13724170015 0)
(-7.72240771216 0.120892099736 -1.6565120474e-19)
(-7.76688170677 0.104939845392 -5.5278131702e-20)
(-7.80391568725 0.0894159359657 0)
(-7.83362564431 0.0743423369719 1.11936458983e-19)
(-7.85610735112 0.0597389814129 -1.12169714281e-19)
(-7.87153186512 0.0456322057456 -5.58886183029e-20)
(-7.88002966203 0.0320552337064 0)
(-7.88175037792 0.0190549211763 0)
(-7.87685123328 0.0067174823594 0)
(-7.8663748891 -0.00482241590859 1.1131841826e-19)
(-7.85059280782 -0.015432933209 0)
(-7.8297928353 -0.0250170382797 -1.09879094637e-19)
(-7.80438819024 -0.033538871925 0)
(-7.7748319096 -0.0409895046843 -5.41777048388e-20)
(-7.74156954854 -0.0473842310444 0)
(-7.70504412556 -0.0527612875131 -5.30935909856e-20)
(-7.66568808409 -0.0571827410653 -5.25052143483e-20)
(-7.62391305082 -0.0607314465679 0)
(-7.58009755211 -0.063512100527 -5.11135560404e-20)
(-7.53457296844 -0.0656489939848 0)
(-7.48760839163 -0.0672891462063 4.98057382746e-20)