/*--------------------------------*- C++ -*----------------------------------*\
| =========                 |                                                 |
| \\      /  F ield         | OpenFOAM: The Open Source CFD Toolbox           |
|  \\    /   O peration     | Version:  v1806                                 |
|   \\  /    A nd           | Web:      www.OpenFOAM.com                      |
|    \\/     M anipulation  |                                                 |
\*---------------------------------------------------------------------------*/
FoamFile
{
    version     2.0;
    format      ascii;
    class       volScalarField;
    location    "22";
    object      p;
}
// * * * * * * * * * * * * * * * * * * * * * * * * * * * * * * * * * * * * * //

dimensions      [0 2 -2 0 0 0 0];


internalField   nonuniform List<scalar> 
12225
(
-4.54366061232
-5.29301403664
-5.53123435544
-5.59209564242
-5.63916028036
-5.67857850115
-5.69770914188
-5.69487909837
-5.6717568921
-5.62827148998
-5.56275376591
-5.47270503183
-5.35485976095
-5.20461322807
-5.0152050153
-4.77637756662
-4.47017941283
-4.0655863304
-4.71747339008
-5.30365385292
-5.53672764605
-5.60127538592
-5.64671030988
-5.68455179797
-5.70302570776
-5.69994768303
-5.67677506604
-5.63345005252
-5.56833744544
-5.47897872075
-5.36218713071
-5.21353554075
-5.02664477847
-4.79227594343
-4.4963571606
-4.14811625272
-4.86026717475
-5.29066824155
-5.52416111715
-5.60130202356
-5.64858927646
-5.68662343547
-5.70607883404
-5.70424111414
-5.68236725927
-5.64058843535
-5.5774870383
-5.49082867115
-5.37776134097
-5.23447939097
-5.05585120539
-4.83545701986
-4.56664590169
-4.26616424244
-4.98508698781
-5.30328358215
-5.52846384337
-5.61495732219
-5.66226874863
-5.69862107299
-5.71778166782
-5.71645611268
-5.69552969034
-5.65529270648
-5.59457681087
-5.51142802314
-5.40343965533
-5.26763724298
-5.10046083665
-4.89848150426
-4.66062875485
-4.40330640428
-5.09630768018
-5.33083311576
-5.53500924838
-5.62560960316
-5.67284851254
-5.70768183521
-5.72687615293
-5.72673108247
-5.70763838033
-5.66997929915
-5.61286318071
-5.53468516867
-5.43358093997
-5.3075192963
-5.15455033353
-4.97382624882
-4.76788841878
-4.55151142277
-5.1961455414
-5.36882498885
-5.54745427032
-5.63968450673
-5.68816921046
-5.72233023029
-5.74187928566
-5.74328576729
-5.72652877437
-5.69205869936
-5.63931148598
-5.56711276597
-5.47421179187
-5.35954200336
-5.22262461563
-5.06461620325
-4.89018026569
-4.71257847059
-5.28666760868
-5.41418255554
-5.56640641324
-5.65683937488
-5.70609127849
-5.73942624715
-5.75904004847
-5.76199625532
-5.74792107773
-5.71724964824
-5.66973126893
-5.60465098761
-5.52138186816
-5.41975336809
-5.30051105236
-5.16621983965
-5.02257755122
-4.88125918976
-5.36970469643
-5.46451030231
-5.59178935776
-5.67766200771
-5.72724818163
-5.76024598525
-5.78036759834
-5.7854288657
-5.77480144783
-5.74886150395
-5.707657453
-5.65094775885
-5.57870998601
-5.491554144
-5.39116444398
-5.28098213638
-5.16700700723
-5.05928485028
-5.44681284093
-5.51808430232
-5.62319652751
-5.70264826541
-5.75194459915
-5.78493733423
-5.80586015067
-5.81332034546
-5.80661412671
-5.78607879645
-5.75203871382
-5.70470472782
-5.64459714491
-5.57295307243
-5.49210001832
-5.40591071649
-5.32019664179
-5.24335237981
-5.51930333557
-5.57372702043
-5.6600209759
-5.73212206008
-5.78051047892
-5.81379417604
-5.83594849531
-5.84627421961
-5.84413829398
-5.82985729052
-5.80397585511
-5.76709018022
-5.72016659031
-5.66489601709
-5.60397710422
-5.54137055469
-5.48242075872
-5.43396685864
-5.58825521895
-5.63065776691
-5.70154882358
-5.76619877548
-5.81323986161
-5.84709246053
-5.8709715475
-5.88467286105
-5.88772151113
-5.88044058625
-5.8635419107
-5.83792987486
-5.80490991131
-5.76646189083
-5.72542586873
-5.68560391946
-5.65171505612
-5.6291716425
-5.64908517817
-5.68370134766
-5.74336429985
-5.80161938973
-5.84723439517
-5.88185995013
-5.90779989336
-5.92510258687
-5.93346932937
-5.93325530197
-5.92527956377
-5.91064584531
-5.89085921301
-5.86802214217
-5.8449322845
-5.82509907155
-5.81262840021
-5.81182200882
-5.70781132014
-5.73673294981
-5.78749543114
-5.84012321712
-5.88437181829
-5.9199957011
-5.94838973582
-5.96970180273
-5.98379774626
-5.99107604739
-5.99242465542
-5.98906667816
-5.98262311921
-5.97520177942
-5.96945858814
-5.96852416743
-5.97588046017
-5.99477506829
-5.7731427521
-5.79751334144
-5.8407210964
-5.88819071701
-5.93123519429
-5.96836785547
-6.00010430266
-6.02656373309
-6.04775199676
-6.06411458874
-6.07656443676
-6.08638232035
-6.0951924425
-6.10500821228
-6.11820540879
-6.13744235263
-6.16552073992
-6.20469206508
-5.84534715541
-5.86640668836
-5.90384594572
-5.94724280012
-5.98968799011
-6.02911596111
-6.0653260348
-6.09831115818
-6.12815431701
-6.15532298997
-6.18070553596
-6.20553218818
-6.23132001012
-6.25985282814
-6.29311956267
-6.33322244272
-6.38227421192
-6.44159365296
-5.92436689008
-5.9433730046
-5.97715791119
-6.01821415566
-6.06127720388
-6.10419389293
-6.14629310401
-6.18738856281
-6.22756384505
-6.26724857591
-6.3072332036
-6.34858543826
-6.39259646469
-6.44069882861
-6.49442006113
-6.55526892959
-6.62470438494
-6.70320755116
-6.00926230933
-6.02745918506
-6.05993637532
-6.100982791
-6.14654447476
-6.19462682392
-6.24430691808
-6.29522771488
-6.34738458634
-6.40109671423
-6.45696380818
-6.51580100966
-6.57855786945
-6.64625480905
-6.71991002234
-6.80047172979
-6.88880822535
-6.98470751752
-6.09699149363
-6.11560634425
-6.14929775872
-6.1931450179
-6.24367250204
-6.29901750143
-6.35813872397
-6.42052753847
-6.48602738731
-6.55476605232
-6.6270840155
-6.70347198433
-6.78449404818
-6.87073329962
-6.96273104693
-7.06094258199
-7.16576506224
-7.2764557837
-6.17995770013
-6.20047359581
-6.23841531848
-6.28855911068
-6.34718292159
-6.41233992365
-6.48292562839
-6.55831016515
-6.63814904733
-6.72233055736
-6.8109071401
-6.90403424338
-7.00190191445
-7.10469115903
-7.21253494687
-7.3254871899
-7.44358163364
-7.56567482465
-6.22675469759
-6.25045206978
-6.2952412455
-6.35413649278
-6.42216810686
-6.49715941397
-6.5781312814
-6.66445938926
-6.75567269701
-6.85148768474
-6.95178045754
-7.05650090082
-7.1656207712
-7.27908679151
-7.39681701427
-7.51866011834
-7.64448791342
-7.77299154234
-6.24068656854
-6.26826579637
-6.3211916569
-6.38941706005
-6.4661650189
-6.54931453135
-6.63834785175
-6.7327741623
-6.83205948156
-6.93585565498
-7.04397523743
-7.15628436612
-7.27263463507
-7.39285777344
-7.51675155926
-7.64408169947
-7.7746409786
-7.9070753495
-6.23145936756
-6.26486682977
-6.32885335911
-6.4079452756
-6.49326486091
-6.58363075072
-6.6794396927
-6.78034894156
-6.88576410151
-6.99534880165
-7.1089442494
-7.22639299727
-7.34748824999
-7.47199159859
-7.5996335367
-7.7301096293
-7.86314973534
-7.99732636015
-6.20284060779
-6.24526426472
-6.32429874436
-6.41551453877
-6.50870779235
-6.60529053609
-6.70693180628
-6.81327939224
-6.92367506738
-7.03788429825
-7.15582698866
-7.27734114902
-7.40218452449
-7.53007730531
-7.66072205874
-7.79377698336
-7.92897350687
-8.06490629581
-6.15719352821
-6.21407591152
-6.31323053971
-6.41690370483
-6.51647046649
-6.61802214183
-6.72429914159
-6.83461909123
-6.94836191095
-7.06554505986
-7.18621618418
-7.3102180077
-7.43728524758
-7.56712488926
-7.69941294968
-7.83376550178
-7.96982076667
-8.106072788
-6.09575238578
-6.17600765377
-6.30076787761
-6.41561999089
-6.51982136659
-6.6259227046
-6.73672860712
-6.85079376908
-6.9676267337
-7.08755802684
-7.21074241716
-7.33702109804
-7.46612012669
-7.59774729193
-7.73156650531
-7.86716133917
-8.00413484365
-8.14099343247
-6.01841860986
-6.13633234172
-6.2908417911
-6.41285146825
-6.51866066465
-6.62750693793
-6.74103556814
-6.85710304614
-6.97556623502
-7.09703328798
-7.22169194233
-7.34935868967
-7.47976063768
-7.61260798355
-7.74753774156
-7.88405229963
-8.02156891123
-8.15823455037
-5.92452479651
-6.10156209692
-6.28685918005
-6.41262773
-6.52060465936
-6.63319117612
-6.74951710161
-6.86729579548
-6.98704918434
-7.10964948087
-7.23529556591
-7.36382507774
-7.49501869448
-7.62863682173
-7.7643401663
-7.90161599718
-8.03977188785
-8.17661499924
-5.81226118969
-6.078213246
-6.28281294033
-6.40294835362
-6.51127369608
-6.62709075349
-6.74572553183
-6.86503760894
-6.98616378748
-7.11006445023
-7.23686671587
-7.36640783172
-7.49852679326
-7.63304444194
-7.76968055152
-7.90798846543
-8.04723648592
-8.18466257152
-5.68057250003
-6.08615067527
-6.30182106166
-6.41060169861
-6.51673641778
-6.63313740135
-6.75175456925
-6.87079913223
-6.99184875865
-7.11583917704
-7.24278900706
-7.37250596471
-7.50485121319
-7.63968228587
-7.77678979004
-7.91592638238
-8.0568335165
-8.19779345955
-5.50982802778
-6.06830410199
-6.29664112902
-6.40237735679
-6.51022505537
-6.62880411574
-6.74866306185
-6.86847211787
-6.99013811448
-7.11464684864
-7.24201224377
-7.37206176301
-7.50469084937
-7.63978845003
-7.77718753552
-7.916786978
-8.05875777803
-8.20721796356
-2.00026285341
-2.01118534043
-2.02149213202
-2.02763835176
-2.04206777971
-2.08083903607
-2.15123932976
-2.25496877666
-2.39484316537
-2.57341399637
-2.79281293114
-3.05472751816
-3.36038474676
-3.71053904332
-4.10547104201
-4.54498264164
-5.02840834264
-5.55461284821
-6.12201683582
-6.72859640005
-7.3719231338
-8.04916723802
-8.75715450191
-9.49237347304
-10.2510484148
-11.0291526984
-11.8224947489
-12.6267369866
-13.4374931733
-14.2503482175
-15.0609595971
-15.8650736371
-16.6586276304
-17.4377549797
-18.1988778304
-18.9386967561
-19.6542727326
-20.3429942834
-21.0026424642
-21.6313375799
-22.2275859275
-22.7902062198
-23.318358969
-23.811456205
-24.2691785086
-24.6913744355
-25.0780749735
-25.4293904842
-25.7455288143
-26.0266974002
-26.2731329496
-26.4850080571
-26.6624664337
-26.8055340332
-26.91416414
-26.9881720911
-27.0273142722
-27.0312515261
-26.9997020052
-26.9325527453
-26.8299761115
-26.69236274
-26.5205368502
-26.3156799491
-26.0793187491
-25.8131820964
-25.5193146219
-25.1999444564
-24.8575193581
-24.4945611342
-24.1137273995
-23.7176659307
-23.3090877667
-22.8906158771
-22.4648586282
-22.0342365025
-21.601045428
-21.1672624049
-20.7345966426
-20.3043067829
-19.8772920922
-19.453936079
-19.034197106
-18.6173950938
-18.2022242014
-17.7864237417
-17.3666625834
-16.9380542067
-16.4939311893
-16.0254211727
-15.5214394374
-14.9687149507
-14.3520899756
-13.6550777904
-12.8608960077
-11.9537767592
-10.9205832437
-9.75240966067
-8.44604890285
-7.00503485731
-5.44011174424
-3.76892399559
-2.01505963697
-0.206624068858
1.62517269938
3.44786663711
5.2290987623
6.93884275446
8.55054043453
10.0432318395
11.4016578642
12.6206195777
13.6926497765
14.6193694024
15.4068235263
16.0642417346
16.6105360365
17.0495028582
17.391300297
17.662699934
17.8570556798
17.9914305708
18.0889468131
18.1469555564
18.1527421703
18.1125358763
18.036862612
17.9357746045
17.8176082054
17.689133423
17.5555824091
17.4210806551
17.2886813454
17.1607347471
17.0388473696
16.9241699927
16.8173517184
16.7187967474
16.6285722224
16.5465728392
16.4725114798
16.4060370389
16.3467871384
16.2943508356
16.2482558035
16.2080251583
16.1731354661
16.1430308405
16.1171518954
16.0949628417
16.0759637814
16.0596955201
16.0457392916
16.0337173383
16.0232901742
16.0141561802
16.0060476754
15.9987296263
15.9919950544
15.9856691243
15.9796031495
15.9736739078
15.9677781416
15.9618426611
15.9558146161
15.9496672939
15.9433945957
15.9370244931
15.9306153068
15.9242665899
15.9181202119
15.9123866515
15.9073544127
15.9034253512
15.9011474089
15.9013008659
15.9050123543
15.9138957262
15.9314004358
15.9518105055
-1.95632713195
-1.9732368183
-2.00219751899
-2.03164691744
-2.05450943141
-2.09207837887
-2.16028781837
-2.26323159803
-2.40364789366
-2.58388501077
-2.80592929616
-3.07134718004
-3.38125927652
-3.7363243553
-4.13673323684
-4.58220288342
-5.07198350791
-5.60485840172
-6.17916368531
-6.79279349315
-7.44323291723
-8.12756863001
-8.84253642134
-9.58454062643
-10.3497148491
-11.133949557
-11.9329657972
-12.7423513449
-13.5576429887
-14.3743655802
-15.1881178306
-15.994610408
-16.7897479399
-17.569657231
-18.3307593586
-19.069783175
-19.7838208466
-20.4703216083
-21.1271278153
-21.7524480345
-22.3448728965
-22.9033286173
-23.4270725335
-23.9156301078
-24.3687765613
-24.7864661844
-25.1688107313
-25.5160075484
-25.8283209171
-26.1060143012
-26.3493488106
-26.5585307167
-26.7337052285
-26.8749066163
-26.982056906
-27.0549571672
-27.0932827529
-27.0965139948
-27.0639653819
-26.9953899005
-26.8908967865
-26.7507694027
-26.5760170599
-26.3679793064
-26.1280563017
-25.8580077395
-25.560031176
-25.2364570234
-24.8897899051
-24.5226329951
-24.1376812089
-23.7376531275
-23.3252893579
-22.903281768
-22.4742706424
-22.0407606365
-21.6050934779
-21.1693368239
-20.7352510609
-20.3041942576
-19.877114559
-19.4544818449
-19.0362988686
-18.6219920905
-18.210322103
-17.7991442134
-17.3851885287
-16.9636681945
-16.5279077847
-16.0690436006
-15.57591938
-15.0352568989
-14.431858616
-13.749254344
-12.9706492373
-12.0801963294
-11.0644118897
-9.91369653391
-8.6236965231
-7.19645072133
-5.64111150485
-3.97409847578
-2.2185008322
-0.402978729199
1.43975683325
3.27527459534
5.0693774759
6.79121818715
8.41438112842
9.91944945718
11.2880354312
12.5126359621
13.5882625238
14.5161264295
15.3094839261
15.9678648688
16.5102615467
16.9559323952
17.3036139021
17.5782622725
17.7905081201
17.9371669889
18.0362871935
18.0914790936
18.0987028667
18.0629066704
17.9927773328
17.89726222
17.7842624993
17.6603400796
17.5307509332
17.3996292319
17.2701355246
17.1446420557
17.0248509887
16.9119570267
16.8067173096
16.7095319094
16.620522721
16.5396360529
16.466652087
16.401205217
16.3428279968
16.2910476961
16.2454442849
16.2056110936
16.1710630323
16.1412537248
16.1156327582
16.0936672939
16.0748637394
16.0587640795
16.0449549452
16.0330598112
16.0227434917
16.0137039667
16.0056763007
15.99842602
15.9917506481
15.9854735383
15.9794467958
15.9735469134
15.9676747119
15.961755124
15.9557359366
15.9495892257
15.9433107897
15.9369253825
15.9304893815
15.9241007865
15.9179015693
15.9120946689
15.906960577
15.9028891471
15.9004135625
15.9002826297
15.9035665375
15.911727193
15.9279960976
15.9423648146
-1.88976509384
-1.91958454089
-1.96163135534
-2.01467419981
-2.07946031126
-2.16127068784
-2.26654403672
-2.40072313055
-2.56851535451
-2.77347854083
-3.01827916002
-3.30487192605
-3.63459880787
-4.00824217318
-4.42605829418
-4.88779446237
-5.39270894076
-5.93957907957
-6.5267246376
-7.15201632915
-7.81290893764
-8.5064550601
-9.2293511684
-9.97795987036
-10.7483702959
-11.5364298922
-12.3378178685
-13.1480864461
-13.9627436839
-14.7772990823
-15.5873494625
-16.3886229393
-17.1770598549
-17.94884746
-18.7004882608
-19.4288185066
-20.1310581688
-20.8048080529
-21.4480773791
-22.0592604384
-22.6371423938
-23.180854098
-23.6898548451
-24.1638680459
-24.6028523072
-25.0069321549
-25.3763615708
-25.7114572408
-26.0125613588
-26.2799964386
-26.514048007
-26.7149137404
-26.8826999737
-27.0173536655
-27.1187227963
-27.1864688907
-27.2199695422
-27.2181831255
-27.1806168008
-27.1070292467
-26.9970554634
-26.8512192644
-26.6706275933
-26.456314809
-26.2096840705
-25.9327289658
-25.6276062653
-25.2967172062
-24.9426555033
-24.5681369643
-24.1759574299
-23.7689403167
-23.3499110724
-22.9216532843
-22.4868830747
-22.0482006215
-21.6080398463
-21.1685860581
-20.7317198135
-20.298953013
-19.871383953
-19.4496439746
-19.0338658571
-18.6235989594
-18.2176667966
-17.8139500847
-17.409143996
-16.9984203608
-16.5750728825
-16.1302231911
-15.6528525813
-15.1298807498
-14.5463568303
-13.8859243397
-13.1316273008
-12.2669794543
-11.2772534012
-10.151005635
-8.88177144321
-7.46956077004
-5.92219732198
-4.25585346138
-2.49449183097
-0.668341047651
1.18780038508
3.038053345
4.84731740458
6.58468216801
8.22175127317
9.73624894375
11.1123325193
12.3411242024
13.42371456
14.3533235911
15.1445774709
15.8140961028
16.3644727685
16.8180767899
17.186805779
17.4753922807
17.6939205697
17.8493120856
17.9528816546
18.009504729
18.020336594
17.9902394092
17.9267693866
17.8379801332
17.7313386152
17.6131909043
17.4887799233
17.3622384529
17.2368092391
17.1149071485
16.998329684
16.8882983702
16.78562758
16.6907551554
16.6038548909
16.5248737565
16.4536048264
16.3897327979
16.3327986948
16.2823431907
16.2379071287
16.1990640086
16.1653882358
16.1363558555
16.1114228237
16.0900699951
16.0718076033
16.0561900231
16.0428060447
16.0312884533
16.0213032741
16.01255677
16.0047847062
15.997757943
15.9912734241
15.9851601531
15.9792698199
15.9734832042
15.9676999432
15.9618462856
15.9558681722
15.9497362646
15.9434428273
15.937012316
15.9304958514
15.9239811299
15.917596818
15.9115301346
15.9060340514
15.9014562753
15.8982614567
15.8970768489
15.8987385776
15.9042190092
15.9151926617
15.9199777006
-1.89717146975
-1.94229945068
-2.00670474403
-2.08790766745
-2.18716197971
-2.30690501797
-2.45039149092
-2.6214016579
-2.82374286195
-3.06073026612
-3.3350950184
-3.64895244704
-4.00381105991
-4.40059342166
-4.83966304809
-5.32084332973
-5.84344313444
-6.40627000041
-7.0076578599
-7.64547924901
-8.31718088442
-9.01979948559
-9.75000956579
-10.5041474928
-11.2782735703
-12.0682065203
-12.8695998293
-13.6779860853
-14.4888636784
-15.2977464024
-16.1002531385
-16.8921554205
-17.6694612556
-18.4284518141
-19.1657515894
-19.8783477273
-20.5636381364
-21.2194280672
-21.8439537728
-22.4358564661
-22.9941822559
-23.5183308968
-24.00802839
-24.4632553977
-24.8842086721
-25.2712246089
-25.6247339046
-25.9451886515
-26.2330273523
-26.4886207906
-26.7122498762
-26.90406902
-27.064069538
-27.1920991109
-27.2878369832
-27.3506868066
-27.3796953203
-27.3735581403
-27.3316087981
-27.2531275015
-27.1375410557
-26.9856002058
-26.7981362076
-26.5760224397
-26.3208883964
-26.0348599689
-25.7202542104
-25.3796634334
-25.0158597168
-24.6317248783
-24.2301954902
-23.8142118991
-23.386688587
-22.9504816995
-22.5083728018
-22.0630496201
-21.6170777452
-21.1728419601
-20.7324848556
-20.2978371472
-19.8703303861
-19.450891048
-19.0398417453
-18.6367771451
-18.240402187
-17.8483607485
-17.4570864246
-17.061614045
-16.6553026489
-16.2296261971
-15.7741111351
-15.276344278
-14.7218262362
-14.0940670917
-13.3751617827
-12.5468357861
-11.5918331259
-10.4957664222
-9.249637137
-7.85175770808
-6.30954430615
-4.64048245418
-2.87076057062
-1.03218914614
0.839452535438
2.70774764199
4.53565700509
6.28772747862
7.93760565569
9.46204913316
10.8486221728
12.0840849258
13.1686826307
14.1124233723
14.91614821
15.5986140053
16.1740047966
16.6468371546
17.0276343139
17.3270129162
17.5547635719
17.7190812296
17.8288175968
17.8898737001
17.9062125704
17.8832305744
17.82788107
17.7475460749
17.6491985197
17.5389252011
17.4218322168
17.3020261157
17.1827476333
17.066451845
16.9549690796
16.8495711663
16.7511073469
16.6600619832
16.5766408249
16.5008286741
16.432437899
16.3711576303
16.3165678498
16.26823685
16.225724661
16.1886010099
16.1564342939
16.1287184895
16.1049322469
16.0845793433
16.0671884481
16.0523307963
16.0396091654
16.0286690858
16.0191861226
16.0108744532
16.0034761234
15.9967696521
15.9905570754
15.9846722045
15.9789695873
15.9733322081
15.96766181
15.9618847929
15.9559463748
15.9498183426
15.9434911499
15.9369809169
15.9303281246
15.9236105417
15.9169393364
15.9104727463
15.9044215425
15.8990666598
15.8947677434
15.8919702074
15.8911692892
15.8926718539
15.8966769503
15.8911853871
-2.07186729812
-2.1233454008
-2.19848553951
-2.29703547317
-2.41912531428
-2.56585591972
-2.73925075197
-2.94179127053
-3.1760629468
-3.44448737579
-3.7491916727
-4.09190128597
-4.47388190806
-4.8959068311
-5.35824903964
-5.86067648644
-6.40246433858
-6.98239906932
-7.598801457
-8.24953483762
-8.93203848733
-9.64334171885
-10.3801104451
-11.1386704654
-11.915070056
-12.7051152608
-13.5044486257
-14.3085961733
-15.1130584619
-15.9133642427
-16.7051655372
-17.484289005
-18.2468244044
-18.9891648838
-19.7080795117
-20.4007341405
-21.0647405391
-21.6981511407
-22.2994799243
-22.8676721939
-23.4020972425
-23.902488651
-24.3689034787
-24.801640955
-25.2011899588
-25.5681408136
-25.9031314861
-26.2067564042
-26.479542007
-26.7218731652
-26.933966928
-27.1158559095
-27.2673820836
-27.3882260918
-27.4777966858
-27.5351906752
-27.5591018814
-27.5483976221
-27.5016186226
-27.4173249773
-27.2954634071
-27.1365753336
-26.9409907206
-26.7097003237
-26.4446847074
-26.1481144566
-25.8225045182
-25.470637146
-25.0954698763
-24.700053224
-24.2874622248
-23.8607401857
-23.4228764227
-22.976796668
-22.5253747174
-22.071456164
-21.6178682406
-21.1673664719
-20.7225332074
-20.285645749
-19.8584991992
-19.442210015
-19.0370572191
-18.6423489698
-18.25634346
-17.8762355431
-17.4982128088
-17.1174996735
-16.7281794383
-16.322771673
-15.8919475114
-15.4241352113
-14.9050607323
-14.3174106685
-13.6413531303
-12.8559371746
-11.9409147097
-10.8789311332
-9.65894886417
-8.27846577857
-6.74461877783
-5.07625725336
-3.30136269223
-1.45300341517
0.432577237992
2.31454719551
4.15453766299
5.91620478456
7.57709486833
9.11054702711
10.5017931458
11.7505277399
12.8492423448
13.8091601508
14.6408986717
15.3479537554
15.9402891947
16.4285257014
16.8233210505
17.1351284696
17.373685664
17.5477685599
17.6656185395
17.7339016083
17.7580770979
17.744099684
17.698608083
17.6285192316
17.540331886
17.4398741906
17.3320443851
17.2209034849
17.1096324938
17.0007256442
16.8960085823
16.7968184763
16.7040245786
16.61815897
16.5394600056
16.4679502563
16.4034654384
16.3457084099
16.2943051662
16.2488462974
16.2089448365
16.174188532
16.1441091093
16.1182127642
16.096013951
16.0770421708
16.0608589571
16.0470532203
16.0352517797
16.0251105253
16.0163224538
16.0086105908
16.0017313666
15.9954676604
15.9896319423
15.984060799
15.9786172215
15.9731857087
15.9676726187
15.9620047924
15.9561311925
15.9500184072
15.9436503876
15.9370350146
15.9302067795
15.9232258835
15.9161789239
15.9091874226
15.9024108674
15.8960510105
15.8903384504
15.8855037545
15.8816745475
15.8785089366
15.8750710492
15.8591539861
-2.40475256654
-2.45459572053
-2.53114569247
-2.636703751
-2.77091752224
-2.93422660217
-3.12773482603
-3.35291481086
-3.61137893859
-3.90470029358
-4.23429505901
-4.60131809104
-5.00659399473
-5.45056344039
-5.93325529871
-6.45426164732
-7.01273492367
-7.60737809159
-8.23645765635
-8.89780287552
-9.58883245523
-10.3065624092
-11.0476483297
-11.8084050425
-12.5848675261
-13.3728255482
-14.1679042028
-14.9656135787
-15.7614448872
-16.5509293927
-17.3297402327
-18.0937499721
-18.839125541
-19.5623727895
-20.2604143777
-20.93061343
-21.5708237737
-22.1793843184
-22.7551363138
-23.2973857092
-23.8058857312
-24.2807639755
-24.7224658571
-25.131654642
-25.509139916
-25.8557757926
-26.1723928939
-26.4597096058
-26.7182901123
-26.9484793385
-27.1503965445
-27.3239244836
-27.4687225663
-27.5841860642
-27.6694258821
-27.7232740769
-27.7442813764
-27.7307472764
-27.6803858787
-27.5915381973
-27.46432427
-27.2986879477
-27.0947254794
-26.8540129066
-26.5786454404
-26.2709164614
-25.9335679477
-25.5696012377
-25.1821859466
-24.7745634272
-24.3499697305
-23.9115854448
-23.4625323979
-23.0059002907
-22.5447809087
-22.0823005699
-21.6216317815
-21.1659086071
-20.7180555555
-20.2805821531
-19.8553246888
-19.4432269753
-19.0442145411
-18.6571752159
-18.2800311455
-17.9098915153
-17.5432352995
-17.176075281
-16.8036836449
-16.4198786547
-16.0161652414
-15.5811885116
-15.1000580752
-14.5539535064
-13.9206556067
-13.1767591886
-12.3000466295
-11.2713787009
-10.0784145497
-8.71827386773
-7.19627753493
-5.53172276117
-3.754964213
-1.90319216321
-0.0148106263312
1.87107847622
3.71753824625
5.4832939663
7.14692603974
8.69024041193
10.0937311986
11.3591202453
12.4852864252
13.4713234329
14.323255383
15.0492591826
15.659166971
16.1634900246
16.5729048379
16.8979000682
17.1483809117
17.333420102
17.4613072015
17.5392234656
17.5735165354
17.5705052756
17.5367172387
17.4786840383
17.4025492666
17.3138290344
17.217241788
17.1167153809
17.0153908467
16.91573107
16.8195807518
16.7282907966
16.6427696861
16.5635693319
16.4909748614
16.425036171
16.3656186054
16.3124427345
16.2651929032
16.223494343
16.1870067843
16.1553378643
16.1279858532
16.1044768048
16.0843642326
16.0672138197
16.0526210514
16.0402016387
16.029606906
16.0205130857
16.0126339474
16.0057064104
15.9995008314
15.9938101175
15.9884586332
15.9832909683
15.9781787709
15.9730099034
15.9676966896
15.962168308
15.9563730669
15.9502712297
15.9438449155
15.9370972612
15.9300505061
15.9227429429
15.9152342011
15.9076061588
15.8999608803
15.8924071823
15.8850372796
15.8778618695
15.8706500089
15.8625031111
15.8516813385
15.8258509126
-2.83900632851
-2.88477648503
-2.95940270812
-3.06654529536
-3.20581303346
-3.37763559416
-3.5827087562
-3.82191569814
-4.09622039265
-4.40655961929
-4.75375868423
-5.13844799455
-5.56100533116
-6.02150132758
-6.51966824511
-7.05486579348
-7.62607002079
-8.23185271194
-8.87038563886
-9.53942987212
-10.236354547
-10.958136629
-11.7013971675
-12.4624155828
-13.2371877496
-14.0214594173
-14.8108086175
-15.6006987569
-16.3865813246
-17.1639619793
-17.9285116366
-18.6761319266
-19.403058718
-20.1059137305
-20.7817878267
-21.4282684768
-22.0434925149
-22.6261380377
-23.1754350313
-23.6911159703
-24.1733817732
-24.6228093572
-25.0402733372
-25.4268208736
-25.7835781088
-26.1116347787
-26.4119706093
-26.6853695744
-26.9323814145
-27.1532685212
-27.3480034973
-27.5162495937
-27.6573660269
-27.7702861876
-27.8536720252
-27.9061205898
-27.925907128
-27.9103926493
-27.8570785987
-27.7647300095
-27.6326506124
-27.4602338085
-27.2480482686
-26.9978798991
-26.7118083313
-26.3924157468
-26.0427324095
-25.6660577512
-25.2658385552
-24.8455637717
-24.4086968572
-23.9586415047
-23.4987519637
-23.0323580097
-22.5627663281
-22.0932544053
-21.6270690715
-21.1673547339
-20.7170042102
-20.2784521539
-19.8534417194
-19.4428536762
-19.04663546
-18.6638810798
-18.2929601034
-17.9316414385
-17.5770658924
-17.2257956364
-16.8734844727
-16.5140151215
-16.1384416073
-15.7345631394
-15.2864855964
-14.7743320184
-14.1749390328
-13.4640942618
-12.6194051677
-11.6210884864
-10.4552812824
-9.11881642941
-7.61476460729
-5.96309406512
-4.19967901833
-2.35996990484
-0.480792150602
1.39686997957
3.23724821821
5.00233293035
6.67014424885
8.2270619375
9.65294626331
10.9400375777
12.0856658408
13.0911726874
13.9619634266
14.7059327711
15.3327214932
15.8527975507
16.276939917
16.615699554
16.879150729
17.0765484757
17.2163900664
17.3062030891
17.352866398
17.3629011633
17.3427809122
17.2987190982
17.2365717724
17.1615382256
17.078162091
16.9901968727
16.900732709
16.8121659436
16.7263547097
16.6446422958
16.5679666795
16.4968980997
16.4317621022
16.3726410853
16.3194303237
16.2718773075
16.2297195441
16.1926537848
16.1603663933
16.1324586141
16.1084223262
16.087825902
16.0702599477
16.0553385538
16.0426888559
16.0319658059
16.0228446891
16.0150339153
16.0082627418
16.0022912828
15.9969017409
15.9919070383
15.9871402918
15.9824613402
15.9777460326
15.9728926525
15.9678165609
15.9624522832
15.9567441016
15.9506534087
15.9441601301
15.9372596456
15.9299561102
15.9222675485
15.9142227402
15.9058617635
15.8972195641
15.8883101476
15.8790858009
15.8693428597
15.8585321161
15.8453154806
15.8274351437
15.7926471652
-3.31287595588
-3.35442360399
-3.42646821351
-3.53284308209
-3.67330179362
-3.84851923616
-4.0591122348
-4.3057217857
-4.58896597152
-4.90938487364
-5.26739472472
-5.66323124636
-6.09691088297
-6.56818476999
-7.07651312827
-7.62102972953
-8.20052893259
-8.81343886487
-9.45782010857
-10.1313469689
-10.8313194044
-11.5546551637
-12.2979198917
-13.0573359607
-13.828837838
-14.6081043064
-15.3906432557
-16.1718495425
-16.9471154546
-17.7119058576
-18.461879507
-19.1929646897
-19.901472198
-20.5841531283
-21.238288923
-21.8617226782
-22.4529110182
-23.0109121093
-23.5353846107
-24.0265198722
-24.4849837849
-24.9117987912
-25.3082394917
-25.6756834228
-26.0154985608
-26.3289228304
-26.6169949257
-26.8804782366
-27.1198272522
-27.3351485327
-27.5261850462
-27.6922787886
-27.8323884231
-27.9451312919
-28.0289775366
-28.0823399951
-28.1033002885
-28.0887137668
-28.0356214895
-27.9422864022
-27.8068517728
-27.6284941965
-27.4083956432
-27.1485455384
-26.8513295552
-26.5197978307
-26.1573999392
-25.7678253665
-25.3548561814
-24.9222763256
-24.4738124692
-24.0131041469
-23.5436929366
-23.0689916641
-22.5922628621
-22.1166125297
-21.6450331621
-21.1804423094
-20.7256357721
-20.2831202671
-19.8549203939
-19.4424185387
-19.0462852083
-18.6664903788
-18.3023199446
-17.9521653111
-17.6131203784
-17.2808600453
-16.9493269898
-16.6106164569
-16.2545784139
-15.8686880199
-15.4377159146
-14.9429185029
-14.3624934265
-13.673300125
-12.8537890386
-11.8833119913
-10.746466465
-9.44162654186
-7.97320916398
-6.35571459538
-4.62304930325
-2.81228117695
-0.958196100101
0.902710678322
2.73629639985
4.50515361446
6.18284310565
7.75034085367
9.18985893922
10.4920176076
11.6532908181
12.6747739458
13.5614517405
14.3210503907
14.9630821462
15.4980072455
15.9366055872
16.2894930092
16.5667982261
16.7779286716
16.9315038336
17.0353088101
17.0964597891
17.1216081009
17.1171066511
17.0889470374
17.0426784781
16.9832504471
16.914976307
16.8414687099
16.765702069
16.6900261996
16.6162664599
16.5457743989
16.4794762062
16.4179860713
16.361646006
16.3105789858
16.2647078837
16.2238201203
16.1876909121
16.1561458563
16.1288691956
16.1053856542
16.0852539257
16.0680948295
16.0535468842
16.041271126
16.0309354474
16.022232805
16.0148713892
16.0085884188
16.0031368448
15.9983004627
15.9938816385
15.9897120333
15.985639505
15.9815369318
15.9772901219
15.9728080369
15.9680115989
15.9628385646
15.9572346016
15.9511632679
15.9445988238
15.9375252033
15.9299304977
15.9218106492
15.913163854
15.9039820151
15.8942325977
15.883837026
15.8726103537
15.8601536852
15.8456514151
15.8274483666
15.8030025572
15.7603886097
-3.77029046402
-3.8082615237
-3.87795326039
-3.9826772098
-4.12243402335
-4.29815477321
-4.51049357625
-4.76003152975
-5.04723798098
-5.37244537208
-5.73582990092
-6.13737534752
-6.57685239921
-7.05378264033
-7.56742165472
-8.11672573711
-8.70034076884
-9.31657263342