/*--------------------------------*- C++ -*----------------------------------*\
| =========                 |                                                 |
| \\      /  F ield         | OpenFOAM: The Open Source CFD Toolbox           |
|  \\    /   O peration     | Version:  v1806                                 |
|   \\  /    A nd           | Web:      www.OpenFOAM.com                      |
|    \\/     M anipulation  |                                                 |
\*---------------------------------------------------------------------------*/
FoamFile
{
    version     2.0;
    format      ascii;
    class       surfaceScalarField;
    location    "22";
    object      phi;
}
// * * * * * * * * * * * * * * * * * * * * * * * * * * * * * * * * * * * * * //

dimensions      [0 3 -1 0 0 0 0];
oriented        oriented;


internalField   nonuniform List<scalar> 
24170
(
3.07336532593e-06
1.15041817138e-07
2.98620936131e-06
8.71568425683e-08
2.90590998016e-06
8.03005024499e-08
2.8284460212e-06
7.74658964533e-08
2.75404230215e-06
7.44049222239e-08
2.68281066199e-06
7.123350765e-08
2.61457602114e-06
6.82356859387e-08
2.54909517241e-06
6.5482543778e-08
2.48610775924e-06
6.29884709139e-08
2.42533402575e-06
6.0775320833e-08
2.36645993152e-06
5.88751545837e-08
2.30912719536e-06
5.73342137249e-08
2.2529081469e-06
5.62202464823e-08
2.19726383295e-06
5.56457838031e-08
2.14144853175e-06
5.58168826542e-08
2.08425628169e-06
5.71946471861e-08
2.02312661306e-06
6.11330690433e-08
7.42127976735e-08
1.94891672494e-06
3.43144764175e-06
1.00844049439e-07
3.42614276252e-06
9.24624434187e-08
3.41889264017e-06
8.75515902785e-08
3.40851468307e-06
8.78455069255e-08
3.39547908778e-06
8.7441633216e-08
3.38041656686e-06
8.62976427604e-08
3.36365803019e-06
8.49952488424e-08
3.34539520798e-06
8.37468389775e-08
3.32574796779e-06
8.26368176443e-08
3.30477109426e-06
8.17536311959e-08
3.28244498436e-06
8.12024644556e-08
3.25866795868e-06
8.1112691971e-08
3.2332330383e-06
8.16565966138e-08
3.20578419238e-06
8.30962544592e-08
3.17571917087e-06
8.58837943544e-08
3.14200350194e-06
9.09128122814e-08
3.1028760111e-06
1.00263939618e-07
1.17199792824e-07
3.05989087782e-06
3.67986430754e-06
8.34975551076e-08
3.6840379522e-06
8.82896740754e-08
3.6863713481e-06
8.52192618082e-08
3.68749081238e-06
8.67275921071e-08
3.68716280666e-06
8.77707402482e-08
3.68558794312e-06
8.78739152709e-08
3.68287308676e-06
8.77110377003e-08
3.67903266439e-06
8.75884689715e-08
3.67404423987e-06
8.7626115789e-08
3.66785902437e-06
8.79399076434e-08
3.66039199889e-06
8.86702947963e-08
3.65151383702e-06
8.99917710016e-08
3.64103461235e-06
9.2136613216e-08
3.62868190865e-06
9.54497841443e-08
3.61407526853e-06
1.00491308671e-07
3.59676310765e-06
1.08226118398e-07
3.57667132302e-06
1.20356977093e-07
1.38076174244e-07
3.55579451024e-06
3.93956708926e-06
6.93195805935e-08
3.94539316691e-06
8.2464317287e-08
3.94853073045e-06
8.20826464367e-08
3.95087134012e-06
8.43883594424e-08
3.95219813946e-06
8.64450558285e-08
3.95259601138e-06
8.74773827409e-08
3.95216923349e-06
8.81388695487e-08
3.95093225522e-06
8.8826680711e-08
3.94885244003e-06
8.97070265084e-08
3.9458729449e-06
9.09206055866e-08
3.94191076939e-06
9.26336039984e-08
3.93685434976e-06
9.50494116221e-08
3.93055956673e-06
9.84326186202e-08
3.92285236846e-06
1.03158249452e-07
3.91355630978e-06
1.09788717581e-07
3.90261374186e-06
1.19170187597e-07
3.89047891506e-06
1.32493393637e-07
1.50235822758e-07
3.87832004239e-06
4.21837263857e-06
5.80749391231e-08
4.22464821598e-06
7.61896329447e-08
4.2278866031e-06
7.884528802e-08
4.23029037312e-06
8.19859173865e-08
4.23181651507e-06
8.4919964976e-08
4.232460519e-06
8.68345648618e-08
4.23231396521e-06
8.82863251754e-08
4.23140544778e-06
8.97362070674e-08
4.22971327979e-06
9.14000186225e-08
4.22719259521e-06
9.34421590576e-08
4.22377960264e-06
9.6047337056e-08
4.21939332165e-06
9.94364329426e-08
4.2139404947e-06
1.0388611117e-07
4.20733375228e-06
1.09765604326e-07
4.19954187189e-06
1.1758117547e-07
4.19071268054e-06
1.28000026353e-07
4.18142016145e-06
1.41786351018e-07
1.59125543668e-07
4.17252964182e-06
4.51797895398e-06
4.91838505962e-08
4.52425090206e-06
6.99184093249e-08
4.52762882886e-06
7.54683036861e-08
4.53004101986e-06
7.9574868724e-08
4.53163730205e-06
8.33247792723e-08
4.53236266008e-06
8.61103263665e-08
4.53227923471e-06
8.83708061543e-08
4.53142230113e-06
9.05941960265e-08
4.52978048138e-06
9.30428887266e-08
4.52732007072e-06
9.59035907191e-08
4.52399512983e-06
9.93733185891e-08
4.51975318158e-06
1.03679403309e-07
4.51454655687e-06
1.09093729587e-07
4.50835875962e-06
1.15954316857e-07
4.50125941178e-06
1.24681374887e-07
4.49350334669e-06
1.35756796866e-07
4.48566953874e-06
1.49620734259e-07
1.66256918194e-07
4.47853867917e-06
4.83973128388e-06
4.21733775393e-08
4.84571132337e-06
6.39392333451e-08
4.84920948803e-06
7.19711314511e-08
4.8516314798e-06
7.71539607065e-08
4.85326894101e-06
8.16883235514e-08
4.85406196211e-06
8.5318267621e-08
4.85404067803e-06
8.83929710064e-08
4.85324000352e-06
9.13957014446e-08
4.8516578739e-06
9.46258032301e-08
4.84927221078e-06
9.82899755004e-08
4.84605527683e-06
1.02590947848e-07
4.84198340148e-06
1.0775191124e-07
4.83705233681e-06
1.1402537019e-07
4.83130626383e-06
1.21700853117e-07
4.82488727304e-06
1.31100716198e-07
4.8181051075e-06
1.42539300066e-07
4.81150249164e-06
1.56223666531e-07
1.71998983043e-07
4.80575884317e-06
5.18511854743e-06
3.66364802441e-08
5.19063452945e-06
5.84240088039e-08
5.19419686531e-06
6.84096711041e-08
5.19664908287e-06
7.47027543459e-08
5.19833638906e-06
8.00019948479e-08
5.1992190477e-06
8.44366261075e-08
5.19929926784e-06
8.83136977263e-08
5.19860574722e-06
9.20902021046e-08
5.19714513649e-06
9.60873205922e-08
5.19490931432e-06
1.00526744282e-07
5.19189112038e-06
1.056100329e-07
5.18809726084e-06
1.11546670931e-07
5.18356524913e-06
1.18558143791e-07
5.17839083273e-06
1.26875938755e-07
5.17276698122e-06
1.36725052967e-07
5.16702695011e-06
1.48279704099e-07
5.16166593451e-06
1.61584248422e-07
1.76395642549e-07
5.15726915162e-06
5.55572821333e-06
3.22464607251e-08
5.56070049388e-06
5.34525459862e-08
5.56425829343e-06
6.48527559525e-08
5.56675450157e-06
7.22074746417e-08
5.56850513367e-06
7.82522471645e-08
5.56949723886e-06
8.34453678019e-08
5.56971551184e-06
8.80962226538e-08
5.56918098511e-06
9.26254828172e-08
5.56790911357e-06
9.73599141298e-08
5.56590793339e-06
1.02528598919e-07
5.56319274327e-06
1.08325922087e-07
5.55980046886e-06
1.14939544495e-07
5.55580650733e-06
1.22552667495e-07
5.55134737735e-06
1.31335469449e-07
5.54664790125e-06
1.41424820428e-07
5.54204232221e-06
1.52885425116e-07
5.53797040129e-06
1.6565626021e-07
1.79453853803e-07
5.53491058002e-06
5.95328404441e-06
2.87392103175e-08
5.95770144019e-06
4.90358879834e-08
5.96119282973e-06
6.13622224052e-08
5.96374084848e-06
6.96603323692e-08
5.9655777952e-06
7.6416248586e-08
5.96671049669e-06
8.23135730258e-08
5.96711633379e-06
8.7691345132e-08
5.96680934041e-06
9.29333725886e-08
5.96581255332e-06
9.8357633876e-08
5.96415041007e-06
1.04191735881e-07
5.96186038716e-06
1.10616845915e-07
5.95900729774e-06
1.17793459388e-07
5.95569806611e-06
1.25862636904e-07
5.9520983792e-06
1.34935742514e-07
5.94844855573e-06
1.45075134087e-07
5.94506919248e-06
1.56265136908e-07
5.94234472638e-06
1.68380193417e-07
1.8112808089e-07
5.94067037475e-06
6.37964635082e-06
2.59057506568e-08
6.38354493931e-06
4.51381442663e-08
6.38692889672e-06
5.79791265583e-08
6.38953607533e-06
6.70540811519e-08
6.39149113085e-06
7.44620635791e-08
6.39280632024e-06
8.0999298978e-08
6.39345814938e-06
8.70403560402e-08
6.3934559076e-06
9.29364982432e-08
6.39282900064e-06
9.89854330483e-08
6.39161747581e-06
1.05404140496e-07
6.38987969221e-06
1.12355465986e-07
6.38770459407e-06
1.19969393087e-07
6.385223291e-06
1.28344624781e-07
6.38261920995e-06
1.37540469813e-07
6.38013465195e-06
1.47560184055e-07
6.37806613231e-06
1.58333990308e-07
6.37674317289e-06
1.69703516408e-07
1.81391855294e-07
6.3764784922e-06
5.74283882057e-06
2.39021910323e-08
5.7457815188e-06
4.2196332694e-08
5.74854566162e-06
5.52158803281e-08
5.75080389776e-06
6.47967568202e-08
5.75257839978e-06
7.2688471035e-08
5.75387224939e-06
7.97063507361e-08
5.75466701871e-06
8.62464637211e-08
5.75496877594e-06
9.26356061504e-08
5.75480632325e-06
9.91487244226e-08
5.75422383822e-06
1.0598748186e-07
5.75328418103e-06
1.13296005671e-07
5.75207657607e-06
1.21177179934e-07
5.75072385271e-06
1.29697981674e-07
5.74938578516e-06
1.38878575057e-07
5.7482604337e-06
1.48685924588e-07
5.74757542294e-06
1.59019013952e-07
5.74757172467e-06
1.69706590212e-07
1.80482839812e-07
5.74848037919e-06
7.00010771241e-06
2.19506809921e-08
7.00313556974e-06
3.91693041489e-08
7.00619431972e-06
5.21579921254e-08
7.00885360891e-06
6.2138311641e-08
7.01105759466e-06
7.04853661272e-08
7.01279298459e-06
7.79718125776e-08
7.01403999681e-06
8.50003321093e-08
7.01480571372e-06
9.18707525495e-08
7.01512752544e-06
9.88278200652e-08
7.01506624598e-06
1.06049778328e-07
7.0147064751e-06
1.13655761854e-07
7.01416352993e-06
1.21720723632e-07
7.01358526501e-06
1.30275919576e-07
7.01315524242e-06
1.39308968473e-07
7.01308576634e-06
1.48754971321e-07
7.01360858498e-06
1.58496093781e-07
7.01495349498e-06
1.68360974886e-07
1.78115868527e-07
7.0173200399e-06
8.53274730329e-06
2.00512744088e-08
8.53585469508e-06
3.60627966266e-08
8.53923750068e-06
4.87758661639e-08
8.54239702401e-06
5.89796414508e-08
8.54519229044e-06
6.76907534839e-08
8.54758118437e-06
7.55837649378e-08
8.54953999322e-06
8.30421883906e-08
8.5510775427e-06
9.03340479393e-08
8.5522399609e-06
9.7666210403e-08
8.55310444592e-06
1.05185476821e-07
8.55377825043e-06
1.12982255349e-07
8.55439883849e-06
1.21099807759e-07
8.55513582247e-06
1.29539028829e-07
8.55618568755e-06
1.38258775225e-07
8.55776544989e-06
1.47175269875e-07
8.56009672027e-06
1.56164292383e-07
8.563389634e-06
1.65067858487e-07
1.73688174205e-07
8.56781636865e-06
1.04011098222e-05
1.81612910442e-08
1.04043540774e-05
3.28191510199e-08
1.04081514838e-05
4.49792944294e-08
1.04119772204e-05
5.51543586807e-08
1.0415614285e-05
6.40545022549e-08
1.04189813466e-05
7.22170803994e-08
1.04220463671e-05
7.99779643686e-08
1.04248185002e-05
8.75622871862e-08
1.04273512655e-05
9.51339806102e-08
1.04297353662e-05
1.02801269689e-07
1.04320950137e-05
1.10622646734e-07
1.04345830992e-05
1.18611245866e-07
1.04373792801e-05
1.26743219118e-07
1.0440679972e-05
1.34957896538e-07
1.04446908312e-05
1.43164828634e-07
1.04496095062e-05
1.51245492559e-07
1.04556129277e-05
1.59064592612e-07
1.66463871316e-07
1.04628376021e-05
1.26787778836e-05
1.61739108476e-08
1.26823240965e-05
2.92736944671e-08
1.26867508843e-05
4.05529068076e-08
1.26915416374e-05
5.03642917642e-08
1.26964208834e-05
5.91755650963e-08
1.27012648685e-05
6.73738001654e-08
1.27060244546e-05
7.5218578971e-08
1.27107057746e-05
8.28816646674e-08
1.27153625478e-05
9.04770771322e-08
1.27200916667e-05
9.8072575911e-08
1.27250209111e-05
1.0569275478e-07
1.27303063741e-05
1.13326663442e-07
1.27361178498e-05
1.20931456164e-07
1.27426367112e-05
1.2844027969e-07
1.27500365055e-05
1.35764991833e-07
1.27584785468e-05
1.42804845036e-07
1.27680915347e-05
1.49451565473e-07
1.55589330162e-07
1.27789675627e-05
1.54554658604e-05
1.38886689961e-08
1.54596462682e-05
2.50937326261e-08
1.54651273952e-05
3.50722875037e-08
1.54714067907e-05
4.40853756503e-08
1.54781667024e-05
5.24161945327e-08
1.54852387256e-05
6.03022553661e-08
1.54925484984e-05
6.79093800189e-08
1.55000868594e-05
7.53437094217e-08
1.55078974785e-05
8.26669409012e-08
1.55160652275e-05
8.99049298133e-08
1.55247059715e-05
9.70526074674e-08
1.55339536278e-05
1.04079310502e-07
1.55439518592e-05
1.10934180275e-07
1.55548411086e-05
1.17551585031e-07
1.55667508571e-05
1.23856457963e-07
1.5579786766e-05
1.29769645369e-07
1.55940260557e-05
1.35213661288e-07
1.4011041334e-07
1.56095056692e-05
1.88405573023e-05
1.09692421072e-08
1.88459542698e-05
1.96973058229e-08
1.88532338454e-05
2.77933210298e-08
1.88618698054e-05
3.54499864499e-08
1.88714944691e-05
4.27922559631e-08
1.88818884729e-05
4.99088433858e-08
1.88929383924e-05
5.6860316282e-08
1.89046028984e-05
6.36797749806e-08
1.89168959038e-05
7.03748666349e-08
1.89298693425e-05
7.69319560251e-08
1.89436024693e-05
8.33205099839e-08
1.89581852896e-05
8.94970088152e-08
1.89737117241e-05
9.54089426105e-08
1.8990265282e-05
1.00998641924e-07
1.9007915673e-05
1.06207333535e-07
1.90267073104e-05
1.10978617286e-07
1.90466601419e-05
1.15262073664e-07
1.19010827261e-07
1.90677600912e-05
2.29675079118e-05
6.79938914667e-09
2.29751487292e-05
1.20573082872e-08
2.2985503781e-05
1.74391536996e-08
2.29979095565e-05
2.30450035104e-08
2.30119019741e-05
2.88008399714e-08
2.30271919304e-05
3.46196882073e-08
2.30436081031e-05
4.04452729515e-08
2.3061055178e-05
4.62334971987e-08
2.3079494371e-05
5.19369401959e-08
2.30989223286e-05
5.75048012564e-08
2.31193589287e-05
6.28852814663e-08
2.31408298624e-05
6.80269592455e-08
2.31633605571e-05
7.28797046622e-08
2.31869640813e-05
7.73961386584e-08
2.32116392762e-05
8.1533653334e-08
2.32373631036e-05
8.52559005919e-08
2.32640921199e-05
8.85345620862e-08
9.13470687526e-08
2.32917570017e-05
1.68144881923e-05
3.01731612398e-09
1.68212739364e-05
5.27240922969e-09
1.68302920303e-05
8.42233364088e-09
1.68409301207e-05
1.24076665178e-08
1.68528205415e-05
1.69116773564e-08
1.68657478512e-05
2.16929670161e-08
1.68795741e-05
2.6620255931e-08
1.68942078024e-05
3.16004314456e-08
1.69095957008e-05
3.6550227362e-08
1.69257060394e-05
4.13951761535e-08
1.6942520249e-05
4.60721526968e-08
1.69600218293e-05
5.0526139627e-08
1.6978193371e-05
5.47090721746e-08
1.69970110797e-05
5.85792321347e-08
1.70164432909e-05
6.21021030707e-08
1.70364490107e-05
6.52509157413e-08
1.70569769385e-05
6.80069134227e-08
7.03573748965e-08
1.70779669883e-05
1.46386145607e-05
-1.02760342905e-09
1.46457230999e-05
-1.83493354988e-09
1.46548640967e-05
-7.17795063729e-10
1.46653643057e-05
1.908696956e-09
1.46769153288e-05
5.36153771421e-09
1.46893549917e-05
9.25464148061e-09
1.47025643064e-05
1.34118331314e-08
1.47164616298e-05
1.77043765685e-08
1.47309947176e-05
2.20181417722e-08
1.47461283992e-05
2.62626388586e-08
1.47618329509e-05
3.03685631948e-08
1.47780795427e-05
3.42805683128e-08
1.47948369282e-05
3.79526291228e-08
1.48120700429e-05
4.13469623401e-08
1.48297394188e-05
4.44336454683e-08
1.48478005569e-05
4.71903755712e-08
1.48662060583e-05
4.96022137894e-08
5.16599794888e-08
1.48849037016e-05
1.27446039347e-05
-5.49854196135e-09
1.27521641156e-05
-9.39424663579e-09
1.27613822996e-05
-9.93481707159e-09
1.27715818055e-05
-8.28982476905e-09
1.27825845758e-05
-5.64003742146e-09
1.2794291945e-05
-2.45183735722e-09
1.28066089874e-05
1.09604707352e-09
1.28194712495e-05
4.84332566196e-09
1.2832840935e-05
8.64963368279e-09
1.28466887005e-05
1.24161263115e-08
1.28609857132e-05
1.60726982721e-08
1.28757009228e-05
1.95664298423e-08
1.28908000657e-05
2.28545135203e-08
1.29062449118e-05
2.5903029501e-08
1.29219935332e-05
2.86859770353e-08
1.29380000464e-05
3.11846352423e-08
1.29542153268e-05
3.33876953764e-08
3.52895236886e-08
1.2970586434e-05
1.1096085927e-05
-1.06546062627e-08
1.11042283592e-05
-1.75357697363e-08
1.11134232395e-05
-1.91289746718e-08
1.11231714247e-05
-1.80370453823e-08
1.11334994425e-05
-1.59672337916e-08
1.1144362222e-05
-1.3313493463e-08
1.11556840685e-05
-1.02247542873e-08
1.1167425552e-05
-6.89709379011e-09
1.11795671104e-05
-3.49071880344e-09
1.11920890005e-05
-1.04801306803e-10
1.12049664643e-05
3.19634982665e-09
1.12181702311e-05
6.36370378353e-09
1.12316672527e-05
9.35852629557e-09
1.12454204801e-05
1.21508882325e-08
1.12593905965e-05
1.47166400464e-08
1.12735387383e-05
1.70375253678e-08
1.12878285585e-05
1.9098408553e-08
2.08876807397e-08
1.13022312176e-05
9.66140204283e-06
-1.68412967422e-08
9.67021007887e-06
-2.63430574232e-08
9.67921034144e-06
-2.81283258383e-08
9.68836993062e-06
-2.71958665493e-08
9.69792660143e-06
-2.55230511357e-08
9.70784683754e-06
-2.3233017818e-08
9.7180822058e-06
-2.0459203848e-08
9.72863049616e-06
-1.74444516811e-08
9.73949259514e-06
-1.43520478458e-08
9.75065690239e-06
-1.12680988595e-08
9.76210256931e-06
-8.24848697485e-09
9.77380461844e-06
-5.33738726429e-09
9.7857331441e-06
-2.56917079204e-09
9.79785444204e-06
3.050406485e-11
9.81012960898e-06
2.44244027013e-09
9.8225166765e-06
4.65123234936e-09
9.83497299849e-06
6.64291044461e-09
8.40483283195e-09
9.84745647057e-06
8.41312997096e-06
-2.46181009405e-08
8.42255681732e-06
-3.57691145529e-08
8.43113784405e-06
-3.67086900555e-08
8.43965264717e-06
-3.57098896175e-08
8.44844847849e-06
-3.43181619391e-08
8.45746113548e-06
-3.2244880543e-08
8.46667592238e-06
-2.96731982287e-08
8.47612100407e-06
-2.68887828222e-08
8.48580911781e-06
-2.40393878852e-08
8.4957350596e-06
-2.11935142221e-08
8.50588537615e-06
-1.83981131013e-08
8.51623991908e-06
-1.56913446784e-08
8.52677262505e-06
-1.31010840932e-08
8.53745084624e-06
-1.06469724676e-08
8.54823676387e-06
-8.34275333565e-09
8.559091653e-06
-6.20290488611e-09
8.56998368876e-06
-4.24845827109e-09
-2.51627950883e-09
8.58090534757e-06
7.32724246206e-06
-3.45755501429e-08
7.33698893213e-06
-4.55148707828e-08
7.3448920786e-06
-4.46111174058e-08
7.35268089511e-06
-4.34979560739e-08
7.36063056747e-06
-4.22671310236e-08
7.36867086419e-06
-4.02845476233e-08
7.37684517934e-06
-3.78467960978e-08
7.38520375844e-06
-3.52466771846e-08
7.39376248976e-06
-3.25975902201e-08
7.4025188342e-06
-2.99492801529e-08
7.4114622644e-06
-2.73410610533e-08
7.4205758441e-06
-2.48043831998e-08
7.42983618522e-06
-2.23609616944e-08
7.43921329895e-06
-2.00235310991e-08
7.4486696955e-06
-1.77985844961e-08
7.45815770707e-06
-1.56904576053e-08
7.46762017005e-06
-1.37103085909e-08
-1.18974969406e-08
7.47700191567e-06
6.38315786412e-06
-4.76668239973e-08
6.39266482507e-06
-5.50211712539e-08
6.39990210352e-06
-5.18477801304e-08
6.40710090051e-06
-5.06961333356e-08
6.41427351609e-06
-4.94390665279e-08
6.42141083569e-06
-4.74213298869e-08
6.4286191344e-06
-4.50544702738e-08
6.43596054955e-06
-4.25875253456e-08
6.44345494506e-06
-4.00915041887e-08
6.4511056818e-06
-3.75996658429e-08
6.45890793278e-06
-3.51428598558e-08
6.4668496231e-06
-3.2745738321e-08
6.47491270651e-06
-3.04236629069e-08
6.48307298205e-06
-2.81833938276e-08
6.49129759418e-06
-2.60228133958e-08
6.49953793221e-06
-2.39304037107e-08
6.50772213611e-06
-2.18941789642e-08
-1.99360150801e-08
6.51576116005e-06
5.56220905336e-06
-6.44107328089e-08
5.57016068574e-06
-6.29721394603e-08
5.57652032925e-06
-5.82068657448e-08
5.58283277891e-06
-5.70078213941e-08
5.58887666944e-06
-5.54821992268e-08
5.59476533846e-06
-5.33094743554e-08
5.60062920731e-06
-5.09177488635e-08
5.60652432677e-06
-4.84821023171e-08
5.61247557134e-06
-4.60423321643e-08
5.61849726842e-06
-4.36210021007e-08
5.62459591436e-06
-4.12411121407e-08
5.63077101103e-06
-3.89205003884e-08
5.63701713882e-06
-3.66695208348e-08
5.64332462494e-06
-3.44905589787e-08
5.64967664689e-06
-3.23745204753e-08
5.65603520753e-06
-3.0288710979e-08
5.66229743868e-06
-2.81560335206e-08
-2.57662992129e-08
5.66812808683e-06
4.84625941808e-06
-8.30621949066e-08
4.84825045188e-06
-6.49624546894e-08
4.84950720242e-06
-5.94629405128e-08
4.84958821747e-06
-5.70879665214e-08
4.84861161564e-06
-5.45047604554e-08
4.84700866572e-06
-5.1705906128e-08
4.84502930154e-06
-4.89377213774e-08
4.84281965073e-06
-4.62718403676e-08
4.84049185804e-06
-4.3714060645e-08
4.83813658308e-06
-4.12653076788e-08
4.83582409243e-06
-3.89281761947e-08
4.83360750711e-06
-3.67035701216e-08
4.8315274809e-06
-3.45891912907e-08
4.82961663505e-06
-3.25793634223e-08
4.82790464359e-06
-3.06621953315e-08
4.82642055465e-06
-2.88043055611e-08
4.82518313111e-06
-2.69182536032e-08
-2.41901648385e-08
4.82360742675e-06
4.11961409259e-06
4.05465169119e-06
3.995188827e-06
3.93810094357e-06
3.88359624628e-06
3.83189041475e-06
3.78295276927e-06
3.73668099346e-06
3.69296699042e-06
3.65170175201e-06
3.61277363465e-06
3.5760701158e-06
3.54148098977e-06
3.50890169628e-06
3.47823956645e-06
3.4494353407e-06
3.42251719342e-06
3.39832710787e-06
8.24022824743e-08
-8.23764182352e-08
1.00404527453e-07
-1.79836625561e-08
6.36466829648e-08
3.67854543949e-08
-4.49562335882e-08
1.08618601408e-07
-2.2069483823e-07
1.75755736131e-07
-4.11878380566e-07
1.91190448726e-07
-6.12594107802e-07
2.0072730631e-07
-8.21926113869e-07
2.09337782342e-07
-1.03906260018e-06
2.17145950499e-07
-1.2631728589e-06
2.24115779028e-07
-1.49341391182e-06
2.30249289002e-07
-1.72896912584e-06
2.35560535157e-07
-1.96902928604e-06
2.40067390524e-07
-2.21281163166e-06
2.4378751912e-07
-2.45954257779e-06
2.46737370507e-07
-2.70846872343e-06
2.48931232292e-07
-2.95884470456e-06
2.50381720056e-07
-3.20993944187e-06
2.51099791793e-07
-3.46102970644e-06
2.51095590249e-07
-3.71140352758e-06
2.50378917223e-07
-3.96035863878e-06
2.48960154323e-07
-4.20720424593e-06
2.46850914563e-07
-4.45126405473e-06
2.44064900923e-07
-4.69187708173e-06
2.40618724418e-07
-4.92840425521e-06
2.36532528492e-07
-5.16022887286e-06
2.3183075261e-07
-5.38676574134e-06
2.26542462234e-07
-5.60746114116e-06
2.20701896169e-07
-5.82180365097e-06
2.14348289937e-07
-6.02932301414e-06
2.07526037446e-07
-6.22960130127e-06
2.00283959196e-07
-6.42226973771e-06
1.92675062142e-07
-6.607019377e-06
1.84755172268e-07
-6.78359528942e-06
1.76582364041e-07
-6.95180539067e-06
1.68215267124e-07
-7.11151154761e-06
1.59712400194e-07
-7.26263685261e-06
1.51130289785e-07
-7.40515386259e-06
1.42523105253e-07
-7.53909002052e-06
1.33940974613e-07
-7.66451411251e-06
1.25430019613e-07
-7.78154057523e-06
1.17031068115e-07
-7.89031510521e-06
1.08780219285e-07
-7.99101857684e-06
1.00707818371e-07
-8.08385249622e-06
9.2839353636e-08
-8.16904300262e-06
8.51945626817e-08
-8.24682639051e-06
7.77886403848e-08
-8.3174537625e-06
7.06313564462e-08
-8.38117652391e-06
6.37280508609e-08
-8.43825120702e-06
5.70787675265e-08
-8.4889247902e-06
5.06792715857e-08
-8.53344095345e-06
4.45208074544e-08
-8.57202634333e-06
3.85918847959e-08
-8.6048972379e-06
3.2876456216e-08
-8.63224630278e-06
2.73564201405e-08
-8.65424923229e-06
2.2009158538e-08
-8.67105207923e-06
1.6811068491e-08
-8.68277959819e-06
1.17346447114e-08
-8.68951617104e-06
6.74559476604e-09
-8.69130283879e-06
1.79424633102e-09
-8.68820246745e-06
-3.09065621897e-09
-8.68037926217e-06
-7.81493403384e-09
-8.66804058027e-06
-1.23284656205e-08
-8.65142619247e-06
-1.66060440855e-08
-8.63078911742e-06
-2.06264561151e-08
-8.60640662193e-06
-2.43737374917e-08
-8.5785550526e-06
-2.78403740629e-08
-8.54751617268e-06
-3.1029687452e-08
-8.51355243745e-06
-3.39521140429e-08
-8.47691437558e-06
-3.66287392948e-08
-8.43781646499e-06
-3.90861197566e-08
-8.39645110763e-06
-4.13559279859e-08
-8.35297240705e-06
-4.34665484112e-08
-8.30752066886e-06
-4.54416597296e-08
-8.26021541122e-06
-4.72918364009e-08
-8.21118865824e-06
-4.90149616721e-08
-8.1605817773e-06
-5.05909821672e-08
-8.10857902935e-06
-5.19879840358e-08
-8.05539810806e-06
-5.31627114719e-08
-8.00130896362e-06
-5.40725479635e-08
-7.94660677117e-06
-5.46820770777e-08
-7.89160851353e-06
-5.49792984262e-08
-7.83660319699e-06
-5.49832608704e-08
-7.78182488066e-06
-5.47571311059e-08
-7.7273889921e-06
-5.44105993654e-08
-7.67325864065e-06
-5.41043129095e-08
-7.61918586491e-06
-5.4041835496e-08
-7.56469126052e-06
-5.44629237233e-08
-7.50902600539e-06
-5.562771402e-08
-7.45118003969e-06
-5.78087123828e-08
-7.38986574279e-06
-6.12612164296e-08
-7.32357369097e-06
-6.62286479459e-08
-7.25058956395e-06
-7.29060350483e-08
-7.16905494775e-06
-8.14522133287e-08
-7.07699867125e-06
-9.19686190345e-08
-6.97240890405e-06
-1.0450374164e-07
-6.85328421087e-06
-1.19038245019e-07
-6.71771619655e-06
-1.35485700288e-07
-6.5639629816e-06
-1.53672572891e-07
-6.39055282901e-06
-1.7333371514e-07
-6.19638026952e-06
-1.94096559352e-07
-5.98082061112e-06
-2.15484455952e-07
-5.74382256328e-06
-2.36910567764e-07
-5.48599431318e-06
-2.57737022674e-07
-5.20856010327e-06
-2.77322772103e-07
-4.91335386668e-06
-2.9510353653e-07
-4.60274540079e-06
-3.1049344584e-07
-4.27970543279e-06
-3.22949049572e-07
-3.94749391734e-06
-3.32111832119e-07
-3.60947748405e-06
-3.37946306733e-07
-3.26903676973e-06
-3.40358941886e-07
-2.92954359382e-06
-3.39444553992e-07
-2.59403699025e-06
-3.3544423452e-07
-2.26562775874e-06
-3.28384921099e-07
-1.94658592747e-06
-3.19008406858e-07
-1.63939415615e-06
-3.07203535684e-07
-1.34691751875e-06
-2.92471549785e-07
-1.07294742357e-06
-2.74009712516e-07
-8.184818462e-07
-2.544884744e-07
-6.06731885226e-07
-2.11815227705e-07
-4.15022855818e-07
-1.9172676254e-07
-1.46145932124e-07
-2.68794177573e-07
1.97142465526e-07
-3.43081981714e-07
5.16964204869e-07
-3.19659945625e-07
7.77389972913e-07
-2.60252619286e-07
9.94342054677e-07
-2.16849794487e-07
1.17997898339e-06
-1.85538889546e-07
1.34110242968e-06
-1.61095567799e-07
1.48182193874e-06
-1.40688212913e-07
1.60475496059e-06
-1.22959380892e-07
1.7118860198e-06
-1.07146934244e-07
1.80469459047e-06
-9.28724829283e-08
1.88449870645e-06
-7.98547365148e-08
1.95236377914e-06
-6.79572323581e-08
2.00931853599e-06
-5.70348056567e-08
2.05622465144e-06
-4.70238410084e-08
2.09394352271e-06
-3.78289196711e-08
2.12321080963e-06
-2.94131402575e-08
2.14477135812e-06
-2.17128801214e-08
2.15930215004e-06
-1.47215094307e-08
2.16755410638e-06
-8.45094767994e-09
2.17046246461e-06
-3.11111502803e-09
2.16906796251e-06
1.20922604504e-09
2.16406870623e-06
4.83312842101e-09
2.15581272685e-06
8.10632111861e-09
2.14458549445e-06
1.10887484785e-08
2.13071589562e-06
1.37396921828e-08
2.11453866261e-06
1.60537942102e-08
2.09636099967e-06
1.80590797637e-08
2.07646125324e-06
1.97846598002e-08
2.05508710673e-06
2.12612174155e-08
2.03246342988e-06
2.2511886994e-08
2.00879063352e-06
2.35616810632e-08
1.98425078444e-06
2.44287995206e-08
1.95900590432e-06
2.51345380142e-08
1.93320210674e-06
2.5693696446e-08
1.90696886923e-06
2.61249353373e-08
1.88042117235e-06
2.64404147876e-08
1.85366024355e-06
2.66568344287e-08
1.82677339059e-06
2.67844628291e-08
1.79983673502e-06
2.68385784264e-08
1.77291255387e-06
2.68280816356e-08
1.74605391302e-06
2.67676408751e-08
1.71929916587e-06
2.66657383452e-08
1.69267866957e-06
2.65372780432e-08
1.66620569234e-06
2.63917591663e-08
1.63988475511e-06
2.62462125259e-08
1.61369864935e-06
2.6113355107e-08
1.58761768553e-06
2.60152042421e-08
1.56158190868e-06
2.59716751798e-08
1.53550926824e-06
2.60155867255e-08
1.5092704627e-06
2.618266586e-08
1.48269212159e-06
2.65287175258e-08
1.45551815434e-06
2.71240827971e-08
1.42739568323e-06
2.8078202561e-08
1.39780159508e-06
2.95480982609e-08
1.36596919696e-06
3.17907539071e-08
1.33069260988e-06
3.52321220598e-08
1.2898938748e-06
4.07611488594e-08
1.23995616069e-06
4.99057657747e-08
7.60560816877e-08
1.16388650474e-06
-1.04344058768e-07
2.1989426635e-08
-2.59142548404e-07
1.36826430456e-07
-4.29428140959e-07
2.07079772311e-07
-5.85695890143e-07
2.64891363009e-07
-7.272952685e-07
3.17361735402e-07
-8.90537742409e-07
3.54437341633e-07
-1.07284138641e-06
3.83037224767e-07
-1.26980105532e-06
4.06301907354e-07
-1.47833234087e-06
4.25683380851e-07
-1.69623954978e-06
4.42027479695e-07
-1.9218389331e-06
4.5585448236e-07
-2.1537695941e-06
4.67495732742e-07
-2.39086654064e-06
4.77169804287e-07
-2.63209991842e-06
4.85025430665e-07
-2.87652424149e-06
4.91166822675e-07
-3.12325723269e-06
4.95668736734e-07
-3.37145698493e-06
4.985862858e-07
-3.62031406483e-06
4.99961346064e-07
-3.86904126856e-06
4.99827376202e-07
-4.11687076552e-06
4.98212963891e-07
-4.36305102977e-06
4.95144914775e-07
-4.60684624243e-06
4.90650812988e-07
-4.8475380617e-06
4.84761380583e-07
-5.0844267803e-06
4.77512529428e-07
-5.3168365227e-06
4.68947249065e-07
-5.54411743606e-06
4.59117147587e-07
-5.76565328889e-06
4.48083658991e-07
-5.98086429192e-06
4.3591880903e-07
-6.18921587647e-06
4.22705485795e-07
-6.39022094873e-06
4.08537188276e-07
-6.58344844814e-06
3.9351713891e-07
-6.7685241075e-06
3.77756861199e-07
-6.94513755899e-06
3.61374214301e-07
-7.11304034311e-06
3.4449113632e-07
-7.27205061745e-06
3.27230972001e-07
-7.42204824906e-06
3.09715876792e-07
-7.56297684518e-06
2.92064182357e-07
-7.69483616019e-06
2.74388152158e-07
-7.81768195737e-06
2.56791949962e-07
-7.93161673131e-06
2.39370353935e-07
-8.03678835418e-06
2.22207679963e-07
-8.13338010038e-06
2.0537728678e-07
-8.22160879411e-06
1.88941259597e-07
-8.30171482911e-06
1.72950452539e-07
-8.373960653e-06
1.57444888569e-07
-8.4386211373e-06
1.42453968505e-07
-8.49598142515e-06
1.27996038269e-07
-8.54632742025e-06
1.14078927237e-07
-8.5899433163e-06
1.00699172399e-07
-8.62710385412e-06
8.78449276748e-08
-8.65807363712e-06
7.5495641974e-08
-8.68309715425e-06
6.36213093367e-08
-8.70240002491e-06
5.21851717243e-08
-8.71617897682e-06
4.11420005667e-08
-8.72461334318e-06
3.04502268921e-08
-8.72786063594e-06
2.00659929647e-08
-8.72604617341e-06
9.92777854641e-09
-8.71925435944e-06
-3.78375870363e-11
-8.70772932281e-06
-9.72240341893e-09
-8.69182095105e-06
-1.89897944128e-08
-8.67175964852e-06
-2.78671546125e-08
-8.64771839099e-06
-3.63599672139e-08
-8.61986905813e-06
-4.44458298732e-08
-8.58839337712e-06
-5.20918694472e-08
-8.55348498293e-06
-5.92720318353e-08
-8.51533939045e-06
-6.59751199493e-08
-8.47415216335e-06
-7.22063349e-08
-8.43010464301e-06
-7.79884822868e-08
-8.38336291528e-06
-8.33597992642e-08
-8.33407115113e-06
-8.83667811893e-08
-8.28235969894e-06
-9.3056677376e-08
-8.22834766793e-06
-9.74671910127e-08
-8.17216019298e-06
-1.01617945943e-07
-8.11393761274e-06
-1.05502019393e-07
-8.05385663557e-06
-1.09082911742e-07
-7.99213848453e-06
-1.12294337848e-07
-7.92906287645e-06
-1.15048086151e-07
-7.86496256151e-06
-1.17246055395e-07
-7.80021764052e-06
-1.18799854384e-07
-7.73522783895e-06
-1.19652717792e-07
-7.67038282444e-06
-1.19804598844e-07
-7.60601189399e-06
-1.19332995762e-07
-7.54233670717e-06
-1.18409944035e-07
-7.47941377324e-06
-1.17308662489e-07
-7.41709091954e-06
-1.16400341328e-07
-7.35496501617e-06
-1.16137463914e-07
-7.29236458278e-06
-1.17029909656e-07
-7.22834382508e-06
-1.19615282303e-07
-7.16168757713e-06
-1.24421603896e-07
-7.09095688678e-06
-1.31945431039e-07
-7.01451881009e-06