/*--------------------------------*- C++ -*----------------------------------*\
| =========                 |                                                 |
| \\      /  F ield         | OpenFOAM: The Open Source CFD Toolbox           |
|  \\    /   O peration     | Version:  v1806                                 |
|   \\  /    A nd           | Web:      www.OpenFOAM.com                      |
|    \\/     M anipulation  |                                                 |
\*---------------------------------------------------------------------------*/
FoamFile
{
    version     2.0;
    format      ascii;
    class       volVectorField;
    location    "22";
    object      U;
}
// * * * * * * * * * * * * * * * * * * * * * * * * * * * * * * * * * * * * * //

dimensions      [0 1 -1 0 0 0 0];


internalField   nonuniform List<vector> 
12225
(
(9.73880190213 0.0399866690372 0)
(9.50227145249 0.0407665114858 0)
(9.24571632375 0.0402498203926 0)
(8.99385665635 0.0405841492408 0)
(8.75456873627 0.0405592732914 0)
(8.52659555552 0.0402065791567 0)
(8.30831660974 0.0397440707713 0)
(8.09896258273 0.0392665753462 0)
(7.89789452876 0.0388171143589 0)
(7.70430599305 0.0384373216832 0)
(7.51726229341 0.0381721982581 0)
(7.33573368758 0.0380709058848 0)
(7.15854299663 0.0381939891469 0)
(6.9842603345 0.0386312611862 0)
(6.81101615541 0.0395380164218 0)
(6.63602671811 0.0412498818294 0)
(6.45477171541 0.0447695431652 0)
(6.24909613025 0.0489862974207 0)
(10.0163970782 0.0714298332317 0)
(10.0358920573 0.069803678377 0)
(10.0224265167 0.0673159076916 0)
(9.99334714226 0.0681894456863 0)
(9.9577626407 0.0690414815155 0)
(9.91671157657 0.0695797524309 0)
(9.87031552315 0.0701345622264 0)
(9.81918075167 0.0708168783208 0)
(9.76388065302 0.0716559653617 0)
(9.70470611699 0.0727089202827 0)
(9.64170484789 0.0740638683265 0)
(9.57471639876 0.0758361674876 0)
(9.50333429095 0.0781850117003 0)
(9.42680746678 0.0813588896135 0)
(9.34386736952 0.0857920623198 0)
(9.25232303083 0.0923616149208 0)
(9.14962840697 0.10326364287 0)
(9.02083112106 0.126201991327 0)
(10.0210853994 0.058250692908 0)
(10.0527377955 0.0583521763397 0)
(10.0659650222 0.0569523235947 0)
(10.0690455327 0.0597537915744 0)
(10.069096266 0.0627367777324 0)
(10.0666328695 0.0652911633207 0)
(10.0610600817 0.0678056918106 0)
(10.05232077 0.0704450943745 0)
(10.0404987355 0.0732665941997 0)
(10.0255406501 0.0763702917014 0)
(10.0072621837 0.0799079082847 0)
(9.98538070457 0.0840775454383 0)
(9.95949085657 0.0891500715637 0)
(9.92900361174 0.0955384033129 0)
(9.89307756048 0.103935500317 0)
(9.85055115561 0.115611714243 0)
(9.80090083951 0.133129525243 0)
(9.73899931559 0.159642538146 0)
(10.0158511037 0.04789020065 0)
(10.0426330702 0.0555771617149 0)
(10.057720934 0.0575174826332 0)
(10.0640085927 0.0617437011951 0)
(10.0677456826 0.0657501083015 0)
(10.0699753921 0.0690412772087 0)
(10.0702030263 0.0721319042748 0)
(10.0682942087 0.0753239163677 0)
(10.0642871055 0.0787567175091 0)
(10.0581160878 0.0825846518831 0)
(10.0496014191 0.0870096947625 0)
(10.0384951157 0.0922844301904 0)
(10.0244854972 0.0987450976605 0)
(10.0071814444 0.106886697603 0)
(9.98612913983 0.117492221452 0)
(9.96092048244 0.131842739798 0)
(9.93200549387 0.152024849479 0)
(9.89800363666 0.179694599578 0)
(10.0114959547 0.0398893819246 0)
(10.0331176177 0.0516799394328 0)
(10.0474577549 0.0549528387387 0)
(10.0540921079 0.0590626578402 0)
(10.0580068836 0.0631833388001 0)
(10.0605536081 0.0667907891787 0)
(10.061382391 0.0702949379007 0)
(10.0603329795 0.0740210087194 0)
(10.0574424728 0.0781317459163 0)
(10.052681992 0.0827885662383 0)
(10.0459226765 0.08820483527 0)
(10.0369847189 0.0946557615447 0)
(10.0256621415 0.102508810042 0)
(10.0117362395 0.112287998424 0)
(9.99503215857 0.124769458271 0)
(9.97557126903 0.141092232415 0)
(9.95411998313 0.16281883714 0)
(9.93063367162 0.191017731265 0)
(10.0083326279 0.0335295902009 0)
(10.0255870726 0.0475481326174 0)
(10.038728867 0.0525890689138 0)
(10.0454721605 0.0574010323317 0)
(10.0493832618 0.0622958280733 0)
(10.0518948376 0.0667528060559 0)
(10.052812706 0.0710599107364 0)
(10.0519674682 0.0755690483558 0)
(10.04938367 0.0804918939109 0)
(10.0450567409 0.0860184782114 0)
(10.0389003832 0.0923861128348 0)
(10.0307926473 0.0998968109628 0)
(10.0206139044 0.108941267368 0)
(10.0082776619 0.120045387134 0)
(9.99379920631 0.13392821471 0)
(9.97743563258 0.151537764119 0)
(9.96003394517 0.173994096807 0)
(9.94200848513 0.201996657777 0)
(10.0060063102 0.0284956439708 0)
(10.0196726195 0.043521197702 0)
(10.0314047612 0.0501676270789 0)
(10.0380703903 0.0556249000861 0)
(10.0419470642 0.0609996530839 0)
(10.0443923662 0.0659811281451 0)
(10.0453630404 0.0708112849173 0)
(10.0446999055 0.0758671006947 0)
(10.0424089881 0.0814068555147 0)
(10.0385004349 0.0876463188722 0)
(10.0329260479 0.0948371902757 0)
(10.025617439 0.1032919084 0)
(10.0165305256 0.11340063562 0)
(10.0056849018 0.125658894573 0)
(9.99322915921 0.140693021943 0)
(9.97954852364 0.159248617395 0)
(9.96547425113 0.182091263102 0)
(9.95151272391 0.209616830786 0)
(10.0043318357 0.0245125652588 0)
(10.0151018399 0.0397377949252 0)
(10.0253594577 0.0476869973314 0)
(10.0317956426 0.053826190625 0)
(10.0356454161 0.0597081977187 0)
(10.0380719759 0.0652867964606 0)
(10.0391438735 0.0707690938042 0)
(10.0387248698 0.0765138825091 0)
(10.0368047489 0.0827985037628 0)
(10.0334050965 0.0898532771443 0)
(10.0285152856 0.0979343451136 0)
(10.0221194517 0.107350889563 0)
(10.0142412673 0.118474596718 0)
(10.0049849935 0.131750274046 0)
(9.99458964374 0.147696849915 0)
(9.98350157649 0.166871247051 0)
(9.97249079408 0.189766592666 0)
(9.96207770517 0.216551212576 0)
(10.0031274095 0.0213500109022 0)
(10.0115978905 0.0362797122291 0)
(10.020426376 0.0451947724548 0)
(10.0265150177 0.052003336113 0)
(10.0303292681 0.0583767498912 0)
(10.0327730835 0.0645027372866 0)
(10.0339804781 0.0705798979755 0)
(10.0338492829 0.0769419480723 0)
(10.0323626757 0.083879890994 0)
(10.0295533404 0.0916403383607 0)
(10.0254459425 0.100482386859 0)
(10.0200729783 0.11070391687 0)
(10.0135151984 0.122645942002 0)
(10.00593931 0.136690936389 0)
(9.99763800164 0.153248728376 0)
(9.98907170218 0.172712170165 0)
(9.98092248578 0.195371174792 0)
(9.9736863425 0.221236512482 0)
(10.0022662946 0.0188229714641 0)
(10.0089398573 0.0331758767482 0)
(10.0164586247 0.0427297711803 0)
(10.0221256945 0.0501425894763 0)
(10.0258923472 0.0569850185666 0)
(10.0283925225 0.0636207279091 0)
(10.029782442 0.0702668854694 0)
(10.0299966329 0.0772334745219 0)
(10.0290197054 0.0848130015176 0)
(10.0268935243 0.0932578801315 0)
(10.0236720386 0.102819530137 0)
(10.0194281408 0.113771893127 0)
(10.0142865068 0.126412832506 0)
(10.0084545216 0.141054795114 0)
(10.0022482727 0.158003258689 0)
(9.99611128885 0.17751416778 0)
(9.99062797493 0.199729483607 0)
(9.98628747703 0.224560129085 0)
(10.0016512162 0.016787306111 0)
(10.006941749 0.0304320524206 0)
(10.0133147509 0.040342669553 0)
(10.018534677 0.0482537805991 0)
(10.0222480295 0.0555220810321 0)
(10.0248446173 0.0626158092086 0)
(10.0264681579 0.0697790215665 0)
(10.0270847944 0.0772984075272 0)
(10.026686395 0.0854554251124 0)
(10.0253227667 0.0944976645071 0)
(10.0230707861 0.104661568962 0)
(10.0200348168 0.116190904701 0)
(10.016370244 0.129335728201 0)
(10.0123058178 0.144339608487 0)
(10.0081575583 0.161416126145 0)
(10.0043318631 0.180713506458 0)
(10.0013136589 0.202270967659 0)
(9.99958748052 0.225944072964 0)
(10.0012470187 0.0152279332991 0)
(10.0055781076 0.0281753514872 0)
(10.011065457 0.0382208092505 0)
(10.0158888672 0.0464889428502 0)
(10.0195586238 0.0541020909974 0)
(10.0222820588 0.061567689161 0)
(10.0241704792 0.0691522744311 0)
(10.0252105917 0.0771237452723 0)
(10.0254035144 0.0857470088143 0)
(10.0248050421 0.095258188886 0)
(10.0235064362 0.105875199279 0)
(10.0216309827 0.117809936939 0)
(10.01934927 0.131266964235 0)
(10.0168936257 0.146429166269 0)
(10.0145636377 0.1634371816 0)
(10.0127217074 0.182361581247 0)
(10.0117685762 0.203175406449 0)
(10.0121974593 0.225703694243 0)
(10.00095066 0.0139382070712 0)
(10.0045425982 0.026173666898 0)
(10.0092954879 0.036177491647 0)
(10.0137592795 0.0446795713101 0)
(10.0173957884 0.0525711879121 0)
(10.0202730886 0.0603473371 0)
(10.0224628804 0.0682864554665 0)
(10.0239650033 0.0766398104394 0)
(10.0247907528 0.0856512445823 0)
(10.0250015117 0.0955388286807 0)
(10.0246980316 0.106497076889 0)
(10.0240156268 0.118704606766 0)
(10.0231316479 0.132321323384 0)
(10.0222728819 0.147475963005 0)
(10.0217148573 0.16424878822 0)
(10.021772492 0.182651929397 0)
(10.0227656233 0.202612730616 0)
(10.0252004915 0.223938536644 0)
(10.000711872 0.0126773971906 0)
(10.0036909758 0.0241122885799 0)
(10.0078020725 0.0339219894936 0)
(10.0119410054 0.0425547982963 0)
(10.0155817606 0.0506732133251 0)
(10.0186864788 0.0587221458477 0)
(10.0212817517 0.0669771398852 0)
(10.0233724877 0.0756694976144 0)
(10.0249785549 0.0850153576066 0)
(10.0261642638 0.0952059547972 0)
(10.027033944 0.106405348132 0)
(10.0277256445 0.11875359999 0)
(10.0284121744 0.132362991845 0)
(10.0293021424 0.147309180792 0)
(10.030634709 0.163618337834 0)
(10.0326690558 0.181255916309 0)
(10.0356436246 0.20011964066 0)
(10.0400876367 0.220018435784 0)
(10.0005345235 0.0114374363673 0)
(10.0030529583 0.0219883549387 0)
(10.006664786 0.0314275522741 0)
(10.0105624845 0.0400276444712 0)
(10.0142764689 0.0482547980509 0)
(10.0177037273 0.0564779058928 0)
(10.020828646 0.0649499280337 0)
(10.0236531941 0.0738750741412 0)
(10.0262014112 0.0834352602902 0)
(10.0285367319 0.0937866135361 0)
(10.0307592573 0.105056414281 0)
(10.0329989353 0.117342119772 0)
(10.0354119306 0.1307092887 0)
(10.0381768032 0.145184958887 0)
(10.0414868911 0.160751362902 0)
(10.0455410451 0.177340564469 0)
(10.0504989446 0.194834480487 0)
(10.0569183809 0.213052108916 0)
(10.000420904 0.0101764363373 0)
(10.0026483355 0.0197354937032 0)
(10.0059525846 0.0285985700264 0)
(10.009755374 0.036946264427 0)
(10.0136618768 0.0450932125795 0)
(10.0175405447 0.0533202364131 0)
(10.0213428668 0.0618378737057 0)
(10.0250614049 0.070813484228 0)
(10.028717653 0.0803882492627 0)
(10.0323677284 0.0906770804654 0)
(10.0360984154 0.101765639554 0)
(10.040020355 0.11370895801 0)
(10.0442613956 0.126529764687 0)
(10.0489604904 0.140215834662 0)
(10.0542597701 0.154717953671 0)
(10.0602977819 0.169949608767 0)
(10.0671620085 0.18579024006 0)
(10.0754415717 0.202077786325 0)
(10.000371532 0.00880582323931 0)
(10.0024889649 0.0172002724786 0)
(10.0057195285 0.025227540046 0)
(10.0096370805 0.0330293961429 0)
(10.0139127073 0.0408116212026 0)
(10.0184095408 0.0487677563541 0)
(10.0230573204 0.0570518638557 0)
(10.0278352097 0.0657852489567 0)
(10.0327542967 0.0750635687992 0)
(10.0378553521 0.0849575395736 0)
(10.0432030715 0.0955110162831 0)
(10.0488788239 0.106740360425 0)
(10.0549735956 0.118633761623 0)
(10.0615815262 0.131151658339 0)
(10.0687929722 0.144227384519 0)
(10.0766909648 0.157769677907 0)
(10.0853011377 0.171667039047 0)
(10.0952446781 0.185783335837 0)
(10.0003851304 0.00717139884072 0)
(10.0025817869 0.0141084617902 0)
(10.0060058118 0.0209528001813 0)
(10.0103015508 0.0278310412446 0)
(10.0151735612 0.0348686892885 0)
(10.0204851789 0.0421776800637 0)
(10.0261520062 0.0498487942073 0)
(10.0321377092 0.0579511747228 0)
(10.0384359892 0.0665330411915 0)
(10.0450651464 0.0756217183962 0)
(10.0520610889 0.0852232155962 0)
(10.0594704244 0.0953222660425 0)
(10.0673440909 0.105883037564 0)
(10.0757319719 0.116850498775 0)
(10.0846776926 0.128152662114 0)
(10.0942180554 0.139703508194 0)
(10.1043307326 0.151407135101 0)
(10.1156663102 0.163154726442 0)
(10.0004776934 0.00498658382981 0)
(10.0029821052 0.00993036544695 0)
(10.0069281593 0.0150616802996 0)
(10.0119338772 0.0204906896476 0)
(10.017686168 0.0262625545398 0)
(10.0240407699 0.0324050207045 0)
(10.0309035862 0.0389423381454 0)
(10.038222665 0.0458902403065 0)
(10.0459704004 0.0532514578925 0)
(10.0541390888 0.0610149398961 0)
(10.0627341542 0.0691566988584 0)
(10.0717677232 0.0776399957343 0)
(10.0812532007 0.0864164036961 0)
(10.0912014863 0.09542695314 0)
(10.1016174499 0.104604575675 0)
(10.1125015029 0.113876241646 0)
(10.1237950662 0.123166165733 0)
(10.1361689477 0.132393579103 0)
(10.0006477945 0.00254944189638 0)
(10.0036567846 0.00527497778977 0)
(10.008382428 0.00850794105873 0)
(10.0142893541 0.0123216583273 0)
(10.0209917926 0.0166583433645 0)
(10.0283401203 0.0214589795488 0)
(10.0362465475 0.0266908175608 0)
(10.0446529658 0.0323277504237 0)
(10.0535171409 0.0383384805314 0)
(10.0628144951 0.0446863213351 0)
(10.0725320805 0.0513300775506 0)
(10.082661757 0.0582237539647 0)
(10.09319538 0.0653161200704 0)
(10.1041226029 0.0725518113939 0)
(10.1154285554 0.0798726059919 0)
(10.1270965831 0.0872196758378 0)
(10.1390530227 0.0945350858844 0)
(10.1519712226 0.101760989854 0)
(10.0008530088 0.000156262548051 0)
(10.0044685133 0.000788314862567 0)
(10.0100689367 0.0023507832579 0)
(10.0168743073 0.0048096475306 0)
(10.0244137821 0.0079496006831 0)
(10.0325638484 0.0116237555034 0)
(10.0412662615 0.0157588424478 0)
(10.0504664848 0.0202991024793 0)
(10.060116308 0.0251882569642 0)
(10.0701852665 0.030372893571 0)
(10.0806535942 0.0358030284494 0)
(10.0915035602 0.0414295167371 0)
(10.1027159196 0.0472018714209 0)
(10.1142692345 0.0530687635543 0)
(10.1261391308 0.0589784419184 0)
(10.1383014363 0.0648802878013 0)
(10.1506768376 0.0707253337366 0)
(10.1639516729 0.0764654981571 0)
(10.0011529273 -0.00244402762932 0)
(10.0056201223 -0.00392023338265 0)
(10.0123193931 -0.0038391643043 0)
(10.0200947571 -0.00250567515128 0)
(10.0284200003 -0.000372659746509 0)
(10.0372634632 0.00233963028264 0)
(10.0466191681 0.00554025420129 0)
(10.0564380672 0.00915033943771 0)
(10.066670008 0.0130941186252 0)
(10.0772869598 0.0173079167228 0)
(10.0882698136 0.0217384978299 0)
(10.0995972172 0.026336396159 0)
(10.1112440268 0.0310533908651 0)
(10.1231824821 0.0358420062701 0)
(10.1353819115 0.0406565145754 0)
(10.1478120597 0.0454525644337 0)
(10.1603874148 0.0501890236866 0)
(10.1737864552 0.0548268582851 0)
(10.0016258199 -0.00539188748094 0)
(10.0073069338 -0.00896134174665 0)
(10.0153651019 -0.0100634740341 0)
(10.024137435 -0.0095808031973 0)
(10.0331663753 -0.00827342054095 0)
(10.0426121778 -0.00638635531186 0)
(10.0525302721 -0.00400869089784 0)
(10.062865265 -0.00123883651136 0)
(10.073569049 0.001831439673 0)
(10.0846226681 0.00513734913999 0)
(10.0960127264 0.00862739330732 0)
(10.107716372 0.0122569288182 0)
(10.1197049761 0.0159833809888 0)
(10.1319476803 0.0197662562037 0)
(10.1444109051 0.0235670846561 0)
(10.1570629345 0.0273485285789 0)
(10.1698197299 0.0310738890572 0)
(10.1833778927 0.0347067581821 0)
(10.0023537259 -0.00887670867041 0)
(10.0097752607 -0.0143988246429 0)
(10.0194614488 -0.0162269932783 0)
(10.0291742089 -0.0162861136155 0)
(10.0387729163 -0.0155969946856 0)
(10.0487008127 -0.014314299804 0)
(10.0590493193 -0.0125094425182 0)
(10.069750777 -0.0103168622661 0)
(10.0807723272 -0.00784701620904 0)
(10.0921141816 -0.00516679263789 0)
(10.103765525 -0.00232065869555 0)
(10.1157023279 0.00064911046119 0)
(10.1278944713 0.0037025136182 0)
(10.1403094506 0.00680307962904 0)
(10.1529126309 0.00991328429795 0)
(10.1656660633 0.0129989460599 0)
(10.1784765194 0.0160248118379 0)
(10.1920152766 0.0189558579951 0)
(10.0035906885 -0.0131848680775 0)
(10.013476007 -0.0202586395265 0)
(10.0249956249 -0.0222287043228 0)
(10.0354994322 -0.0226246665256 0)
(10.0455630829 -0.0225299247354 0)
(10.0559478658 -0.0218971901193 0)
(10.0667097507 -0.0207745133027 0)
(10.0777509124 -0.0193092898728 0)
(10.0890610265 -0.0176001356484 0)
(10.100661276 -0.0156973105107 0)
(10.1125485333 -0.0136378421833 0)
(10.124698833 -0.0114569419067 0)
(10.1370818991 -0.00918677397657 0)
(10.1496648258 -0.00685605320872 0)
(10.1624064179 -0.00448906302347 0)
(10.1752652815 -0.00211622238814 0)
(10.1881474863 0.000223969485719 0)
(10.2017512971 0.00247964813021 0)
(10.0054544508 -0.0186731885979 0)
(10.0187222752 -0.0264075001791 0)
(10.032084762 -0.0278026204726 0)
(10.043044211 -0.028135487569 0)
(10.0533502007 -0.0281185308451 0)
(10.0640296469 -0.0275384830157 0)
(10.0750461264 -0.0265274281411 0)
(10.0862854837 -0.0252689772985 0)
(10.0977684458 -0.0238463779198 0)
(10.1095313301 -0.0222939805196 0)
(10.1215714632 -0.0206399362691 0)
(10.1338638964 -0.0189098395431 0)
(10.1463787585 -0.0171230376577 0)
(10.1590821242 -0.0152934622417 0)
(10.1719300862 -0.013433736695 0)
(10.1848683217 -0.0115605172322 0)
(10.1977760318 -0.00970470915507 0)
(10.2112799125 -0.00793111042845 0)
(10.0086315251 -0.025835182944 0)
(10.02638712 -0.0327004939613 0)
(10.0414558599 -0.033630550633 0)
(10.0527102326 -0.0347890788288 0)
(10.063306322 -0.0356457776425 0)
(10.074295267 -0.035770823102 0)
(10.0855113649 -0.0354058346189 0)
(10.0968674198 -0.0347630114651 0)
(10.1084299574 -0.0339170373618 0)
(10.1202488868 -0.0329055393273 0)
(10.1323235375 -0.0317677602421 0)
(10.1446334145 -0.0305373814635 0)
(10.1571545786 -0.02923612743 0)
(10.1698575669 -0.0278754749415 0)
(10.1826998037 -0.026459954983 0)
(10.1956217276 -0.024990072235 0)
(10.2084812721 -0.0234754838367 0)
(10.2218597102 -0.0219809601854 0)
(10.0129298795 -0.0351524958977 0)
(10.0359172326 -0.0371589620885 0)
(10.0514377255 -0.0351943162574 0)
(10.0620796684 -0.0354955816885 0)
(10.0723380577 -0.0360241528499 0)
(10.0829216357 -0.036107934127 0)
(10.0934957803 -0.0359488179176 0)
(10.1040227546 -0.0356719176425 0)
(10.1146168182 -0.0352822446482 0)
(10.1253435353 -0.0347795476429 0)
(10.1362145667 -0.0341813457975 0)
(10.1472280165 -0.0335064602161 0)
(10.1583810977 -0.0327651562741 0)
(10.169665032 -0.0319589416411 0)
(10.1810577983 -0.0310790944306 0)
(10.192515952 -0.0300973315649 0)
(10.203884934 -0.0289547288068 0)
(10.215488672 -0.0275564209589 0)
(10.016427084 -0.0492282222306 0)
(10.0402978651 -0.0505864973695 0)
(10.0470931078 -0.0483671672092 0)
(10.0464049115 -0.0482472092939 0)
(10.0443499595 -0.0481712208453 0)
(10.0415283195 -0.04772801486 0)
(10.0377579746 -0.0471457022492 0)
(10.0332866988 -0.0465260443513 0)
(10.0284578597 -0.0458699637931 0)
(10.0235065001 -0.0451753616526 0)
(10.0185844118 -0.0444522677025 0)
(10.0138116177 -0.0437104724243 0)
(10.0092892869 -0.0429530811344 0)
(10.0050974606 -0.042176556187 0)
(10.0012980974 -0.0413677261837 0)
(9.99794798406 -0.0404849525249 0)
(9.99505245687 -0.0394155063257 0)
(9.99270924976 -0.0374764773913 0)
(9.85289510516 -0.0291798389706 0)
(9.72410683571 -0.0314559712075 0)
(9.5805038683 -0.0315060822604 0)
(9.43854523173 -0.0320316080682 0)
(9.30458634127 -0.0322688158482 0)
(9.17819742641 -0.0321664999536 0)
(9.05846282576 -0.0318867738111 0)
(8.94509289131 -0.031511959127 0)
(8.83793950237 -0.0310706438974 0)
(8.73676890614 -0.030581785958 0)
(8.64129920598 -0.0300631819455 0)
(8.55125582185 -0.0295284190395 0)
(8.46638058399 -0.0289854886018 0)
(8.38642427083 -0.0284378253033 0)
(8.31114993058 -0.0278835474078 0)
(8.24035208712 -0.0273045926408 0)
(8.17409298044 -0.0266351571387 0)
(8.11088449637 -0.025220209626 0)
(0.00434317268107 -0.111988247164 1.12432943371e-19)
(0.0602509633258 -0.124994043935 0)
(0.0888873087374 -0.116024164391 0)
(0.00761165076397 0.0243352194479 0)
(-0.230085943398 0.206900603867 0)
(-0.382345126609 0.224712185251 -4.13372549474e-20)
(-0.546494065873 0.227425560678 0)
(-0.723812295236 0.230237523768 0)
(-0.910154780598 0.232953079759 2.02237983088e-20)
(-1.10395463715 0.235179499003 0)
(-1.30413190612 0.236776884817 -1.66465026334e-20)
(-1.50977073421 0.237703698249 0)
(-1.72003702235 0.237958748075 -1.53138627732e-20)
(-1.93415129535 0.237558579707 -1.50881878279e-20)
(-2.15136902562 0.236527258199 0)
(-2.37097418425 0.234892048147 1.51587661267e-20)
(-2.59227159899 0.232681156258 1.53733829597e-20)
(-2.81458482383 0.229923195398 1.56710302742e-20)
(-3.03725298308 0.226646635716 0)
(-3.25963067308 0.222880285113 0)
(-3.48108715619 0.21865310104 0)
(-3.70100757637 0.213994860887 0)
(-3.91879412489 0.208935985542 0)
(-4.13386849393 0.203508293131 0)
(-4.34567424839 0.197744612711 -1.88897880348e-20)
(-4.55368018211 0.191679426561 -1.94100448813e-20)
(-4.75738338408 0.18534833838 0)
(-4.95631283219 0.17878851917 2.04444171188e-20)
(-5.15003272537 0.172037877215 2.09520475827e-20)
(-5.33814579072 0.165135325701 2.14496976144e-20)
(-5.52029586261 0.158119779456 0)
(-5.69617004116 0.151030268762 0)
(-5.86550023949 0.143904721074 -2.28620912368e-20)
(-6.02806399338 0.136780081929 0)
(-6.18368426479 0.129691153128 0)
(-6.33222850288 0.122670767792 -2.41220317082e-20)
(-6.47360724623 0.115748683815 0)
(-6.60777195535 0.10895206281 0)
(-6.73471237087 0.10230453592 0)
(-6.85445365087 0.0958268855082 0)
(-6.96705327492 0.0895363024632 0)
(-7.07259790211 0.0834472229546 5.22049040331e-20)
(-7.17120004471 0.077570591764 0)
(-7.26299473271 0.071914729775 0)
(-7.34813606076 0.0664846507265 5.36356049678e-20)
(-7.42679375219 0.0612830200625 5.40349123586e-20)
(-7.4991497197 0.0563092844213 0)
(-7.56539444775 0.0515604362595 0)
(-7.62572317953 0.0470301497009 5.50115263902e-20)
(-7.68033218572 0.0427099493434 0)
(-7.72941527045 0.0385886350979 -5.54842420991e-20)
(-7.77315984836 0.0346530244709 0)
(-7.81174248138 0.0308868984414 5.58166115524e-20)
(-7.84532436145 0.0272725264062 0)
(-7.8740477886 0.0237910524595 5.60064373309e-20)
(-7.89803460599 0.0204241600452 5.60460848241e-20)
(-7.9173857832 0.0171523011571 0)
(-7.9321829054 0.0139580836425 0)
(-7.94249426082 0.0108320264662 0)
(-7.94839226557 0.00778591448186 5.57901196597e-20)
(-7.94996516945 0.00484129540938 0)
(-7.94733538375 0.00202498576428 0)
(-7.94065859233 -0.000633878541602 0)
(-7.93012428245 -0.0031170817856 0)
(-7.91594774852 -0.00541666625854 0)
(-7.89835733621 -0.00752125414163 0)
(-7.87758900172 -0.00942410533364 0)
(-7.85388158064 -0.0111290326727 -5.30740344449e-20)
(-7.82746779899 -0.0126475257494 0)
(-7.79856616101 -0.0139950231701 -5.20155083213e-20)
(-7.76737680129 -0.0151905251993 -5.14408913829e-20)
(-7.7340807299 -0.0162518533914 0)
(-7.69884338815 -0.0171951583001 5.02176753854e-20)
(-7.66182172031 -0.0180302455312 0)
(-7.62317439772 -0.0187611382652 -4.89222352563e-20)
(-7.58307300214 -0.019382955689 0)
(-7.54171298299 -0.0198852514889 4.75886681156e-20)
(-7.49932205599 -0.0202512280559 -4.69176918903e-20)
(-7.45616401198 -0.0204633040111 0)
(-7.4125377041 -0.0205045464193 0)
(-7.36877131752 -0.0203663476545 0)
(-7.32521052704 -0.0200500418815 0)
(-7.28219839482 -0.0195737878951 -4.36151615475e-20)
(-7.24004422038 -0.0189733090318 4.29654789912e-20)
(-7.19898161944 -0.018308332469 -8.46280808899e-20)
(-7.1591160843 -0.0176606853216 -8.3311099947e-20)
(-7.12036313159 -0.0171371650158 -8.19654342355e-20)
(-7.08237795179 -0.0168640598791 0)
(-7.0444805379 -0.0169867483406 0)
(-7.0055919952 -0.017659127567 0)
(-6.96418979644 -0.0190390360285 -7.57635587937e-20)
(-6.91830115815 -0.0212781750337 0)
(-6.86552119067 -0.0245209732294 0)
(-6.80307109287 -0.0288965296073 -6.8898677397e-20)
(-6.72790698255 -0.0345163038082 0)
(-6.63688099183 -0.0414677039609 6.21494573665e-20)
(-6.52693906846 -0.0498063341636 0)
(-6.39534241545 -0.0595338095603 -5.27858728225e-20)
(-6.23987984595 -0.070568540466 0)
(-6.0590542429 -0.0827091887253 0)
(-5.85220463819 -0.0956082939369 0)
(-5.61954987141 -0.10876297874 -2.33521861573e-20)
(-5.36216652896 -0.121542626143 0)
(-5.0818974242 -0.133248494939 -2.00618003496e-21)
(-4.78124938115 -0.143231417811 1.06317385471e-20)
(-4.46323772982 -0.151004227962 0)
(-4.13134863161 -0.156315234793 0)
(-3.78937198196 -0.159180748293 0)
(-3.44128419019 -0.159808077268 7.80350644485e-20)
(-3.09097431914 -0.158489175054 0)
(-2.7421213749 -0.155217519231 0)
(-2.39759285739 -0.150436926864 1.56605812327e-19)
(-2.06005898074 -0.145228761106 1.92351858183e-19)
(-1.73253597483 -0.140428815987 0)
(-1.41657067461 -0.137230633891 -2.89867302607e-19)
(-1.1140120449 -0.134583761713 -3.59926983257e-19)
(-0.822734075287 -0.135058887907 4.54048417407e-19)
(-0.540146851871 -0.144198702077 0)
(-0.26972149249 -0.15684662576 0)
(0.000178853704132 -0.172912572678 0)
(0.256857396079 -0.201869550667 -1.8213981057e-18)
(0.572233301218 -0.21135643015 0)
(0.7125147839 -0.186440528657 -9.79198725435e-19)
(0.852246826674 -0.155806050085 0)
(0.99913425066 -0.129261999171 0)
(1.14358716221 -0.10742064341 0)
(1.28066510511 -0.0895316075464 4.52040172314e-19)
(1.4079418625 -0.074758808835 4.11102712511e-19)
(1.52431887921 -0.0624388039327 0)
(1.62943110998 -0.0520410380068 0)
(1.72334827577 -0.0431832050007 0)
(1.80637794792 -0.0355631272773 0)
(1.87897269925 -0.0289675833757 0)
(1.94165416552 -0.023216510989 0)
(1.99499297083 -0.0181810702573 5.78920990087e-19)
(2.03956810201 -0.0137552728684 0)
(2.07595831058 -0.00987545260246 0)
(2.10472292178 -0.00647715803501 0)
(2.12642452193 -0.0035161325011 -5.40279136129e-19)
(2.14162357169 -0.00096685706161 -5.35841675575e-19)
(2.15094398527 0.00116995026857 5.32905342015e-19)
(2.15561220065 0.00288962692322 5.3074674476e-19)
(2.15658180058 0.00424949846434 0)
(2.15414126398 0.00534606941721 0)
(2.14858016552 0.00624650915635 0)
(2.14018167439 0.0069873965842 5.30724457929e-19)
(2.12923560371 0.00759095929115 0)
(2.1160303074 0.0080759826243 0)
(2.1008417047 0.00845754390173 -5.39471119858e-19)
(2.08392657781 0.00874921927235 0)
(2.06552062033 0.00896197437867 -5.48450059676e-19)
(2.04583889798 0.00910623600701 0)
(2.02507674152 0.00919032749331 -5.5946564811e-19)
(2.00341090517 0.00922214204353 0)
(1.98100065134 0.00920794081057 0)
(1.95798895099 0.00915429711563 0)
(1.93450376214 0.00906680974977 0)
(1.9106593646 0.00895098105985 0)
(1.88655631499 0.00881046066607 0)
(1.86228162428 0.00864986560031 0)
(1.83791024673 0.00847365448691 0)
(1.81350634271 0.00828654287041 -6.27016991589e-19)
(1.78912182293 0.00809137627812 0)
(1.76479578848 0.00789202897947 0)
(1.74055535305 0.00769221780429 -6.54266438141e-19)
(1.71641505148 0.00749639796252 0)
(1.6923742973 0.00730816742166 0)
(1.66841388289 0.00713303241322 -6.83505418224e-19)
(1.64449335516 0.00697787575943 0)
(1.62054635925 0.00685072317959 0)
(1.59647141398 0.00675992420509 -7.15183249921e-19)
(1.57211904658 0.00671891083272 7.2652130514e-19)
(1.54727547941 0.00674697975536 -7.38419690742e-19)
(1.52163681027 0.00687232975126 0)
(1.49476430329 0.00713483585796 0)
(1.46600639294 0.00759903386169 -1.55944182082e-18)
(1.43439078149 0.00837440946392 0)
(1.39807050199 0.00970357257667 1.63351733006e-18)
(1.35743535644 0.0118724190193 1.68317979871e-18)
(1.25642814913 0.0197528114978 0)
(-0.0878674737402 -0.0515372767706 -3.04174123295e-19)
(-0.219623342271 0.161063757479 0)
(-0.335527197633 0.273695367498 7.11918245667e-20)
(-0.460384188635 0.353364330838 -5.03162683658e-20)
(-0.60645562974 0.425424581605 -4.00302754696e-20)
(-0.755872633814 0.469762623868 1.69984723163e-20)
(-0.915898745727 0.502311062274 3.08134550577e-20)
(-1.08910635526 0.528326397923 0)
(-1.27286527867 0.549520626766 -1.26456207808e-20)
(-1.46516952031 0.566845062526 2.49995558708e-20)
(-1.6645201387 0.580896644009 3.59874423557e-20)
(-1.86972239202 0.592072199757 -2.40093832204e-20)
(-2.07975720303 0.60065061194 3.55699031662e-20)
(-2.29371764333 0.606838624085 1.16785702484e-20)
(-2.51076949124 0.610796243885 0)
(-2.73012956574 0.612652579558 -1.22277082432e-20)
(-2.95105038896 0.612515316237 -1.26063320449e-20)
(-3.17281184554 0.610477857873 -1.30363689126e-20)
(-3.3947149587 0.606623803777 2.79036561797e-20)
(-3.61607917899 0.601031289344 0)
(-3.8362406454 0.593775639364 2.99442292743e-20)
(-4.05455243152 0.584932524212 0)
(-4.27038546912 0.574579638828 -3.21346152741e-20)
(-4.48313102846 0.562799193304 0)
(-4.69220348059 0.549678784724 5.11854491303e-20)
(-4.8970439564 0.535313097502 -1.81621989354e-20)
(-5.09712409424 0.519803909952 -3.66600395903e-20)
(-5.29195035677 0.503260841293 -5.62898480724e-20)
(-5.48106802225 0.485800283422 -1.90712959393e-20)
(-5.66406502695 0.467545170319 -1.9623418904e-20)
(-5.84057507316 0.448622928965 0)
(-6.0102803067 0.429164372987 -4.2063371367e-20)
(-6.17291295325 0.40930088487 2.12045385268e-20)
(-6.32825604766 0.389162956017 0)
(-6.47614307997 0.368877205538 0)
(-6.61645687341 0.348565030322 2.26429470966e-20)
(-6.74912752497 0.328339937946 0)
(-6.87412967754 0.308306935547 0)
(-6.99147931527 0.28856060311 0)
(-7.10123021939 0.269185385597 0)
(-7.20347071035 0.250254433031 0)
(-7.29831985227 0.23183047188 5.08613278124e-20)
(-7.38592361019 0.213965041465 1.02110062782e-19)
(-7.46645111831 0.196699774416 0)
(-7.54009016954 0.180065966107 5.25375270064e-20)
(-7.60704558668 0.164085810695 -5.23554174028e-20)
(-7.66753285909 0.14877136333 0)
(-7.72177441073 0.13412568603 0)
(-7.76999491514 0.12014233689 -1.61710745853e-19)
(-7.81241425639 0.106807116923 -1.087244739e-19)
(-7.84925370821 0.0940967728083 5.44446244941e-20)
(-7.88071890981 0.0819803323394 1.09982460105e-19)
(-7.90699945735 0.0704192109246 5.54810291923e-20)
(-7.928263086 0.0593717965502 0)
(-7.94464303972 0.0487947844287 -1.66811553092e-19)
(-7.95627999493 0.038642954701 -5.5625207168e-20)
(-7.96326345125 0.0288720058514 0)
(-7.96564922542 0.0194518809045 1.12046535602e-19)
(-7.96345397407 0.0103892253706 -1.11994508788e-19)
(-7.95738402584 0.00171188329588 -5.5724481241e-20)
(-7.94755939914 -0.00655371598778 0)
(-7.93403055247 -0.0143648470768 0)
(-7.91688721305 -0.021687349099 0)
(-7.89626703954 -0.0285052091867 1.10064393344e-19)
(-7.87231008976 -0.0348019119805 0)
(-7.84515664481 -0.0405625079457 -1.08666192514e-19)
(-7.81496795697 -0.0457934256797 0)
(-7.78191040571 -0.0505135781044 -5.35785500443e-20)
(-7.74613941236 -0.0547548957732 0)
(-7.70780079497 -0.058556274373 -5.25605066266e-20)
(-7.66703247811 -0.0619605870803 -5.20079123651e-20)
(-7.62397020262 -0.065005083639 0)
(-7.57875674064 -0.067717273861 -5.07459087978e-20)
(-7.5315532658 -0.0701060733832 0)
(-7.48255163973 -0.0721612774601 4.95510716866e-20)