/*--------------------------------*- C++ -*----------------------------------*\
| =========                 |                                                 |
| \\      /  F ield         | OpenFOAM: The Open Source CFD Toolbox           |
|  \\    /   O peration     | Version:  v1806                                 |
|   \\  /    A nd           | Web:      www.OpenFOAM.com                      |
|    \\/     M anipulation  |                                                 |
\*---------------------------------------------------------------------------*/
FoamFile
{
    version     2.0;
    format      ascii;
    class       volScalarField;
    location    "12";
    object      p;
}
// * * * * * * * * * * * * * * * * * * * * * * * * * * * * * * * * * * * * * //

dimensions      [0 2 -2 0 0 0 0];


internalField   nonuniform List<scalar> 
12225
(
-3.35092050845
-4.099566093
-4.35679859638
-4.42833797713
-4.48701905364
-4.5501373405
-4.60181311135
-4.63466151358
-4.64972723623
-4.64986040623
-4.63636747534
-4.60857549915
-4.5644247064
-4.50092959179
-4.41412171648
-4.29843817253
-4.14407805177
-3.93729091738
-3.5238339098
-4.1117609281
-4.36067518434
-4.43673460017
-4.49481364949
-4.55604983627
-4.60647954709
-4.63880105971
-4.65374485623
-4.65394289729
-4.64062687704
-4.61313863083
-4.56947970789
-4.50677040776
-4.42124924545
-4.3079093306
-4.15960393303
-3.98818108359
-3.66618237655
-4.09965604835
-4.34527839998
-4.43554573938
-4.4970366327
-4.55767584122
-4.60781102761
-4.64071822064
-4.65670074569
-4.65807399712
-4.64602400648
-4.62002961917
-4.57833699124
-4.51843739597
-4.43723338116
-4.33116021646
-4.1965774023
-4.04436624445
-3.79013668558
-4.11175806903
-4.3471553899
-4.44822602543
-4.51084120099
-4.56860351132
-4.61685714189
-4.64949831869
-4.66612262429
-4.66852141439
-4.65777177534
-4.63352231596
-4.59434862712
-4.53823660003
-4.46290785218
-4.36625571788
-4.24722209489
-4.11420647388
-3.90018079452
-4.13842012307
-4.35196973647
-4.45736733178
-4.52024983055
-4.57540793508
-4.62228580961
-4.65532802995
-4.67333348038
-4.67751168829
-4.66884460853
-4.6472116359
-4.6115979587
-4.5605624618
-4.49267499123
-4.40710313529
-4.3045549381
-4.19184948155
-3.99842959464
-4.17493306461
-4.36230093722
-4.46881066524
-4.53315139846
-4.58710176948
-4.63320607867
-4.66682361697
-4.6862881011
-4.69238055926
-4.68606028741
-4.66748413116
-4.63608166638
-4.59099672091
-4.53158541893
-4.45804177696
-4.37223248832
-4.28031743574
-4.08687847054
-4.21819680777
-4.37873258773
-4.4828102444
-4.5480223076
-4.60072865976
-4.64561745982
-4.67930220488
-4.69998256262
-4.70809465321
-4.70453805936
-4.68968874164
-4.66337182873
-4.6252591511
-4.57537293734
-4.51466835918
-4.44567699952
-4.37402080469
-4.16726440159
-4.26577471022
-4.40102095609
-4.49979822306
-4.56508177503
-4.61684908233
-4.66081198307
-4.69483481418
-4.71717186195
-4.72795107798
-4.72795793777
-4.71772671521
-4.69743259685
-4.667219456
-4.62765689805
-4.58022889417
-4.52778154778
-4.47536725616
-4.24105215121
-4.31587574325
-4.42860966437
-4.52017051198
-4.58460979929
-4.63563199946
-4.67893754722
-4.71343980068
-4.73759716974
-4.75132356853
-4.75529578156
-4.75017947505
-4.73646172321
-4.71469183424
-4.68585750501
-4.65175879897
-4.6152821923
-4.58077273796
-4.30945643986
-4.36723986022
-4.46076331793
-4.54413364704
-4.60685847424
-4.65721910675
-4.70016718938
-4.7353761424
-4.76160442106
-4.77865818642
-4.78712393798
-4.78776037376
-4.78129833644
-4.76859290148
-4.75090505237
-4.73016335622
-4.70911095234
-4.69136854173
-4.37345399465
-4.41899064915
-4.49664658042
-4.57166780329
-4.63201986337
-4.6817566609
-4.72467395052
-4.76088851822
-4.78947947584
-4.81022977111
-4.82365451663
-4.83056210011
-4.83184900429
-4.82857158217
-4.82213452661
-4.81445409526
-4.8080179215
-4.80571809397
-4.42885064069
-4.46636547397
-4.5322924181
-4.60002520518
-4.657832335
-4.70702271819
-4.75021212351
-4.78766110514
-4.81870876683
-4.84317102204
-4.86151535805
-4.87456078014
-4.88328551958
-4.88884150001
-4.89266631189
-4.89657622851
-4.90278165649
-4.91359456532
-4.48137210028
-4.51293591356
-4.56939842829
-4.63054909021
-4.68574621146
-4.73444259592
-4.77814957899
-4.81710251929
-4.85084276329
-4.87924084147
-4.90272934739
-4.92211234431
-4.93839545149
-4.9527568122
-4.96659901947
-4.98158420984
-4.99962637987
-5.02247620566
-4.53847827139
-4.56516435252
-4.61333726378
-4.66813955098
-4.72055416653
-4.76883225668
-4.81345719307
-4.85450464237
-4.89165923522
-4.92485391461
-4.9544885841
-4.98132070925
-5.0063260192
-5.03063700404
-5.05554420183
-5.0824883116
-5.11304351186
-5.14840538067
-4.59979897758
-4.62276130944
-4.66422383969
-4.71347049352
-4.76331132448
-4.81144786561
-4.85754751912
-4.90144304336
-4.94287923294
-4.98183345478
-5.0186602337
-5.0540355799
-5.08883625001
-5.12407181876
-5.16084335797
-5.20031656054
-5.2437033109
-5.29166976004
-4.66452005428
-4.68491512857
-4.72153964196
-4.76662086544
-4.81465972085
-4.86329723074
-4.91166869943
-4.95934949155
-5.00606673022
-5.05179460982
-5.09682046267
-5.14169013313
-5.18712363265
-5.23393153024
-5.28297082547
-5.33509669201
-5.39116689999
-5.45136319012
-4.73090434648
-4.74986173925
-4.7837340366
-4.82660740435
-4.87426181661
-4.92452416719
-4.97625888629
-5.02883618941
-5.08190779063
-5.13539193005
-5.18946401759
-5.24450363201
-5.30101923176
-5.35957853122
-5.42075827363
-5.48510261687
-5.55314152435
-5.6246416093
-4.79528534316
-4.81392951521
-4.84733569767
-4.89048647169
-4.93983568551
-4.99338440605
-5.04989696371
-5.1086147506
-5.16909192155
-5.23114364455
-5.2947998052
-5.3602493699
-5.42777258477
-5.4976854732
-5.57029368179
-5.64586464849
-5.7246583353
-5.80612155826
-4.85004026734
-4.86973372334
-4.90549963742
-4.952176763
-5.00609835322
-5.06524157686
-5.12836184655
-5.19465340406
-5.26357403759
-5.33480886536
-5.4082279446
-5.48383724446
-5.56170828503
-5.64193395682
-5.72458482821
-5.80969904594
-5.89731945955
-5.98664621972
-4.87229533263
-4.89453171351
-4.93568992572
-4.98899686078
-5.04965776792
-5.11548006095
-5.18541978047
-5.25878875072
-5.33500001665
-5.41364924594
-5.49450820203
-5.57750075289
-5.66258862492
-5.74975215232
-5.83892366306
-5.93002264929
-6.02297164755
-6.11686319644
-4.8690066325
-4.89473988546
-4.94310380424
-5.00438300238
-5.07204754921
-5.14396610128
-5.21963739649
-5.29860601165
-5.38028665106
-5.46421621265
-5.55017380399
-5.63807403053
-5.72787953742
-5.81950853134
-5.91285473155
-6.00776170385
-6.10413640461
-6.20102101867
-4.84681782662
-4.87809322454
-4.93682690896
-5.0080132436
-5.08304687528
-5.16071225611
-5.24155126838
-5.32537781434
-5.41152477035
-5.49950572212
-5.58915156294
-5.68044927802
-5.77337706427
-5.86783589667
-5.96366527791
-6.06066433783
-6.15868307774
-6.25671969277
-4.80865257979
-4.84875549812
-4.92201653066
-5.00467358554
-5.08669695689
-5.16940991119
-5.2548541471
-5.34294761299
-5.43286377881
-5.52416125018
-5.61682984619
-5.71097518964
-5.80659795445
-5.90357209604
-6.00167133492
-6.10066315633
-6.20038401844
-6.29989745463
-4.75616621474
-4.81058310574
-4.90356575744
-4.99831910266
-5.08609352456
-5.17293010439
-5.2623242427
-5.35382658538
-5.44635593468
-5.5396376441
-5.6339437304
-5.72956429172
-5.82656593912
-5.92479942502
-6.02399667137
-6.12384214514
-6.22408932131
-6.32366928328
-4.68988174764
-4.76760325984
-4.88587660874
-4.99162621284
-5.08329168936
-5.1737378611
-5.26717288479
-5.36221887529
-5.45750569508
-5.55298182923
-5.64917752497
-5.74650331827
-5.84504297846
-5.9446243767
-6.0449520745
-6.14568741681
-6.24656686457
-6.34653922914
-4.60931400709
-4.72457039011
-4.87250337931
-4.98565027426
-5.07835942996
-5.17080663129
-5.26658566886
-5.36327657375
-5.45960999811
-5.55597925766
-5.65316511114
-5.75159800703
-5.85127324707
-5.95192465589
-6.05318861079
-6.15465794642
-6.25591442164
-6.35558502369
-4.51321977467
-4.6874093833
-4.86604475048
-4.98283518608
-5.0771775392
-5.17347682078
-5.27249293654
-5.37078203034
-5.4676824996
-5.56435086356
-5.66194996231
-5.76096700855
-5.86132654949
-5.96267576701
-6.06461187063
-6.1667102939
-6.26846295025
-6.36818483773
-4.39976595006
-4.6626892264
-4.86160826511
-4.97155585903
-5.06473380512
-5.16463843984
-5.26703980558
-5.36718140224
-5.46496080186
-5.56222940486
-5.66048930319
-5.76029405562
-5.86151132601
-5.96373768398
-6.06657170347
-6.1696482225
-6.27243905826
-6.372720715
-4.26718795062
-4.66865554916
-4.88170333249
-4.97910569696
-5.06803489299
-5.16859389584
-5.27191146193
-5.37215666236
-5.46957584162
-5.56645650228
-5.66450478982
-5.76429679631
-5.8656529853
-5.96813607193
-6.07137977676
-6.17521209365
-6.27958645126
-6.38337847799
-4.09681707978
-4.64881563716
-4.87728910936
-4.97120859353
-5.06060858673
-5.16331144214
-5.26834154841
-5.36956701008
-5.46751230637
-5.56473000675
-5.66306299923
-5.76312935313
-5.86475315771
-5.96750057103
-6.07103411068
-6.1753207556
-6.28074547209
-6.39187119523
-3.07667345843
-3.08088113843
-3.08632619731
-3.08961167921
-3.0937336504
-3.10433084077
-3.12690461543
-3.16403618879
-3.2179907384
-3.29060279822
-3.38332104707
-3.49723994112
-3.63312380498
-3.79145257655
-3.97245085832
-4.17613610235
-4.4023480162
-4.65079483783
-4.92108045469
-5.21274506765
-5.52528784232
-5.85820076436
-6.21098410122
-6.58317121732
-6.97433542851
-7.38410505803
-7.81215953099
-8.25823552481
-8.7221110702
-9.20360210934
-9.70253556464
-10.2187383161
-10.7519990613
-11.3020498907
-11.8685204372
-12.4509150594
-13.0485606572
-13.6605828568
-14.2858518306
-14.9229596895
-15.5701690826
-16.2254006806
-16.8861981153
-17.5497330943
-18.2127860585
-18.8717594283
-19.5226800567
-20.1612521705
-20.7829182271
-21.3829510013
-21.9565410752
-22.4988915429
-23.0053013149
-23.4712142222
-23.8922772146
-24.2643963067
-24.583852365
-24.8474195467
-25.0525430529
-25.1974128368
-25.2809697179
-25.3026872588
-25.2622434903
-25.1590821787
-24.9925609466
-24.7628721263
-24.4714020296
-24.119895929
-23.7099631397
-23.2426946258
-22.7184125367
-22.1362680043
-21.4939878125
-20.7875086361
-20.0108862524
-19.1561987705
-18.2139208613
-17.173452727
-16.0242165775
-14.7568694792
-13.3650034724
-11.8466189305
-10.2055139467
-8.45193433133
-6.60303837838
-4.68232660404
-2.71827812811
-0.742120266662
1.21395728616
3.11865959527
4.94359142305
6.66494709026
8.26436550043
9.72898860192
11.0514087609
12.2292879257
13.264646469
14.1633179053
14.9336583659
15.5855584458
16.1296786363
16.5774183234
16.9403775606
17.2298461743
17.4552155503
17.6275758682
17.7562264043
17.8517520372
17.9189047444
17.9536117815
17.9543878411
17.9266977853
17.8774059525
17.8123979981
17.7362311747
17.6523961046
17.5635406465
17.4717523031
17.3786542014
17.2855471145
17.1934145795
17.1030249768
17.0149381186
16.9295937957
16.8472715437
16.7681677055
16.6923475179
16.6198340278
16.5505740524
16.4845754702
16.4218192047
16.3622644006
16.3058042431
16.2523071704
16.20158033
16.1534475246
16.1077122214
16.0642114665
16.0227751774
15.9832592427
15.9455088636
15.9093874145
15.874771987
15.8415625055
15.8096732216
15.7790313997
15.7495672207
15.7212395853
15.6940059327
15.6678124586
15.6426193374
15.6184080347
15.5951689433
15.5729053224
15.5516117858
15.5312817436
15.5119489727
15.4936650044
15.4764361266
15.4602656659
15.4452480667
15.431519128
15.419150876
15.4082605715
15.3990098412
15.3916003442
15.3861832561
15.3828529108
15.3816943097
15.3826908001
15.3856252444
15.3901039723
15.3957014125
15.4020705261
15.4088924274
15.4160011346
15.4234536988
15.4314684345
15.4414838698
15.4391121074
-3.05494285697
-3.06232334462
-3.07550415864
-3.08884852074
-3.09551750417
-3.10367931053
-3.1243042549
-3.16089026219
-3.21532422342
-3.28916527217
-3.38366545062
-3.49976401744
-3.63809803674
-3.79903764544
-3.98271445811
-4.1890648886
-4.41786182548
-4.66875730503
-4.94131230087
-5.2350344699
-5.54940311417
-5.8838996239
-6.23802563476
-6.61132447164
-7.00338947476
-7.41387610189
-7.84250000858
-8.28903859864
-8.75331754174
-9.23520284268
-9.73457643296
-10.2513191064
-10.7852761767
-11.3362329147
-11.9038723088
-12.4877447296
-13.087221242
-13.7014616171
-14.3293657693
-14.9695405667
-15.6202537033
-16.2794111062
-16.9445318652
-17.6127477609
-18.2807893473
-18.944980497
-19.6012477144
-20.2451784012
-20.8721011309
-21.4771726279
-22.0554778816
-22.602124659
-23.1123081551
-23.5813440414
-24.0047441329
-24.3783170987
-24.6983135942
-24.9615776473
-25.1657055617
-25.3091225802
-25.39106931
-25.4113974757
-25.3698571446
-25.265074525
-25.0952875035
-24.8613133388
-24.5659226992
-24.2114657809
-23.7999717764
-23.3329004385
-22.8108815469
-22.2333631503
-21.5982807181
-20.901703881
-20.1376383199
-19.2979443212
-18.372588496
-17.3502352877
-16.219331299
-14.9694531792
-13.5929970086
-12.0869242398
-10.4542651265
-8.70489361047
-6.85581925565
-4.93076786764
-2.95877840938
-0.971853576501
0.997198878659
2.91655732878
4.75721309153
6.49485978833
8.11072238607
9.59153393433
10.9294082239
12.1215968679
13.1695880148
14.0785401358
14.8563084986
15.5127536311
16.0589535853
16.5075469817
16.8708508545
17.161949102
17.3918869926
17.574167694
17.7159801844
17.8179721546
17.8843088594
17.9177460685
17.9201267794
17.8958144044
17.850389168
17.7890592414
17.7161570419
17.6351178954
17.5486455719
17.4588707215
17.3674881855
17.2758319711
17.1849369408
17.0955937064
17.0084057085
16.9238286832
16.8421924159
16.7637022579
16.6884550938
16.6164670178
16.5477329242
16.4822033213
16.4197898614
16.3604796139
16.304236517
16.250929367
16.2003756517
16.1523881675
16.1067818364
16.063388003
16.0220464844
15.9826091631
15.944926933
15.9088596074
15.8742888599
15.841122674
15.80927844
15.7786819241
15.7492654962
15.7209695141
15.6937453746
15.6675499394
15.6423543275
15.618138738
15.5948919026
15.5726274315
15.5513463813
15.5310453533
15.5117205468
15.4934125712
15.4761686561
15.4600119709
15.444986064
15.4311791867
15.4186918912
15.4076691086
15.3982915876
15.3907917815
15.3853593956
15.3820825064
15.3809749889
15.3820091601
15.3850122693
15.3895949796
15.3953059265
15.4017506513
15.4086293413
15.4158139119
15.4233750745
15.4315012575
15.4413193274
15.4426895901
-3.01150038322
-3.02457955625
-3.04281555833
-3.06566435355
-3.09165836777
-3.12267005247
-3.16341303726
-3.21743988188
-3.28739641019
-3.37525591596
-3.48246389234
-3.6100492816
-3.75869267123
-3.92878958071
-4.12049350283
-4.33376622567
-4.56841332222
-4.82412811484
-5.10052250037
-5.39716424388
-5.7136019302
-6.04939482626
-6.40413018325
-6.77744342855
-7.16902635488
-7.57863690287
-8.00609642576
-8.45128929677
-8.91414857921
-9.3946455246
-9.89276446923
-10.408483299
-10.9417388377
-11.4923996474
-12.0602236624
-12.6448252053
-13.2456284575
-13.8618332425
-14.4923662522
-15.1358429292
-15.7905192283
-16.4542648199
-17.1245418087
-17.7984070222
-18.4724958819
-19.1430017272
-19.8056830607
-20.4559346163
-21.0888928949
-21.6995213326
-22.2827304526
-22.8334662383
-23.346743537
-23.8176820575
-24.2416178929
-24.6142475431
-24.9317817992
-25.1911066515
-25.3899214016
-25.5269019511
-25.6017288624
-25.6145660738
-25.5647778404
-25.4499625116
-25.2695421158
-25.0261017225
-24.7226003082
-24.3618912193
-23.9465507706
-23.4785816521
-22.959104366
-22.388000915
-21.763528321
-21.0819206126
-20.3371113102
-19.5206037164
-18.6215962256
-17.6275350837
-16.5252475969
-15.3024264396
-13.9494045472
-12.4611946635
-10.8393687121
-9.09306511537
-7.23913428446
-5.301781516
-3.31126694334
-1.30131508298
0.693627268495
2.64023780297
4.50821943503
6.27213819654
7.91236830311
9.41502153312
10.7715045939
11.9786446675
13.0376216574
13.9539274998
14.7358879608
15.3947138288
15.9426368228
16.3954611564
16.7661225501
17.0692612355
17.3151186432
17.5071883402
17.6526545762
17.7575629351
17.8267125434
17.8631936783
17.8697305098
17.8503461117
17.8099295857
17.753247971
17.6844804711
17.6070507943
17.5237273834
17.436702608
17.347737059
17.2582039231
17.169184019
17.0814938211
16.9957758538
16.9125028402
16.8320301454
16.7545674359
16.6802446037
16.6091066198
16.5411263474
16.4762416438
16.4144215972
16.3556312452
16.2998581253
16.2469820421
16.1968262946
16.1491911869
16.1038991038
16.0607816631
16.0196886516
15.9804698326
15.9429832582
15.9070941245
15.8726787751
15.8396375283
15.8078945616
15.7773823674
15.7480368751
15.7198006831
15.6926331605
15.6664957357
15.6413637401
15.6172311797
15.5940730694
15.5718704337
15.5506199016
15.5303400848
15.511051833
15.4927507949
15.4754483902
15.4591965262
15.444068833
15.4301849312
15.4176785042
15.4067392705
15.3975849967
15.3903591683
15.3851682245
15.3821484877
15.3813611038
15.3826356335
15.3856763103
15.3901289189
15.3955945276
15.4017072619
15.4081823442
15.4148790117
15.4218597126
15.4293881595
15.4386982899
15.4430547836
-2.9921832154
-3.01033129621
-3.03780232455
-3.07323903101
-3.11656940924
-3.16849837671
-3.23083391207
-3.30564263596
-3.39494085625
-3.50046155491
-3.62358412612
-3.76534500194
-3.92646304413
-4.10738663482
-4.30833106261
-4.52932765726
-4.77025920463
-5.03090451899
-5.31096900381
-5.61012262123
-5.92802441668
-6.2643515139
-6.61881606914
-6.99118451928
-7.38128418296
-7.78901180481
-8.21432952702
-8.65726219697
-9.1178820351
-9.59629586947
-10.0926188951
-10.6069530431
-11.1393513852
-11.6897892905
-12.258120618
-12.8440427623
-13.4470492437
-14.0663938217
-14.7010397688
-15.3496176518
-16.0103716055
-16.6811276512
-17.3592725999
-18.0417597528
-18.7250886139
-19.4052683459
-20.0778169083
-20.7378491247
-21.3802178733
-21.9996049139
-22.5906528395
-23.1480501512
-23.6665399023
-24.1409838857
-24.5665440083
-24.9388609039
-25.2541448288
-25.5093237463
-25.7022891087
-25.8321057977
-25.8988874375
-25.9027918949
-25.8423690154
-25.7144197898
-25.519956845
-25.2638427791
-24.9497706115
-24.5813919592
-24.1620217138
-23.6943255771
-23.1799865772
-22.6193616724
-22.0110986435
-21.3516800595
-20.6350549347
-19.8524284121
-18.99218814
-18.0402274503
-16.9810443985
-15.7994253221
-14.4824296202
-13.0217893353
-11.4164472361
-9.67402287867
-7.81107920385
-5.85276180651
-3.83141776198
-1.78364695631
0.253036950097
2.24276150566
4.15265853613
5.9550980729
7.62882487346
9.15910878312
10.5369715626
11.7597166756
12.8294441232
13.7535573639
14.5422715374
15.2104633877
15.7716504114
16.2419607019
16.6342031652
16.9535877401
17.2087325039
17.4085801672
17.5608387123
17.6715479499
17.7454954758
17.7864829172
17.7980683238
17.784341115
17.7498011227
17.6988592807
17.6354699466
17.5629811085
17.4841424038
17.4011754742
17.3158632347
17.2296153446
17.1435385294
17.0584875403
16.9751317981
16.8939808898
16.815408718
16.7396571823
16.666872348
16.5971188035
16.5304079977
16.466660792
16.4058319806
16.3479520173
16.293007256
16.2408729716
16.1913737529
16.1443204945
16.0995394593
16.0568656098
16.016152616
15.9772591912
15.9400499734
15.9043937076
15.8701770466
15.8373106377
15.8057240599
15.7753514578
15.7461379584
15.7180233788
15.6909649997
15.6649413834
15.6399079583
15.6158346983
15.5927062537
15.5705293029
15.5493254478
15.5290740197
15.5097710207
15.4914389493
15.4741220678
15.4578911868
15.4428485505
15.4291205882
15.416888215
15.4062847631
15.3974302029
15.3904904129
15.3856525877
15.3829710299
15.382341598
15.3835995964
15.3864759335
15.3906357686
15.3957065588
15.4013354991
15.4072400574
15.4132593055
15.4193981716
15.4258464393
15.433630584
15.4371578728
-3.04501117211
-3.0663824923
-3.09962720706
-3.14419436348
-3.19986909244
-3.26693693236
-3.34620908485
-3.43875781682
-3.54575648856
-3.66831793603
-3.80740126993
-3.96377440912
-4.13799729493
-4.33043744811
-4.54128539063
-4.77058912021
-5.01827930582
-5.28420717735
-5.56817034327
-5.86994696201
-6.18931734513
-6.52609129738
-6.88012228333
-7.25132469829
-7.63967924352
-8.0452389203
-8.46812340189
-8.90851449377
-9.36663947486
-9.84275630759
-10.3371264817
-10.8499915626
-11.3815369647
-11.9318610709
-12.5009305476
-13.0885430599
-13.6942780198
-14.3174586963
-14.9570992702
-15.611857488
-16.2799735387
-16.9592296533
-17.6469250048
-18.3398830903
-19.0344288185
-19.7263374331
-20.4108221555
-21.0826427242
-21.7362940967
-22.3661120509
-22.9664039084
-23.5315133325
-24.0558152306
-24.5338520856
-24.9605831254
-25.3315439299
-25.6428706731
-25.8915458545
-26.0757840799
-26.1951865634
-26.2502675166
-26.2406633934
-26.1631308958
-26.0155795983
-25.8021764563
-25.5291618299
-25.201037044
-24.8222386413
-24.3968255567
-23.9281591199
-23.4185534099
-22.8689849385
-22.2787738097
-21.6450661271
-20.9622811925
-20.2217109229
-19.4111678599
-18.5148309749
-17.5140969122
-16.3896145784
-15.1235953765
-13.7028896261
-12.1225406147
-10.3877772521
-8.5148143455
-6.53034692004
-4.46966206555
-2.37386610945
-0.285397716
1.75588822622
3.713962444
5.55865577942
7.26689312738
8.82417546801
10.2217523935
11.4595982783
12.5423206193
13.4814097961
14.2887004601
14.9795638536
15.568448785
16.0621896875
16.4699492487
16.8023698249
17.0692423248
17.2793732464
17.4403394299
17.5584675668
17.6389858476
17.6863299773
17.7045742144
17.6979006496
17.6705625143
17.6266920612
17.5700179784
17.503787358
17.4306987688
17.3529867804
17.2724419473
17.1905144877
17.1083319354
17.0268000976
16.9466121448
16.8683242753
16.7923249582
16.7188973901
16.6481995956
16.5803327933
16.515323766
16.4531276398
16.3936821971
16.3370542035
16.283239492
16.2321206931
16.1835187849
16.1372622807
16.0931782963
16.0511192065
16.0109426464
15.9725198347
15.9357209139
15.9004265316
15.8665307138
15.8339516587
15.802625045
15.7724846507
15.7434735194
15.7155535928
15.6886646398
15.662762645
15.6378255748
15.6138415851
15.5908306921
15.5687813623
15.5476644344
15.5274833248
15.5082583891
15.4900298235
15.4728538877
15.4568112272
15.4420210044
15.4286297092
15.4167448801
15.4064547975
15.3979232882
15.3913555467
15.3868397266
15.3843309503
15.3837242686
15.3848476272
15.3874399402
15.3911783833
15.3957036547
15.4006682444
15.4057759513
15.4108235809
15.415722056
15.4204961685
15.4257050699
15.4258142147
-3.17398001119
-3.19538630158
-3.23055377315
-3.27979140542
-3.34271972291
-3.41935328907
-3.50997934566
-3.61506351425
-3.73516115969
-3.87083356454
-4.02258708081
-4.19084160095
-4.37590583664
-4.57797958977
-4.79715481765
-5.03343707641
-5.28675959819
-5.55701231655
-5.84405997718
-6.14777115481
-6.46803496974
-6.80478415591
-7.15800657017
-7.52775966465
-7.91417298992
-8.31745233291
-8.73787257292
-9.1757708349
-9.63152912919
-10.1055577726
-10.5982678647
-11.1100461164
-11.6412182041
-12.1920163134
-12.7625331674
-13.3526817415
-13.9621436715
-14.5903276676
-15.2363137418
-15.8988006241
-16.5760356983
-17.2657615567
-17.9651810428
-18.6709635799
-19.3792265215
-20.0854787789
-20.7845954099
-21.4709358257
-22.1385784381
-22.7814459875
-23.3934036016
-23.9683094417
-24.5000358779
-24.9827080427
-25.4110172494
-25.7803049061
-26.0865701283
-26.3269731534
-26.5002750973
-26.6068001401
-26.6473150555
-26.620228859
-26.5196978545
-26.3477336551
-26.1130260236
-25.820864363
-25.4764797116
-25.0848769979
-24.6507532139
-24.1782625126
-23.6706554579
-23.1299686052
-22.5567487486
-21.9494588256
-21.3035870729
-20.6109403108
-19.859019846
-19.0301641756
-18.1019833761
-17.0498034149
-15.8492175334
-14.4803923054
-12.9329181116
-11.209196816
-9.3254425521
-7.31098748714
-5.20526635913
-3.05517641515
-0.90970528007
1.18651865252
3.19356371736
5.07886544086
6.81845782973
8.40123567744
9.82098392568
11.081805025
12.1899517167
13.1577692145
13.9992241946
14.720943037
15.3320360191
15.8442336998
16.2687287802
16.6161857529
16.8964103805
17.1182722678
17.2895537237
17.4168904384
17.5059149165
17.5614897168
17.5880406384
17.5898200631
17.5709656212
17.535394587
17.4866713972
17.4279187601
17.3617915924
17.2904995018
17.2158498333
17.1393054881
17.0620331297
16.9849650632
16.908839849
16.8342356211
16.7615790588
16.6911738868
16.6232149368
16.5578213897
16.4950451667
16.4348898178
16.3773304788
16.3224064324
16.2701171089
16.2203496869
16.1729496117
16.1277583978
16.0846215925
16.0434012148
16.0039670848
15.9661974004
15.9299704
15.895177506
15.8617274764
15.8295458767
15.798567691
15.7687477807
15.7400287214
15.7123469539
15.6856605723
15.6599416948
15.6351869868
15.6114092672
15.5885912424
15.566702438
15.5457382274
15.5257215341
15.5066832194
15.4886717408
15.4717452919
15.4559996848
15.4415701373
15.4285518832
15.4170054679
15.4070541328
15.3989017372
15.3926799423
15.3883821202
15.3859573682
15.3852919805
15.3862052535
15.3884380274
15.3916732122
15.3955569544
15.3997371866
15.4038920586
15.4077578476
15.4111278243
15.4138048327
15.415826957
15.4114188501
-3.35618544101
-3.37616758945
-3.41118046586
-3.46200931794
-3.52832482161
-3.61008748077
-3.70731281848
-3.82010936317
-3.94863255879
-4.09305107461
-4.25351519539
-4.43014163689
-4.62299612788
-4.83209564124
-5.05740553887
-5.29885494012
-5.55634394828
-5.82976603341
-6.11902026529
-6.42403453566
-6.74477757854
-7.08127856955
-7.43363459573
-7.80202218228
-8.186698003
-8.58800032807
-9.00634043606
-9.44219430866
-9.89608446469
-10.3685620786
-10.8601791898
-11.3714622139
-11.9028749922
-12.4547842676
-13.0274128238
-13.6207958124
-14.2347252533
-14.8687034764
-15.5218838814
-16.1930135364
-16.880355304
-17.5816188814
-18.2939083193
-19.0137206127
-19.7369399888
-20.4587923111
-21.1737943929
-21.8758445196
-22.5584815506
-23.2150659761
-23.8388435868
-24.4230614333
-24.9610606126
-25.4466034652
-25.8741486897
-26.238803245
-26.5365756901
-26.7651931916
-26.9246524566
-27.0162589557
-27.0399248996
-26.9911804867
-26.8648027525
-26.6675703264
-26.4104064293
-26.0974494455
-25.7339867115
-25.3255471283
-24.8777735327
-24.396229187
-23.8859035919
-23.3506468598
-22.7928218025
-22.2125863709
-21.6067171415
-20.9676612937
-20.2827492706
-19.5324218637
-18.6900867708
-17.7243331923
-16.6027667278
-15.2976279633
-13.7921241743
-12.0853207896
-10.1935047341
-8.14991462038
-5.99906260331
-3.79533356149
-1.59629032057
0.548204477856
2.59808263512
4.51975106613
6.29028235238
7.90502805845
9.35796803283
10.6541086468
11.8031905404
12.8087946529
13.6788748332
14.4245760988
15.0574319189
15.5892735482
16.0315242131
16.3950005098
16.6897095319
16.9246712659
17.1078654524
17.2461760757
17.3455519527
17.4111566023
17.4476562234
17.4593611614
17.4503474644
17.4243777612
17.3848853594
17.3348750584
17.2769496751
17.2132794807
17.1456807774
17.0756180817
17.0042976531
16.9326717476
16.8615252847
16.7914533472
16.7229266127
16.6562668104
16.5917134672
16.5294023529
16.4694246621
16.4117972935
16.3565986471
16.3038473037
16.2534817335
16.2054066417
16.1595098529
16.1156519168
16.0737059281
16.0335429757
15.9950480003
15.9581077054
15.9226179359
15.8884800352
15.8556117733
15.8239521627
15.7934569107
15.7640667826
15.7357180703
15.7083705148
15.681993136
15.6565711732
15.6321210352
15.6086302414
15.5860675473
15.5644248131
15.5437167743
15.523972947
15.5052285772
15.4875360145
15.4709516331
15.4555961149
15.4415749058
15.4289395103
15.4177535318
15.4081901219
15.4004158686
15.394459178
15.3903074819
15.3878970983
15.3871041214
15.387737423
15.3895368682
15.3921847563
15.3953264851
15.398595643
15.4016359167
15.4041099644
15.4056798662
15.4059147233
15.4043763056
15.3950892281
-3.56222238849
-3.58047459394
-3.61461161944
-3.66547614711
-3.73290348571
-3.81691555143
-3.91742664271
-4.03436871338
-4.16766764469
-4.31724495728
-4.48300887544
-4.66485529337
-4.86266035739
-5.07628766631
-5.30558684915
-5.55040762668
-5.81060437375
-6.08605494788
-6.37666880011
-6.68240683752
-7.00328974397
-7.33941382114
-7.69095621026
-8.05818390348
-8.44145209654
-8.84120421742
-9.25796234865
-9.69231733216
-10.1449104351
-10.6164143948
-11.1075057605
-11.6188371158
-12.1509998013
-12.704487753
-13.27964942
-13.8766407392
-14.4953656088
-15.1354222387
-15.7960387333
-16.476011585
-17.1736229012
-17.8865574413
-18.611824929
-19.3457352504
-20.083902809
-20.821226653
-21.5518128518
-22.2690086263
-22.965691542
-23.6346141996
-24.268462925
-24.86006657
-25.402462988
-25.8890995964
-26.3139315088
-26.6715043888
-26.9581515726
-27.1732467823
-27.3187434492
-27.3961718439
-27.4021224188
-27.3267507558
-27.1743757086
-26.9566652459
-26.6772725558
-26.3411876074
-25.9546480338
-25.5246163066
-25.0584926696
-24.5639441911
-24.0481541305
-23.5169071569
-22.9742710197
-22.4216320272
-21.8565925661
-21.2719854101
-20.654909038
-19.9847446366
-19.2314275043
-18.3570784032
-17.3204309932
-16.0844883684
-14.6257971816
-12.9404089171
-11.046273117
-8.98270357237
-6.79973078863
-4.55658706589
-2.31705559883
-0.136258723816
1.9490625764
3.90831470482
5.71622699869
7.37141178982
8.87111947035
10.2100857634
11.392904881
12.427499563
13.3237671692
14.0931099823
14.7474641937
15.2989134098
15.7591674109
16.1392670046
16.4493710251
16.6986464862
16.8952073743
17.0461383897
17.1575901959
17.2349473719
17.2830083743
17.3061398485
17.308352311
17.2933136483
17.2643290441
17.2243180619
17.1758083251
17.1209451715
17.0615261167
16.9990346584
16.9346901949
16.8694850081
16.8042247276
16.7395438082
16.6759357209
16.613763706
16.5532930905
16.4946999132
16.4380994291
16.3835452853
16.3311906955
16.2810691624
16.2330438014
16.1870354217
16.142972091
16.1007508193
16.06026566
16.0214097735
15.9840831345
15.9481853638
15.9136242269
15.8803130639
15.8481919669
15.817217173
15.7873352109
15.758485969
15.7306319425
15.7037460875
15.6777957933
15.6527899472
15.6287366881
15.6056057329
15.5833872661
15.5620882841
15.5417330269
15.5223512836
15.5039882187
15.4866907021
15.4705345458
15.4556205008
15.4420202302
15.429785239
15.4190054124
15.4098328628
15.4023708686
15.3966227893
15.3925627798
15.3901134766
15.3891393988
15.3894392102
15.3907481077
15.3927440037
15.3950649212
15.3973239704
15.3991230194
15.4000458241
15.39962152
15.3972001668
15.3919590039
15.3778419531
-3.76363334776
-3.78054451527
-3.81393119127
-3.86437641358
-3.93191908002
-4.01666446698
-4.11851914115
-4.23735406632
-4.37298496747
-4.52519988018
-4.69376538655
-4.87843957114
-5.07897387551
-5.29512558926
-5.52665960887
-5.77336329435
-6.03505060706
-6.31157946679
-6.60285840007
-6.90886389434
-7.22964644323
-7.56534449742
-7.91618747733
-8.28250317344