/*--------------------------------*- C++ -*----------------------------------*\
| =========                 |                                                 |
| \\      /  F ield         | OpenFOAM: The Open Source CFD Toolbox           |
|  \\    /   O peration     | Version:  v1806                                 |
|   \\  /    A nd           | Web:      www.OpenFOAM.com                      |
|    \\/     M anipulation  |                                                 |
\*---------------------------------------------------------------------------*/
FoamFile
{
    version     2.0;
    format      ascii;
    class       volScalarField;
    location    "12";
    object      pa;
}
// * * * * * * * * * * * * * * * * * * * * * * * * * * * * * * * * * * * * * //

dimensions      [0 2 -2 0 0 0 0];


internalField   nonuniform List<scalar> 
12225
(
14.4314049481
11.7383323003
11.8662303451
11.7122744391
11.9859455362
12.3775676414
13.0039930794
13.7620749409
14.5155016575
15.0045627833
15.0202442195
14.4872437778
13.5785170149
13.1365851433
15.1827615856
22.5314411395
34.8034986005
38.1235678716
27.4199520366
20.7797053323
20.6119727676
20.6805544973
21.1936466605
21.9043022088
22.8090797449
23.7950563431
24.7167954176
25.3983514564
25.7631956613
25.8596826565
25.9704842037
27.0190083655
30.6955507114
38.4779391651
47.3832028138
43.6916097014
7.43931105309
15.6394239624
16.1150355635
15.7406213122
15.9391712581
16.2107424735
16.6295939663
17.0390673951
17.3072183104
17.2879601049
16.95118182
16.415316114
16.0855977834
16.9283680065
20.4366693568
27.390518615
34.4414915558
32.3711945665
30.0463338918
19.8167711411
19.1605294088
19.2988158871
19.6198036639
20.0807203472
20.638619126
21.1553530754
21.4864848518
21.4870486591
21.1023374335
20.4205480844
19.8220339379
20.1113656503
22.31548924
26.4854706706
29.6529095213
26.9273571868
13.0766709695
16.995254847
17.2488014444
17.2707465923
17.5702999791
17.9984198127
18.5424439075
19.0945260325
19.5439684587
19.7878968439
19.791190359
19.6421450239
19.669317485
20.4599128602
22.5308496494
25.3739809948
26.6413008872
24.0804495218
19.9314061468
18.0875709814
18.3643047801
18.3284210518
18.5086715145
18.7573574288
19.0818131225
19.3940048546
19.6181157403
19.6943807031
19.6271106986
19.5309921936
19.6983038973
20.5348770654
22.2041137685
24.0025760623
24.3093705144
22.2275029644
17.7511320785
17.9487499669
18.2891843255
18.3757934667
18.5766484864
18.8251461687
19.1113632941
19.3683605411
19.5388393839
19.588628133
19.5439287291
19.5255551826
19.769364724
20.5184458177
21.7234645552
22.7273928048
22.5422613342
20.8936393491
18.0556605296
18.0902997555
18.4412741713
18.5519240955
18.7265146019
18.9277879686
19.1470791256
19.3352217984
19.4521027103
19.4819679633
19.4618763548
19.5011352068
19.7675629906
20.3718431299
21.1610491003
21.6209013123
21.2050698102
19.8863269061
18.1024845544
18.2646880712
18.5698089201
18.706404226
18.8578763266
19.0187228957
19.1798598285
19.3086743846
19.3801751142
19.39213268
19.3856161129
19.4492256722
19.6875975622
20.1217802645
20.5737213343
20.6840655524
20.1758046321
19.0976008172
18.2057571035
18.4435043705
18.6982835218
18.8415920086
18.9694313175
19.0931757424
19.2045818252
19.2838551152
19.3179647417
19.3131906595
19.3080236246
19.3669334919
19.5439245803
19.8102457012
20.0064357866
19.9015613017
19.3675016688
18.4674049688
18.3277744798
18.6153237033
18.8119785497
18.9479034327
19.0516514221
19.1427007193
19.2129569216
19.2522552449
19.255999116
19.2346591554
19.2197736126
19.2528959716
19.3527382349
19.4707454792
19.482487915
19.249534811
18.7213498655
17.9536923399
18.4506948001
18.7473259086
18.8793320316
18.99934318
19.0809878058
19.1460561494
19.1861252666
19.1966618954
19.1781709532
19.1414646958
19.1100623891
19.1080297349
19.1362080017
19.1431938759
19.0392775753
18.7403700737
18.2313840768
17.5596028444
18.5583567014
18.8407647521
18.9122708062
19.0109216107
19.0720662466
19.1146335359
19.1308137769
19.1187259915
19.0821761456
19.0301907925
18.978604192
18.9405899831
18.903578748
18.8257502265
18.6416490527
18.3065233483
17.8217904739
17.2279094063
18.6639782815
18.9063128933
18.9272238037
18.9956932519
19.0325812915
19.0500869258
19.0416039722
19.0070849504
18.9509518725
18.879800304
18.8041628219
18.7259848246
18.6309898976
18.4838059559
18.2447418377
17.8906028339
17.4361917901
16.9130878772
18.7571571924
18.9470806767
18.9347829927
18.967278634
18.977635374
18.9649663742
18.9298895662
18.8690469977
18.7899379675
18.6944319607
18.590345995
18.4726780943
18.3295850152
18.1332351192
17.8621583861
17.5064808771
17.0867250508
16.6288392503
18.8147501742
18.9527034634
18.9229921897
18.9238102776
18.9082976066
18.8672807943
18.8043482707
18.7178363634
18.6123244619
18.4919609427
18.3570316583
18.2068508307
18.0258596236
17.8015212569
17.5166265192
17.1750841582
16.7921872024
16.3942733859
18.8145938203
18.9010568806
18.8695450506
18.8433338047
18.8074746392
18.7414240774
18.6553139012
18.5447943954
18.4165779475
18.2716078464
18.1122888304
17.934662753
17.7314829505
17.4920972141
17.2104267589
16.8893017058
16.5469263842
16.2004355158
18.8036598998
18.8228461951
18.7896964661
18.7403448219
18.6886102605
18.602554661
18.4983225791
18.3691908156
18.2232337977
18.0600537377
17.8830142899
17.6887860293
17.4744263004
17.2326315021
16.9617524263
16.6650976857
16.3596680358
16.0580538908
18.7902559927
18.748132134
18.7135777803
18.6453933127
18.580732891
18.4794738846
18.3618572609
18.2193260731
18.0613573322
17.8866780156
17.6999362942
17.4983665085
17.2821291903
17.0454874491
16.7892849388
16.5163716343
16.2425278145
15.9776605165
18.7568490776
18.7245655246
18.6784814264
18.6027002064
18.530172745
18.4176209149
18.2922178434
18.1384385901
17.9751623433
17.7920981856
17.6026533662
17.3978363976
17.1847608472
16.9532904402
16.7096568444
16.451534484
16.1984610379
15.9539567854
18.8337818642
18.8049970463
18.7519979984
18.6757863447
18.5937549897
18.4786261244
18.3433548785
18.1891888875
18.0177077786
17.8357344506
17.6412322254
17.4398182167
17.226662665
17.0039278644
16.7663529224
16.5231244107
16.2806597605
16.0558220994
18.4735465232
18.6582300596
18.6012689519
18.5365456791
18.4443111321
18.3196743796
18.1745477853
18.0100553824
17.8330522063
17.6435651347
17.4454185408
17.2403045444
17.0281643712
16.8074673912
16.5769770858
16.3396600835
16.1062475178
15.8774035816
20.0502805335
19.5361761269
19.4732588033
19.410553464
19.3247431941
19.2054055205
19.068533454
18.9121505163
18.7427586314
18.560579309
18.3699246314
18.1706180095
17.9655005374
17.7514235512
17.5289798352
17.2991124564
17.0739065449
16.8829988881
14.877526221
17.4400521092
17.5067952988
17.4509099342
17.3114324479
17.1530429398
16.9746722213
16.7850834651
16.5864114345
16.3795491159
16.1678421842
15.9546449629
15.7392000684
15.5214549221
15.3000631125
15.0769937672
14.8563177268
14.581733653
28.2476654648
22.0903391916
21.7199367783
21.6375305137
21.5387423557
21.4087516751
21.2689276761
21.1181017383
20.9585198282
20.7881989801
20.6068871236
20.4142582287
20.2130444092
20.0029358765
19.7855205041
19.5626427369
19.3433268834
19.2487636224
0.625284213365
15.4435339062
16.4434465348
16.3824551538
16.2262024873
16.0835956492
15.9229490498
15.7564759928
15.576857056
15.3801446915
15.1634446365
14.9265415983
14.6700961087
14.401986505
14.1305349508
13.8677450774
13.6290707391
13.2573476927
45.9259217554
24.4009514321
21.8595563617
21.9544588014
21.7000484409
21.4805354597
21.2506547641
21.0207636305
20.7922242107
20.5635768209
20.3383120874
20.1256187938
19.932506063
19.7691214063
19.6487938712
19.5691016123
19.4956021557
19.5362909819
-7.35099468212
14.6621161594
16.7544094389
16.4358005093
16.2772778253
16.0955281086
15.9313494208
15.7598929049
15.583719753
15.3990084265
15.2059020991
15.0114563164
14.8152609851
14.6150512372
14.4110829946
14.1966695213
13.961076893
13.5279860263
35.0037484047
25.0705334456
24.8548543557
24.6729542658
24.4418865865
24.2268350861
24.0117998839
23.8066196134
23.6049719967
23.4048177911
23.2022253012
22.9938083148
22.7679603077
22.5090926013
22.2064657852
21.8524784124
21.4157909865
21.0923199254
11.0198424431
11.5512217319
10.84188593
10.9833347009
10.8876850479
10.8467069905
10.7883189552
10.7401921199
10.7018561863
10.6737644012
10.6544059749
10.6366564227
10.6073290341
10.5483666194
10.4495408857
10.3432463011
10.3390925895
10.4251217791
8.42155488068
8.40281080234
8.37348520599
8.33990657136
8.31311107431
8.29199175503
8.27480726817
8.26885549129
8.28178787518
8.31385282579
8.3621182199
8.42129156338
8.48658997473
8.55367331304
8.6197096346
8.68272669693
8.74187000511
8.79687128553
8.84789253488
8.8955180228
8.94034815137
8.9832808742
9.02495457325
9.06638563252
9.10806407106
9.15081545184
9.19505600945
9.24130355276
9.28969209387
9.34026666477
9.3930080337
9.44749620943
9.50358746422
9.56053788427
9.61825216714
9.67566063024
9.73288801643
9.788859107
9.84371089156
9.89639493712
9.94725457486
9.99528749692
10.0409518859
10.0832902978
10.1228551356
10.1587077792
10.1915533346
10.2204959851
10.2464565284
10.268481089
10.2876568252
10.3030848397
10.3159465641
10.3254503783
10.3325696918
10.3364270548
10.3376744222
10.3358060682
10.3311293881
10.3236368571
10.3135515522
10.3017416239
10.2891420241
10.2792083119
10.2763159922
10.2807297876
10.2906487799
10.304482871
10.3211029435
10.3389129015
10.3576428486
10.3756592679
10.3932670843
10.4088718282
10.4230363885
10.4345147499
10.4438341142
10.4501874274
10.4537164263
10.4538604379
10.4502610321
10.4425913596
10.4300419776
10.4128172479
10.3892148273
10.3599546698
10.3233389736
10.2802658044
10.2313227175
10.1756091468
10.1173632796
10.0517799739
9.97501172523
9.88179921024
9.77198433664
9.64530697868
9.50410367452
9.34964251356
9.19181221105
9.03943189248
8.89242295243
8.74100689632
8.58278748406
8.42949882704
8.27954942444
8.1327475865
7.96521047543
7.79052548036
7.62919873947
7.48098189961
7.34688962807
7.22780328981
7.12242909745
7.02893307434
6.94595774828
6.87200461587
6.80609146705
6.74699494698
6.69388010813
6.64556263784
6.60131343327
6.5603817908
6.52253702515
6.48724647507
6.45418565631
6.42260102447
6.39224688566
6.36275635865
6.33446053427
6.30755463243
6.28263700056
6.25962590947
6.23885242297
6.22015334673
6.20365565367
6.18921444759
6.17692999757
6.16662361629
6.15823834893
6.15133249308
6.14560276017
6.14044846628
6.13585247957
6.13157849245
6.12788021261
6.12452190758
6.12166641235
6.11899427155
6.11668888362
6.11441699237
6.11234378257
6.11008334107
6.10782201004
6.10514281753
6.10222577145
6.09859119886
6.09438202657
6.0890488795
6.08266094936
6.07464708475
6.06515864947
6.05341976263
6.03929738894
6.02187378277
6.00073247992
5.97424745005
5.94143462745
5.9003564615
5.85039986859
5.79099456394
5.72382075603
5.65143889457
5.57888314992
5.51093332631
5.44999535476
5.39442561907
5.33577387209
5.25703077376
5.14289872907
4.9895842838
8.42683710041
8.40151736774
8.36152114076
8.29032928612
8.20546002842
8.12822852083
8.07840264807
8.06245169351
8.07709064461
8.11442067079
8.16681066256
8.22747087104
8.29155343166
8.35549514691
8.41703943024
8.47467791544
8.52752218315
8.57509643995
8.61713684656
8.65367707175
8.68468491127
8.71053384703
8.73133614152
8.7475289605
8.75929012445
8.76708551964
8.77103275043
8.77147829078
8.76847637071
8.76209264162
8.7522805936
8.7388411795
8.72173840016
8.7004484795
8.6749273459
8.64460793452
8.60948101939
8.56888902915
8.52294443153
8.47099465397
8.41321666228
8.34907124334
8.2788403501
8.20209644842
8.11924156311
8.0299637679
7.93484720719
7.83373917652
7.72744268393
7.61596409428
7.50029439262
7.38047635942
7.2574584474
7.13128806622
7.00291975462
6.87267751774
6.74160125555
6.61029907005
6.47984483566
6.35096901943
6.2243554842
6.10048707112
5.97855889491
5.85470619528
5.72613782516
5.59784963412
5.47387652865
5.35697731353
5.24942651256
5.15252131074
5.06749973663
4.99445074977
4.93366632307
4.88444473745
4.84642579502
4.81871497894
4.80078113456
4.79205144319
4.79218659251
4.8011715299
4.81905779262
4.84653878258
4.88403918422
4.93271285037
4.99279989964
5.06541654308
5.15060407768
5.24961914651
5.36205374997
5.49128034097
5.63502841411
5.79258574942
5.9586913569
6.12774642824
6.29494826186
6.46099986568
6.62599284839
6.78702213941
6.94304267996
7.09696270681
7.2438345896
7.37628028236
7.50391803645
7.63826706944
7.7413797108
7.80208464948
7.85212784179
7.89399289893
7.90324318788
7.88244569724
7.85298425597
7.82054225864
7.78704002201
7.75324624931
7.71939347599
7.68561520296
7.65184195948
7.61806115129
7.58406228766
7.54954983963
7.51428123525
7.47827706925
7.44179668893
7.40511030226
7.36840576719
7.33186028188
7.29578026755
7.26057159123
7.22676456283
7.19470057072
7.16405158736
7.13453166744
7.10575748605
7.07766233363
7.05032571139
7.02372765548
6.99790257178
6.97276670279
6.94815746245
6.92376179203
6.89910328664
6.87373621741
6.84753378821
6.82053368405
6.79297485299
6.76498377116
6.73680208163
6.70857161251
6.68048247264
6.65253879232
6.62492810338
6.59768398103
6.57104590016
6.54502617725
6.5198373906
6.49538790106
6.47180080743
6.44889898685
6.42681933368
6.40521914311
6.38392826565
6.36236104204
6.34029597919
6.31683301003
6.29142634213
6.26297573696
6.23071551996
6.19350613983
6.15110475499
6.10327796825
6.05118360746
5.9966520272
5.94267155148
5.88955166516
5.83642748369
5.77684753067
5.69793847679
5.58227846492
5.42827785814
5.28606972078
8.44678415756
8.39524281904
8.27561360564
8.11433802947
7.95907408525
7.84491173482
7.78687024635
7.77857277813
7.8049387078
7.85062346247
7.9045313566
7.95980291846
8.0128046303
8.06184042903
8.10630723265
8.14612474133
8.18149193743
8.2127332097
8.24021530186
8.26440639692
8.28580265596
8.30491906671
8.32227570039
8.3385053209
8.35405524996
8.36948111035
8.38518030083
8.40155842515
8.41881380634
8.43710139804
8.45644997501
8.4767280228
8.49776517436
8.51924221987
8.54094388219
8.56228427308
8.58311400858
8.60281501471
8.62118748911
8.6376172884
8.65201311163
8.66381413077
8.67303089957
8.67921260076
8.68248682849
8.68253284542
8.67962482927
8.67360106244
8.66494219215
8.65359216753
8.64013644051
8.62472984029
8.60792917578
8.5897926196
8.57080964125
8.5512106482
8.53148427758
8.51193800894
8.49284177742
8.47452171553
8.45702057794
8.44048677693
8.42542804586
8.41446441508
8.4034326602
8.38783561745
8.36670563423
8.3399485256
8.30792138509
8.27085477602
8.22959565796
8.18475975591
8.13750910287
8.08860406
8.03911501709
7.98965241433
7.94083176924
7.89286691717
7.84573009631
7.79920382131
7.75278949651
7.70620526462
7.65901244013
7.61126496359
7.56295876204
7.51493879822
7.46813685429
7.42364753727
7.3847013373
7.35180839504
7.32707774197
7.3095748499
7.29782939494
7.29104229422
7.28482694373
7.27977461238
7.27613504643
7.27135682249
7.26998216983
7.28353802851
7.30992594982
7.34256167782
7.39186778952
7.4458287741
7.4741698695
7.5015877102
7.58591721095
7.67577734153
7.70834068996
7.68471192779
7.63478949637
7.5756648049
7.51573503576
7.45891697881
7.40675198566
7.35973284461
7.31762858468
7.28010420559
7.24641905849
7.21585251751
7.18759837998
7.16128590566
7.13663422664
7.11361624699
7.09197297998
7.07160726471
7.05209660049
7.03313757305
7.01401468075
6.99420764612
6.97344288036
6.95219585948
6.93060072967
6.90891992217
6.88708675793
6.86517195272
6.84314791328
6.82109642934
6.79890705359
6.77636227259
6.75300496891
6.72853094751
6.70276404793
6.6759040723
6.64819637778
6.62024593169
6.59252027663
6.56548418218
6.53926950105
6.51406561856
6.48999364214
6.46728055238
6.44594324508
6.42605054291
6.40755048717
6.39032208715
6.37399925554
6.35821168994
6.34259587847
6.3267409134
6.30994407129
6.2916296473
6.27116930238
6.24764611836
6.22017541948
6.18771006547
6.14923656356
6.10390749141
6.05165182355
5.99313513641
5.93090257153
5.86874302075
5.81094081045
5.75905976657
5.7131376292
5.66534478238
5.59979459002
5.49531161511
5.34755176686
5.2054763588
8.41956976075
8.24551187434
8.04814655011
7.87164307203
7.72582687702
7.6317179316
7.59796489699
7.61213342106
7.654617061
7.70921236207
7.76576817165
7.81935043539
7.86784102167
7.91090616978
7.94865601102
7.98157116006
8.01002351167
8.03440267971
8.05506064989
8.07226376291
8.08630743289
8.09748925165
8.10616384957
8.11257829517
8.11713608082
8.12013238444
8.12185374125
8.12254727582
8.12239665297
8.12151403809
8.11989170893
8.11747461375
8.11419189233
8.10973766309
8.10395328
8.09650247504
8.08717340797
8.07548005287
8.06133732507
8.04420341276
8.02403739161
8.00033416713
7.9731527402
7.94205654921
7.90722509174
7.86831700608
7.82566505402
7.77905033483
7.72892516101
7.67523187391
7.61851826311
7.55873770063
7.4965083184
7.43188064536
7.36524896829
7.29671763561
7.22664781736
7.15520730189
7.08261879336
7.00920814585
6.9354821332
6.86229458613
6.79054000627
6.72126165675
6.66081081066
6.61105886455
6.57134965418
6.54055349425
6.51746361072
6.50070477338
6.48911859059
6.48156499839
6.4774313308
6.47630507738
6.47838271068
6.48410480718
6.49429694245
6.50996314911
6.53214895955
6.56187096064
6.59980356076
6.64643489746
6.70158665342
6.76474153967
6.83476180036
6.91034635394
6.98971880795
7.07137160935
7.15337691204
7.23573180166
7.31564662797
7.39058650223
7.45837927664
7.5166363949
7.56086021165
7.58917240349
7.60482888768
7.60717830056
7.6093465546
7.61677435924
7.61431773263
7.59159791602
7.54903308226
7.47310016068
7.3955332521
7.38880835007
7.46381867885
7.5434342195
7.5834215011
7.5834916979
7.56249357721
7.53324411036
7.50257092395
7.47328261107
7.44625851542
7.42136454217
7.3981578852
7.37609344115
7.35450858386
7.3327574055
7.31031804301
7.2870498717
7.26305375758
7.2385626406
7.21376566464
7.18889457084
7.1640429621
7.13925481699
7.11445117297
7.08975353538
7.06564169131
7.04180254578
7.01797717247
6.99407203839
6.97000838162
6.94586033047
6.92169161482
6.89764868333
6.87375840932
6.84986344562
6.82558831149
6.80053034386
6.77428385151
6.74667096565
6.71773509786
6.68785247215
6.65739217378
6.6266852969
6.59598504605
6.56558824862
6.53568861491
6.50652411755
6.47822029853
6.45086192149
6.42435494691
6.39874043472
6.37395166607
6.34973101622
6.3257324178
6.30153406209
6.27671082978
6.25082493349
6.22341145988
6.19389583063
6.16159114791
6.12563515495
6.0851045156
6.03922684633
5.98794178439
5.93219730587
5.87475817694
5.81954986902
5.77067773435
5.73000997375
5.69680099055
5.66435327593
5.61915379987
5.54634619756
5.44542058511
5.35177033934
8.29974632467
7.92891047193
7.7359882189
7.64573767207
7.56685775997
7.51385310387
7.50279829889
7.52523166189
7.56552181558
7.6122803404
7.65890366557
7.7029151633
7.74310168747
7.77957305249
7.81227562709
7.84159992251
7.86763634423
7.89065457972
7.91075721852
7.92811394991
7.94296726284
7.95541151529
7.9657699244
7.97424916607
7.98119585614
7.98682537818
7.99152880429
7.99552362384
7.99907975103
8.00235680691
8.00550605706
8.00857353224
8.01151297396
8.01431411148
8.01687769797
8.01896727912
8.02052448692
8.021255177
8.02105091926
8.01955122711
8.0167335946
8.01220099775
8.00601538429
7.99780808854
7.98774516163
7.97553083759
7.96144407889
7.94529724746
7.92752870998
7.90802939253
7.88730316293
7.86543505196
7.84288361942
7.81970945474
7.79630886607
7.77273167845
7.74928417994
7.72614593574
7.70365297412
7.6820727492
7.66155541177
7.64192472776
7.62238197982
7.60062537314
7.57298059077
7.53928357915
7.500596843
7.45820416016
7.41336354151
7.36699529646
7.31976999879
7.27183500287
7.22313996563
7.17326799281
7.12181039412
7.06829546164
7.01256685555
6.95477195419
6.89564227143
6.83661907264
6.77984486602
6.72830534891
6.68536857979
6.65471745342
6.63971204591
6.64327860424
6.66720029161
6.71201496859
6.77814931423
6.86289792823
6.96336809758
7.07533417341
7.19234916574
7.30690762533
7.41331913097
7.51095293773
7.60151603545
7.67267476536
7.71757987965
7.71633110651
7.6454581554
7.52367975325
7.38655281603
7.26682350074
7.21155363407
7.23946379238
7.31166668699
7.37321627925
7.40582900609
7.41034062905
7.39596280694
7.37036093994
7.33884023238
7.30449043872
7.26913505521
7.23368221629
7.19882494329
7.16479180773
7.13175898462
7.09951293527
7.06810064909
7.03757168838
7.00833220523
6.98055829197
6.95458436449
6.93042217522
6.90820008938
6.88771100125
6.86887957469
6.85118780066
6.83378246836
6.81621824937
6.79866918439
6.7809155956
6.76303396916
6.74499432823
6.72698056567
6.70906942816
6.69141500582
6.67394269002
6.65649878711
6.63865989828
6.62019467029
6.60088967898
6.58086338897
6.56007615748
6.53874420208
6.5169449023
6.49500566207
6.47305214983
6.4513920966
6.4300865709
6.40946597675
6.38952238117
6.37024072641
6.35137075586
6.33292825848
6.31466733298
6.29639732336
6.27746755704
6.25756322049
6.23597126489
6.21220248197
6.18533887253
6.15464446355
6.11901220226
6.07760296686
6.02934630147
5.97407556481
5.91235181473
5.84649723211
5.77965420066
5.71544194192
5.65574214166
5.60040865947
5.54448263624
5.47951309828
5.39908993165
5.30846413084
5.22820589828
8.10869045306
7.48357379146
7.40478897777
7.47711477374
7.47715918408
7.45775975129
7.45782520988
7.47750516244
7.50743452815
7.54154521718
7.57628735603
7.61058663444
7.64336061459
7.67454965603
7.70360142034
7.73056563849
7.75509871011
7.77719433375
7.79670417242
7.81356585967
7.82774296342
7.83921383112
7.8481165576
7.85440981345
7.85839277737
7.86013286421
7.85992780017
7.85789988659
7.8543330468
7.84935520452
7.84313520881
7.83576540581
7.82737592419
7.81792674517
7.80746814344
7.79597184408
7.78342926819
7.7696876688
7.75482817673
7.73862518965
7.72118668685
7.70226645809
7.68203967422
7.66026957006
7.6372107144
7.61267092912
7.58700567757
7.56010727365
7.53239145111
7.50390436244
7.475135582
7.44613748545
7.41740414807
7.38902146182
7.36127267966
7.33420478065
7.30803751393
7.28282807881
7.25863717586
7.2353223695
7.21263563936
7.19024838008
7.16822504623
7.14749809455
7.12850979333
7.11091050507
7.09435553611
7.07864354796
7.06378816413
7.04992404614
7.03728364404
7.02598025812
7.01600955545
7.00699450543
6.99834137746
6.98899265217
6.97762002478
6.96259878071
6.94230344928
6.91534321194
6.88097010582
6.83953319206
6.79268787933
6.74362716745
6.6968403487
6.65789742972
6.63258064989
6.62645978988
6.64456216597
6.68852083275
6.7542300722
6.84059959808
6.94189784869
7.05442399323
7.17095872274
7.28200978972
7.37427212433
7.4261056105
7.41803583898
7.3411244707
7.21210869352
7.08730741733
7.00468810629
6.98484316862
7.03508117321
7.13273736485
7.2363752578
7.31693559962
7.37030187152
7.40035722781
7.41354380222
7.41551426332
7.41065221908
7.40204639304
7.39159411913
7.3804914584
7.36939277426
7.35853531917
7.34778568189
7.3367759464
7.32518413898
7.31286929201
7.29980083169
7.28593257776
7.27120367588
7.25546230469
7.23856268759
7.22031178015
7.20054565929
7.17909533728
7.15639893542
7.13317850219
7.10948521004
7.08528639171
7.06055117465
7.03522630253
7.00936396658
6.98302868525
6.95629702165
6.9291175003
6.90128157668
6.87252046355
6.84278462281
6.81220129752
6.78100951565
6.74939614023
6.71758628642
6.68577050725
6.65420347323
6.62306718825
6.59257928929
6.56285819336
6.53408472356
6.50635538564
6.47979815006
6.45428932561
6.42972795419
6.40594277649
6.38279340695
6.35988936815
6.33690739876
6.31334345056
6.28874577729
6.26243292728
6.23371820987
6.20161113583
6.16532377695
6.12400868105
6.07745078568
6.02609108034
5.97154060959
5.91593178732
5.86149512877
5.80900076399
5.75705196719
5.70033753405
5.63160762337
5.54676513492
5.45062868638
5.35411605696
7.86571238574
6.96580694819
7.12344305159
7.3785618811
7.42284901254
7.41618339671
7.41782781639
7.43236849712
7.45407823698
7.47954391991
7.50647424747
7.53425935271
7.56170793789
7.58864890734
7.61426443533
7.63848917863
7.660785435
7.68111491634
7.69914944689
7.71482567183
7.72804952203
7.73869960257
7.74684075021
7.7524480248
7.75569579891
7.75658724544
7.75541407458
7.75222556956
7.74730212694
7.7407115974
7.73270675362
7.72333469928
7.71273541226
7.70096815735
7.68814957681
7.67421300089
7.65930577013
7.64334039403
7.62643150664
7.60844540187
7.58954831946
7.5695657665
7.54870635581
7.52678910479
7.50406679642
7.48039184631
7.456061543
7.43100591001
7.40561919892
7.37990885522
7.35430740281
7.32898541292
7.3043271628
7.28044037773
7.25754046556
7.23553129856
7.21451740448
7.19446727586
7.1754039505
7.15714347466
7.13932363441
7.12126251341
7.10225687172
7.08220624597
7.06149731576
7.04046049453
7.01943154795
6.99881808587
6.97902515092
6.96047671565
6.94358860837
6.92873887535
6.91626990442
6.90638328839
6.89914145985
6.89430895602
6.89138276337
6.88928619845
6.886532848
6.88113373849
6.87090840665
6.85385854503
6.82873452307
6.79568696896
6.75658163168
6.7152530513
6.67710901813
6.64724246871
6.63132951905
6.63176785513
6.64716147235
6.68049272711
6.72725262427
6.78689697204
6.8536127667
6.91133132842
6.93814322609
6.92311301147
6.86899063219
6.78947353698
6.7187602353
6.7009017175
6.74311065375
6.83741579299
6.96672491306
7.10325037914
7.22175527003
7.31012009248
7.36960097435
7.4048176652
7.42149484207
7.42448842437
7.41785168658
7.4045746929
7.38676361548
7.36600649639
7.34325642413
7.31921434192
7.2939933698
7.26772932209
7.24041813974
7.21241715152
7.18396698036
7.15548313403
7.12711752714
7.09921092363
7.07185521157
7.04531911291
7.01963351378
6.99502386169
6.97134966835
6.94816878783
6.92511065897
6.90212600735
6.87905812931
6.85596705729
6.83284265502
6.8098414782
6.78699538075
6.76427830437
6.74140935041
6.71815516116
6.69431478578
6.66999619879
6.64527894061
6.62039445787
6.59544131276
6.57065782464
6.54614455318
6.52212355309
6.49863658155
6.47583215497
6.45362916241
6.43206468573
6.41108209382
6.3906683996
6.37061301162
6.35076718922
6.3308326764
6.31062704163
6.28978784469
6.26804875034
6.24495040052
6.22006017156
6.19267231555
6.16215600721
6.12777983575
6.08912051223
6.0461190718
5.99950930835
5.95073553584
5.90175676117
5.85430931547
5.80899774522
5.76434734592
5.71559420638
5.65667679105
5.58438957817
5.50203494688
5.41568414341
7.58313776967
6.44727703255
6.93098941993
7.32101635152
7.35951779952
7.3577565424
7.36313380119
7.38002669857
7.40231480731
7.42694362178
7.45224584098
7.47780934392
7.50257120582
7.52648933977
7.54881648366
7.56958960146
7.58832520855
7.60506287788
7.61955486266
7.6317997961
7.64168537603
7.64921840198
7.65445824705
7.65736492773
7.65813403921
7.6567611354
7.65347136934
7.64828128722
7.64144465641
7.63298704093
7.62312303883
7.61186971111
7.59944495593
7.58580297272
7.57112514055
7.5553926753
7.53875834243
7.52114854136
7.50276766562
7.48351042571
7.46358984747
7.44288244317
7.42161851336
7.39966883114
7.3772810828
7.35435131021
7.33116439063
7.30768742258
7.28423516576
7.26094396051
7.23821608466
7.21625538289
7.19551941037
7.17623886798
7.15846818927
7.14201537331
7.12688794985
7.11309491112
7.10092168071
7.09059671703
7.08174656962
7.07352215859
7.06457942897
7.05366536335
7.04026193924
7.02434978813
7.00633021224
6.98689382042
6.96686079156
6.94705486292
6.92815429845
6.91073743868
6.89519621587
6.88179954413
6.87073617479
6.86211478477
6.85592570058
6.85189485934
6.84939786213
6.84734967334
6.84415275393
6.83781016918
6.82624793492
6.80794459787
6.78219340091
6.74922605258
6.71146165943
6.67068348878
6.62936551422
6.58903908174
6.55237527813
6.52722620617
6.51462037266
6.5148273134
6.52186669887
6.52468243714
6.51111383847
6.47767643296
6.43727274465
6.41509955105
6.43928531527
6.52237543794
6.64776951991
6.79542703983
6.94606732908
7.08220795784
7.19272853027
7.27433354614
7.32947150245
7.36236389565
7.37789207872
7.38047435926
7.37391694929
7.361119362
7.34434600464
7.32525333394
7.30497753266
7.28411173206
7.26282667683
7.24108146275
7.21889504695
7.19639395314
7.17373086148
7.15102345504
7.12832325339
7.10566620732
7.08305166701
7.06051776179
7.03806830712
7.01574753183
6.9934455419
6.97104979209
6.94854702027
6.92590697182
6.90302634688
6.87987635071
6.85645723764
6.83285379504
6.80912973031
6.78526956051
6.76110118753
6.73641495559
6.7110748407
6.68511632031
6.65864588193
6.63184985902
6.60489257247
6.57799076529
6.55131860933
6.5250801763
6.49940392877
6.47444657272
6.4502439591
6.42682475684
6.40414093676
6.38213254663
6.36066966603
6.33959527011
6.31863853465
6.29755327945
6.2759948357
6.25362714966
6.22999159586
6.20457629785
6.17672858394
6.14588312958
6.11141555298
6.07296152682
6.03053942523
5.9848391156
5.93716603049
5.88921546148
5.84244821959
5.79737137655
5.75274843149
5.70469245306
5.64835396491
5.58095325051
5.50459498575
5.42284405302
7.27876442805
5.99558545198
6.81484207966
7.25085498508
7.25741807004
7.27238970133
7.28926144892
7.31799629922
7.34859996509
7.37850523394
7.40707522889
7.43402096249
7.45867683855
7.48130186104
7.50142608239
7.51931450026
7.53469213386
7.54779001292
7.558477786
7.56693251668
7.57319115008
7.5773519736
7.57954390991
7.57983250418
7.57836888606
7.57514767719
7.57037273734
7.56401294982
7.55627557494
7.54711187255
7.53673648373
7.52508484441
7.51233712886
7.49844074423
7.48358529549
7.46767071489
7.45091821193
7.43323443463
7.41483481016
7.39561164304
7.37579794167
7.35526786355
7.33426039566
7.31265032588
7.29068684312
7.26827949885
7.24568807725
7.22289331295
7.20021794609
7.17774430387
7.15580500841
7.13454254413
7.11434510342
7.09542500606
7.07782043076
7.06151379226
7.04644317657
7.03224047073
7.01957980995
7.00933801204
7.00085449166
6.99334913821
6.98625089803
6.97872169441
6.96999933309
6.95952963787
6.94725141756
6.93347519618
6.91886622667
6.90412039207
6.88991632589
6.87673411727
6.86489490196
6.85458548302
6.84577661798
6.83857892943
6.83297761949
6.82893134052
6.8261821436
6.8243070922
6.82250120281
6.81956655036
6.81355403245
6.80258506002
6.78446707938
6.75634771226
6.71743923029
6.66645784278
6.60477533362
6.53735781075
6.46981850723
6.41218710046
6.3683081924
6.34164972862
6.32533177058
6.30397205289
6.27170329633
6.23874239
6.22695104535
6.25980735043
6.34669260291
6.47716909113
6.62780239931
6.78039350287
6.92183417639
7.04390457292
7.14245197226
7.21725716218
7.27010551262
7.3041751096
7.32296564175
7.33009731293
7.32863677263
7.32112892131
7.30962774731