/*--------------------------------*- C++ -*----------------------------------*\
| =========                 |                                                 |
| \\      /  F ield         | OpenFOAM: The Open Source CFD Toolbox           |
|  \\    /   O peration     | Version:  v1806                                 |
|   \\  /    A nd           | Web:      www.OpenFOAM.com                      |
|    \\/     M anipulation  |                                                 |
\*---------------------------------------------------------------------------*/
FoamFile
{
    version     2.0;
    format      ascii;
    class       surfaceScalarField;
    location    "12";
    object      phi;
}
// * * * * * * * * * * * * * * * * * * * * * * * * * * * * * * * * * * * * * //

dimensions      [0 3 -1 0 0 0 0];
oriented        oriented;


internalField   nonuniform List<scalar> 
24170
(
3.07354800595e-06
1.1485872829e-07
2.98675016021e-06
8.67985752261e-08
2.90689940385e-06
7.98517704328e-08
2.83014874137e-06
7.67516845584e-08
2.75663350706e-06
7.35162400941e-08
2.68646789233e-06
7.01665376384e-08
2.61953628055e-06
6.69325769478e-08
2.5556413179e-06
6.3895831275e-08
2.49456510512e-06
6.10771162766e-08
2.43607979468e-06
5.84861198352e-08
2.3799451151e-06
5.61355203106e-08
2.32590109326e-06
5.40447754496e-08
2.27365743785e-06
5.22444137347e-08
2.22287210417e-06
5.0786024346e-08
2.17310464618e-06
4.9768104561e-08
2.12368470765e-06
4.94204392423e-08
2.07313959206e-06
5.0545467025e-08
5.52701394177e-08
2.01786987865e-06
3.43166695477e-06
1.00441355722e-07
3.42674671489e-06
9.17194811888e-08
3.4200202997e-06
8.65790909453e-08
3.41040865096e-06
8.63642454398e-08
3.3983392856e-06
8.5586495242e-08
3.3844525712e-06
8.40540668096e-08
3.36913728971e-06
8.2248688456e-08
3.35263301109e-06
8.04008587854e-08
3.335105922e-06
7.86049544346e-08
3.31666998866e-06
7.69227273363e-08
3.29738924102e-06
7.54169331475e-08
3.27727351495e-06
7.41610985968e-08
3.25626957532e-06
7.32489189948e-08
3.23424113291e-06
7.281497487e-08
3.21092497088e-06
7.30847078771e-08
3.18584952267e-06
7.4496215374e-08
3.15837081377e-06
7.80243573813e-08
8.4491487285e-08
3.1291498448e-06
3.6800953561e-06
8.2863421214e-08
3.68463907013e-06
8.71764631643e-08
3.68750934351e-06
8.37097115453e-08
3.68934472833e-06
8.45297479073e-08
3.68992628982e-06
8.500578625e-08
3.68945236505e-06
8.45287779468e-08
3.68806445533e-06
8.36373868468e-08
3.68581682579e-06
8.26492109855e-08
3.68272649668e-06
8.16960030397e-08
3.67879161284e-06
8.08582722317e-08
3.67399198708e-06
8.02172151519e-08
3.6682837118e-06
7.98699805461e-08
3.66159138751e-06
7.99418328521e-08
3.65379724421e-06
8.06096709283e-08
3.6447316425e-06
8.21508244705e-08
3.63420098086e-06
8.50273206679e-08
3.62220225473e-06
9.00234863248e-08
9.727404913e-08
3.60942029183e-06
3.93979099823e-06
6.84612627614e-08
3.94600654748e-06
8.09615684931e-08
3.94972313332e-06
7.99939552469e-08
3.95278827194e-06
8.14654480278e-08
3.95503478675e-06
8.27600835633e-08
3.9565448206e-06
8.30195044765e-08
3.95743818815e-06
8.27447700545e-08
3.95776177583e-06
8.23263218106e-08
3.95751707181e-06
8.19413841392e-08
3.95668366895e-06
8.16923053953e-08
3.95522601925e-06
8.16754686611e-08
3.95309306713e-06
8.20034918941e-08
3.9502165594e-06
8.28188675229e-08
3.94651163569e-06
8.43150855603e-08
3.94189032296e-06
8.67725860473e-08
3.93631715093e-06
9.06008905072e-08
3.92997349609e-06
9.63674906433e-08
1.04157071497e-07
3.92309092719e-06
4.2186193378e-06
5.69695467333e-08
4.22531137841e-06
7.42702280386e-08
4.2291619329e-06
7.61442408217e-08
4.23231677681e-06
7.83114342193e-08
4.23479487662e-06
8.02827814883e-08
4.23659825914e-06
8.12168682205e-08
4.23782199162e-06
8.15217725919e-08
4.2385200594e-06
8.16289427784e-08
4.23870209553e-06
8.1760022208e-08
4.23835422129e-06
8.20408158336e-08
4.23744906936e-06
8.25812405491e-08
4.23594877783e-06
8.35043725486e-08
4.23380758716e-06
8.49606277217e-08
4.23097947551e-06
8.71437450835e-08
4.22744077782e-06
9.0311807288e-08
4.22324295484e-06
9.47991936058e-08
4.21861339837e-06
1.0099753259e-07
1.0901198817e-07
4.21375909753e-06
4.51823068416e-06
4.78264729209e-08
4.52494010787e-06
6.75614660131e-08
4.52895410418e-06
7.21310210511e-08
4.53215393948e-06
7.51123862597e-08
4.53474272233e-06
7.76947540246e-08
4.53668074112e-06
7.92795730461e-08
4.53802713172e-06
8.01760785633e-08
4.53883529615e-06
8.08214450351e-08
4.53912259104e-06
8.14733622504e-08
4.53888316346e-06
8.22808518884e-08
4.53809930764e-06
8.33656717305e-08
4.53674735188e-06
8.48568765585e-08
4.53480363067e-06
8.69048714925e-08
4.53225623266e-06
8.96916484416e-08
4.52912975077e-06
9.34387727418e-08
4.52552889875e-06
9.84005192409e-08
4.52170080769e-06
1.048260746e-07
1.12765240348e-07
4.51794801891e-06
4.83999599336e-06
4.0550952464e-08
4.84643244497e-06
6.11257253015e-08
4.85058936721e-06
6.7974892e-08
4.85383758854e-06
7.18649535414e-08
4.85650438836e-06
7.5028704267e-08
4.85855105654e-06
7.72336222512e-08
4.86000464443e-06
7.87231795545e-08
4.86091220013e-06
7.99145526066e-08
4.86129653719e-06
8.1089661739e-08
4.86115933837e-06
8.24186669451e-08
4.86049238077e-06
8.40332195389e-08
4.8592859241e-06
8.60639059485e-08
4.85753732453e-06
8.86540251107e-08
4.85526466118e-06
9.19648555967e-08
4.85252969071e-06
9.61742735554e-08
4.84947032281e-06
1.01460385389e-07
4.84633458015e-06
1.07962301871e-07
1.15660922173e-07
4.84343961797e-06
5.1853911053e-06
3.47413057632e-08
5.19137930933e-06
5.51381933543e-08
5.1956180973e-06
6.37368470066e-08
5.1989266481e-06
6.85571434049e-08
5.20167044861e-06
7.22856199203e-08
5.20383364734e-06
7.50711057714e-08
5.20541853361e-06
7.713895443e-08
5.20646035414e-06
7.88733609144e-08
5.20698388768e-06
8.05667393465e-08
5.20699783573e-06
8.24052970237e-08
5.20650420607e-06
8.45274105577e-08
5.20550804316e-06
8.70606017771e-08
5.20402749297e-06
9.01351008717e-08
5.20210730663e-06
9.38855515555e-08
5.19983778934e-06
9.84442974981e-08
5.19737669793e-06
1.03921965537e-07
5.19496589027e-06
1.10373672517e-07
1.17718830389e-07
5.19290852478e-06
5.55600739117e-06
3.00718866864e-08
5.56146322674e-06
4.96830649821e-08
5.5657091996e-06
5.94916285122e-08
5.5690823763e-06
6.5184710088e-08
5.5719081256e-06
6.94605815965e-08
5.57419540183e-06
7.27845090999e-08
5.57593117402e-06
7.54038348156e-08
5.57713748444e-06
7.76676789911e-08
5.57783910121e-06
7.98657274762e-08
5.57805207279e-06
8.21929112834e-08
5.57778990056e-06
8.47901402304e-08
5.57707320236e-06
8.77778489924e-08
5.57593989254e-06
9.12689414511e-08
5.57445713859e-06
9.53688348607e-08
5.57273521451e-06
1.00166735733e-07
5.57093984059e-06
1.05717836559e-07
5.56929530884e-06
1.12018720302e-07
1.18955323948e-07
5.56805953538e-06
5.95356663741e-06
2.62818756925e-08
5.95847324555e-06
4.477712659e-08
5.96265714563e-06
5.53084273004e-08
5.96609062946e-06
6.17519217852e-08
5.9690079075e-06
6.65439686688e-08
5.97143226912e-06
7.0360791502e-08
5.9733437028e-06
7.34930134523e-08
5.9747525802e-06
7.62593980845e-08
5.97568229888e-06
7.89365764123e-08
5.97615567933e-06
8.17200679943e-08
5.97619760807e-06
8.47487420967e-08
5.97584336492e-06
8.81326105917e-08
5.97514785095e-06
9.19649605657e-08
5.97419507638e-06
9.63221121212e-08
5.97310697459e-06
1.01255319317e-07
5.97204843071e-06
1.06776855858e-07
5.97122350429e-06
1.12844217415e-07
1.1932548345e-07
5.97085390269e-06
6.37992838841e-06
2.3166235324e-08
6.38431460508e-06
4.03916516486e-08
6.38838573077e-06
5.12380695114e-08
6.39187194408e-06
5.82664554375e-08
6.39489497144e-06
6.3521662789e-08
6.39747659371e-06
6.77798530287e-08
6.39959434792e-06
7.13759222312e-08
6.40124956557e-06
7.4604809991e-08
6.40246335876e-06
7.77233860624e-08
6.40326403284e-06
8.09199757191e-08
6.40368669313e-06
8.43266481381e-08
6.40377938217e-06
8.80404661305e-08
6.4036104199e-06
9.21344698804e-08
6.40327499107e-06
9.66580640078e-08
6.40289947497e-06
1.01631351528e-07
6.40264105565e-06
1.07035770811e-07
6.40267932168e-06
1.12806462578e-07
1.18812328532e-07
6.40319316046e-06
5.74307288577e-06
2.09283321307e-08
5.74641942892e-06
3.70458318946e-08
5.74975048159e-06
4.79077511636e-08
5.75273271058e-06
5.52849442593e-08
5.75538324507e-06
6.0871821144e-08
5.75770773853e-06
6.54560216343e-08
5.75968589788e-06
6.93984002711e-08
5.76131382072e-06
7.29774958093e-08
5.76260714435e-06
7.6430649244e-08
5.76359269948e-06
7.993497797e-08
5.76430648917e-06
8.36133986314e-08
5.76479678885e-06
8.7550770875e-08
5.76512838745e-06
9.18033831669e-08
5.76538604595e-06
9.64009879087e-08
5.76567530513e-06
1.01342572945e-07
5.7661199646e-06
1.06591637064e-07
5.7668546382e-06
1.12072372174e-07
1.17655305856e-07
5.76801225996e-06
7.00036654221e-06
1.8717838595e-08
7.00383965471e-06
3.35733910911e-08
7.00752088614e-06
4.42271920064e-08
7.01097232272e-06
5.18341697928e-08
7.01412976524e-06
5.77150130897e-08
7.01697674151e-06
6.26096615533e-08
7.0194869067e-06
6.68888218621e-08
7.02165179378e-06
7.08131781607e-08
7.02348713694e-06
7.45958434948e-08
7.02502592138e-06
7.83967106752e-08
7.02631489976e-06
8.23250403441e-08
7.02741568862e-06
8.64504984716e-08
7.02840767409e-06
9.08120266389e-08
7.02938905964e-06
9.54200854927e-08
7.03047594703e-06
1.00256285362e-07
7.03179694187e-06
1.05271117614e-07
7.03348465894e-06
1.10385320284e-07
1.15480200652e-07
7.03566026449e-06
8.53302102046e-06
1.65444186898e-08
8.53659753338e-06
2.99975192652e-08
8.5406328195e-06
4.01925562549e-08
8.5446176395e-06
4.78499681022e-08
8.54839852342e-06
5.39347517651e-08
8.55192272114e-06
5.90860445674e-08
8.55515293639e-06
6.36591923085e-08
8.55807485691e-06
6.78917980566e-08
8.56070306594e-06
7.19681748525e-08
8.56307560473e-06
7.60247624043e-08
8.56524895547e-06
8.01522706425e-08
8.56729696018e-06
8.44031231449e-08
8.56931077816e-06
8.87987636816e-08
8.57139808795e-06
9.33333771306e-08
8.57367921046e-06
9.7975655541e-08
8.57628096261e-06
1.02669987995e-07
8.57932689546e-06
1.07339855209e-07
1.11882500662e-07
8.58292532935e-06
1.04013784449e-05
1.43855433656e-08
1.04050808213e-05
2.62957935664e-08
1.04095103477e-05
3.57636503073e-08
1.04141276471e-05
4.32333095016e-08
1.04186973015e-05
4.93656837555e-08
1.04231192166e-05
5.46647493166e-08
1.04273378636e-05
5.94410964205e-08
1.04313305392e-05
6.38997193729e-08
1.04351083597e-05
6.81909016644e-08
1.04387114439e-05
7.24223353095e-08
1.0442202418e-05
7.66618815166e-08
1.04456627535e-05
8.09434759395e-08
1.04491895108e-05
8.52725171753e-08
1.04528923254e-05
8.96311890939e-08
1.04568874192e-05
9.39810216817e-08
1.04612910407e-05
9.82669482279e-08
1.04662104857e-05
1.02420900894e-07
1.06359153711e-07
1.0471734244e-05
1.26790061879e-05
1.21698965673e-08
1.26829380047e-05
2.23646223816e-08
1.26878896705e-05
3.08126445229e-08
1.26933242753e-05
3.77993205668e-08
1.26989422587e-05
4.37483410234e-08
1.27045911983e-05
4.90163905824e-08
1.27101892765e-05
5.38436512032e-08
1.27157000946e-05
5.83894490708e-08
1.27211269801e-05
6.2764688256e-08
1.272650602e-05
6.70438521391e-08
1.27318990301e-05
7.12696218054e-08
1.27373860397e-05
7.54569342037e-08
1.27430608732e-05
7.95984018149e-08
1.27490240009e-05
8.3668428557e-08
1.27553779015e-05
8.76278157712e-08
1.27622181126e-05
9.14269958116e-08
1.27696286968e-05
9.50110283049e-08
9.83163396956e-08
1.27776716181e-05
1.54555964968e-05
9.75403024766e-09
1.54599916809e-05
1.79701212015e-08
1.54657519412e-05
2.50530471353e-08
1.5472350496e-05
3.12014157672e-08
1.54794393151e-05
3.66601546756e-08
1.54868142922e-05
4.16420429754e-08
1.54943595764e-05
4.62989747114e-08
1.55020174389e-05
5.07322097918e-08
1.55097751258e-05
5.50076035535e-08
1.5517655627e-05
5.91640141527e-08
1.55257080539e-05
6.32177727951e-08
1.5533999311e-05
6.71663219288e-08
1.55426059756e-05
7.09922474974e-08
1.55516079854e-05
7.46670370078e-08
1.55610814431e-05
7.81547890189e-08
1.55710935351e-05
8.14154909122e-08
1.55816963727e-05
8.44085098677e-08
8.70903233878e-08
1.55929229589e-05
1.88405074944e-05
6.88461771427e-09
1.88458066993e-05
1.26716128954e-08
1.88529234197e-05
1.79370051506e-08
1.88613059673e-05
2.28195455083e-08
1.88705539157e-05
2.74128521892e-08
1.88804098174e-05
3.17868050521e-08
1.88907163875e-05
3.59930206481e-08
1.8901384384e-05
4.00648738563e-08
1.89123740447e-05
4.40185350257e-08
1.89236830665e-05
4.78556693096e-08
1.89353348615e-05
5.15665440854e-08
1.89473692095e-05
5.51326548447e-08
1.89598327828e-05
5.85291986063e-08
1.89727731661e-05
6.17273353964e-08
1.89862319043e-05
6.4696526753e-08
1.90002414559e-05
6.74066315964e-08
1.90148203246e-05
6.98300316673e-08
7.19395083456e-08
1.90299718608e-05
2.29671537308e-05
3.06883649178e-09
2.29741892231e-05
5.63688793978e-09
2.29836766106e-05
8.45040115025e-09
2.29949331206e-05
1.1563789012e-08
2.30074670846e-05
1.48796377795e-08
2.30209574812e-05
1.82971497976e-08
2.30351968607e-05
2.17543594596e-08
2.30500526893e-05
2.52097860471e-08
2.30654461569e-05
2.86257512768e-08
2.30813376438e-05
3.19649244972e-08
2.30977130862e-05
3.51917503284e-08
2.31145732808e-05
3.82732040067e-08
2.31319244024e-05
4.11786874198e-08
2.3149772356e-05
4.3880120155e-08
2.31681171176e-05
4.63523193947e-08
2.31869506473e-05
4.85738434742e-08
2.32062534886e-05
5.05276575003e-08
5.2199617472e-08
2.32259940929e-05
1.68140684349e-05
-2.94048811307e-10
1.68201396235e-05
-4.33594767132e-10
1.68281502272e-05
4.40388507977e-10
1.68374853261e-05
2.22940059291e-09
1.68477675637e-05
4.59797499648e-09
1.68587719546e-05
7.29347539937e-09
1.68703477466e-05
1.01791197905e-08
1.68823912525e-05
1.31669671073e-08
1.68948346658e-05
1.61828659619e-08
1.69076364408e-05
1.91638030794e-08
1.69207701747e-05
2.20585426923e-08
1.69342176544e-05
2.48263570048e-08
1.69479630585e-05
2.74338132018e-08
1.69619903691e-05
2.98534379789e-08
1.69762806069e-05
3.20626307162e-08
1.6990811067e-05
3.40440416645e-08
1.70055538146e-05
3.57854551586e-08
3.72781982266e-08
1.70204759586e-05
1.46381629659e-05
-3.88772866538e-09
1.46444992532e-05
-6.76929556996e-09
1.46525565225e-05
-7.61620235237e-09
1.46616639354e-05
-6.87742531658e-09
1.46715111688e-05
-5.24860359237e-09
1.46819345014e-05
-3.12932502939e-09
1.46928150899e-05
-7.00842662453e-10
1.4704067103e-05
1.91546794382e-09
1.47156355813e-05
4.61495249609e-09
1.47274856985e-05
7.31419812426e-09
1.47395923454e-05
9.9524374687e-09
1.47519339381e-05
1.24852790223e-08
1.47644898767e-05
1.48784128073e-08
1.47772389128e-05
1.71049328934e-08
1.47901586154e-05
1.91434920342e-08
1.4803225409e-05
2.09777906631e-08
1.48164150127e-05
2.2596471003e-08
2.39919009039e-08
1.48297018362e-05
1.27441590256e-05
-7.91420517801e-09
1.27509520996e-05
-1.35617425401e-08
1.27590966343e-05
-1.57601823688e-08
1.27679246057e-05
-1.57047767004e-08
1.27772606213e-05
-1.45840663668e-08
1.27870142788e-05
-1.28823569262e-08
1.2797094645e-05
-1.07806868178e-08
1.28074363329e-05
-8.42571123192e-09
1.28180019911e-05
-5.95020596209e-09
1.28287683965e-05
-3.45175802979e-09
1.28397164124e-05
-9.95086206098e-10
1.285082686e-05
1.37529577225e-09
1.28620790502e-05
3.62673044524e-09
1.28734507563e-05
5.73371884191e-09
1.28849182613e-05
7.6765035752e-09
1.28964560292e-05
9.44053921441e-09
1.29080362289e-05
1.1016784462e-08
1.24001107886e-08
1.29196285554e-05
1.10956574468e-05
-1.26419718401e-08
1.11030725441e-05
-2.09762622835e-08
1.11112534532e-05
-2.39404586288e-08
1.11197059141e-05
-2.41566467781e-08
1.11284605892e-05
-2.33381322842e-08
1.1137487912e-05
-2.19091724087e-08
1.11467211606e-05
-2.00133835377e-08
1.11561237124e-05
-1.78277447266e-08
1.11656822074e-05
-1.55082555136e-08
1.11753868572e-05
-1.31559079119e-08
1.11852237621e-05
-1.08315494578e-08
1.11951748235e-05
-8.57528706151e-09
1.12052192572e-05
-6.41726898685e-09
1.1215335327e-05
-4.3818697386e-09
1.12255012476e-05
-2.48895503684e-09
1.12356972564e-05
-7.54982234646e-10
1.124590874e-05
8.05761189732e-10
2.1812290358e-09
1.12561281265e-05
9.66102175726e-06
-1.84486196266e-08
9.66916150891e-06
-2.91154258515e-08
9.67723407162e-06
-3.20124720229e-08
9.68520659808e-06
-3.21285609645e-08
9.69332735986e-06
-3.14583331084e-08
9.70158308513e-06
-3.01642777806e-08
9.709926309e-06
-2.83560598014e-08
9.71835334876e-06
-2.62542816461e-08
9.72687490492e-06
-2.40293134606e-08
9.73549477661e-06
-2.17753500234e-08
9.74420742179e-06
-1.95437212906e-08
9.7530005266e-06
-1.73679592377e-08
9.76185723295e-06
-1.52734870327e-08
9.77075663342e-06
-1.32808261613e-08
9.77967489265e-06
-1.1406768193e-08
9.78858637634e-06
-9.66601881294e-09
9.79746513717e-06
-8.07255943715e-09
-6.640373938e-09
9.80628718692e-06
8.41276165596e-06
-2.58571974828e-08
8.42158217915e-06
-3.79353351258e-08
8.42932738994e-06
-3.97570479844e-08
8.43675802114e-06
-3.95585847332e-08
8.44425197873e-06
-3.89516884502e-08
8.45177196622e-06
-3.76837643519e-08
8.45929719408e-06
-3.58806997361e-08
8.46685233669e-06
-3.38088819473e-08
8.47445981069e-06
-3.16363072452e-08
8.48212770634e-06
-2.94427440151e-08
8.48985392138e-06
-2.72694678942e-08
8.49763018559e-06
-2.51437369265e-08
8.50544336186e-06
-2.30862507268e-08
8.51327566858e-06
-2.11126712683e-08
8.52110493983e-06
-1.92355931405e-08
8.5289071445e-06
-1.746780302e-08
8.53666430913e-06
-1.58292724013e-08
-1.4356285874e-08
8.54438062268e-06
7.32695253673e-06
-3.55248334463e-08
7.33616194792e-06
-4.71441480104e-08
7.34333654879e-06
-4.69310917296e-08
7.35015462549e-06
-4.63760106553e-08
7.35693910338e-06
-4.57355784834e-08
7.36364516831e-06
-4.43892364728e-08
7.37030957771e-06
-4.25445465048e-08
7.37698590714e-06
-4.04846829848e-08
7.38370195453e-06
-3.83518612239e-08
7.39046537395e-06
-3.62057214529e-08
7.39727404689e-06
-3.40776440192e-08
7.40412048436e-06
-3.19897275384e-08
7.41099286719e-06
-2.99581507802e-08
7.41787405925e-06
-2.79934113002e-08
7.4247396256e-06
-2.610072331e-08
7.43155523953e-06
-2.42829935004e-08
7.43827672056e-06
-2.25503649481e-08
-2.0941123806e-08
7.44486197738e-06
6.38285119885e-06
-4.83094861498e-08
6.3918703274e-06
-5.61627077283e-08
6.39846873454e-06
-5.35289309664e-08
6.40481679454e-06
-5.27234817545e-08
6.410972973e-06
-5.18911926509e-08
6.41693533632e-06
-5.03511378752e-08
6.42280604003e-06
-4.84147093011e-08
6.42865834658e-06
-4.63364871382e-08
6.43452474275e-06
-4.42178086184e-08
6.44041669114e-06
-4.20972163852e-08
6.44633624733e-06
-3.99967494442e-08
6.45228000864e-06
-3.79330463743e-08
6.4582401262e-06
-3.59178731501e-08
6.4642036586e-06
-3.39565110908e-08
6.47014917406e-06
-3.2045830629e-08
6.47603949617e-06
-3.01729444573e-08
6.48181367385e-06
-2.83241594899e-08
-2.65169402181e-08
6.48738985162e-06
5.56199335265e-06
-6.48377125024e-08
5.5695070511e-06
-6.36758045393e-08
5.57527838203e-06
-5.92997123149e-08
5.58083807437e-06
-5.82824447981e-08
5.58598714087e-06
-5.7039580107e-08
5.59082715484e-06
-5.51906191518e-08
5.59549284153e-06
-5.30798370836e-08
5.60005376304e-06
-5.08968884508e-08
5.60454266415e-06
-4.87062386509e-08
5.60897826986e-06
-4.65324012562e-08
5.61337289063e-06
-4.43908526387e-08
5.61773408835e-06
-4.22937555959e-08
5.6220657201e-06
-4.02490635774e-08
5.62636792435e-06
-3.82582803962e-08
5.63063399802e-06
-3.63114952606e-08
5.63483645151e-06
-3.43750229566e-08
5.63888336055e-06
-3.23707300163e-08
-3.00823868299e-08
5.64244921306e-06
4.84603446122e-06
-8.32642381629e-08
4.84764419291e-06
-6.52848735115e-08
4.84832791525e-06
-5.99827667651e-08
4.84771802381e-06
-5.76717077696e-08
4.84590100271e-06
-5.52217793878e-08
4.8432894846e-06
-5.25784741484e-08
4.84015169144e-06
-4.99414063041e-08
4.83664711447e-06
-4.73917128569e-08
4.83288971762e-06
-4.49483103508e-08
4.82897114835e-06
-4.26132949172e-08
4.82496666612e-06
-4.03857471683e-08
4.82093734764e-06
-3.82638547039e-08
4.81693294294e-06
-3.62441360727e-08
4.81299557211e-06
-3.43204026382e-08
4.809164864e-06
-3.24803138692e-08
4.80548059436e-06
-3.06903332547e-08
4.80197338202e-06
-2.88630716684e-08
-2.61968820187e-08
4.79808831997e-06
4.11941204479e-06
4.05412722399e-06
3.99414453211e-06
3.93647290097e-06
3.88125118616e-06
3.82867278381e-06
3.77873145082e-06
3.73133980857e-06
3.68639157161e-06
3.64377837182e-06
3.60339272214e-06
3.56512895963e-06
3.52888492001e-06
3.494564615e-06
3.46208439422e-06
3.43139416158e-06
3.40253120342e-06
3.37633443217e-06
5.67074908275e-08
-5.67030804958e-08
8.97163636836e-08
-3.30054108322e-08
8.58181232421e-08
3.90240307767e-09
4.6185093263e-08
3.96360932215e-08
-3.73347182294e-08
8.352359006e-08
-1.52303002632e-07
1.14970189022e-07
-2.79305335442e-07
1.27004782301e-07
-4.15332020234e-07
1.36028163295e-07
-5.58955950123e-07
1.43625911402e-07
-7.08947961866e-07
1.49993559669e-07
-8.64216674506e-07
1.55270546854e-07
-1.02380547337e-06
1.59590441971e-07
-1.18687910075e-06
1.63075330445e-07
-1.35271244603e-06
1.65835054675e-07
-1.52067970733e-06
1.67968821671e-07
-1.69024482365e-06
1.69566847844e-07
-1.86095531303e-06
1.70711857222e-07
-2.03243371029e-06
1.714801133e-07
-2.20437450983e-06
1.71942057207e-07
-2.37653557679e-06
1.72162712467e-07
-2.54873612602e-06
1.72201665268e-07
-2.72084748461e-06
1.72112961715e-07
-2.89279109408e-06
1.71944663542e-07
-3.06452805575e-06
1.71738539575e-07
-3.23605633226e-06
1.71529368201e-07
-3.40739939909e-06
1.71344620079e-07
-3.57860216358e-06
1.71203853177e-07
-3.74971917485e-06
1.71118568521e-07
-3.92080987359e-06
1.71091860387e-07
-4.09192690816e-06
1.71118612245e-07
-4.26311126061e-06
1.71185531501e-07
-4.43438139949e-06
1.71271741545e-07
-4.60572930698e-06
1.71349156522e-07
-4.77711109889e-06
1.7138342215e-07
-4.94844442463e-06
1.71334593718e-07
-5.11960106568e-06
1.71158324734e-07
-5.29040643354e-06
1.70806711441e-07
-5.46063431985e-06
1.70229661721e-07
-5.63000870251e-06
1.69375814619e-07
-5.79820087144e-06
1.68194023622e-07
-5.96483374955e-06
1.66634360832e-07
-6.12948158437e-06
1.64649727133e-07
-6.29167701876e-06
1.62196920472e-07
-6.45091331233e-06
1.59238190574e-07
-6.60665399308e-06
1.55742127954e-07
-6.75833725173e-06
1.51685162674e-07
-6.90538814357e-06
1.47052367236e-07
-7.04722486154e-06
1.41838704943e-07
-7.18327233255e-06
1.36049037117e-07
-7.31296892894e-06
1.29698800842e-07
-7.4357804823e-06
1.22813403881e-07
-7.55120588302e-06
1.154279816e-07
-7.65878994669e-06
1.07586314861e-07
-7.75812708869e-06
9.93401079035e-08
-7.84887162533e-06
9.07470847389e-08
-7.93073730265e-06
8.18690130356e-08
-8.00350367867e-06
7.27692935979e-08
-8.06701206638e-06
6.35120509707e-08
-8.12116930625e-06
5.41603277279e-08
-8.16594099158e-06
4.47756235405e-08
-8.20135372297e-06
3.54160699111e-08
-8.22748266441e-06
2.61330594042e-08
-8.24444641138e-06
1.69670610722e-08
-8.25238973184e-06
7.94757138884e-09
-8.25144795797e-06
-9.38373011177e-10
-8.24182588636e-06
-9.61764307685e-09
-8.22385130311e-06
-1.79711324019e-08
-8.19785328073e-06
-2.59935389247e-08
-8.16411665488e-06
-3.3733349793e-08
-8.12283108037e-06
-4.12812428217e-08
-8.07406366117e-06
-4.87643832286e-08
-8.01771928983e-06
-5.63400713396e-08
-7.95352521041e-06
-6.41911356349e-08
-7.8810030076e-06
-7.25174849277e-08
-7.79947073512e-06
-8.15287800395e-08
-7.7080317873e-06
-9.14331726153e-08
-7.60559961202e-06
-1.02427649383e-07
-7.49091160752e-06
-1.14681421485e-07
-7.36258673821e-06
-1.28320273067e-07
-7.21917450319e-06
-1.43405035035e-07
-7.05925799462e-06
-1.5991133445e-07
-6.88154734315e-06
-1.77702894747e-07
-6.68502309452e-06
-1.96519214559e-07
-6.46904192425e-06
-2.15972343017e-07
-6.23347172359e-06
-2.35563921081e-07
-5.9787565236e-06
-2.54705784646e-07
-5.70598247613e-06
-2.72769038534e-07
-5.4168402863e-06
-2.89138035382e-07
-5.1135713631e-06
-3.03270608058e-07
-4.7988513259e-06
-3.14727845415e-07
-4.47566663946e-06
-3.23190580412e-07
-4.14719649119e-06
-3.28473586039e-07
-3.8166656369e-06
-3.30531874587e-07
-3.48722406333e-06
-3.29442137941e-07
-3.16185362866e-06
-3.25369519569e-07
-2.84328505103e-06
-3.185671051e-07
-2.53397459361e-06
-3.09306559353e-07
-2.23599427628e-06
-2.97974048321e-07
-1.9509227621e-06
-2.85060072772e-07
-1.67969627348e-06
-2.71208246471e-07
-1.42257357071e-06
-2.57095211555e-07
-1.17909958226e-06
-2.43430421559e-07
-9.49766662901e-07
-2.29275208849e-07
-7.32921709355e-07
-2.16756063216e-07
-5.29007114917e-07
-2.03801543162e-07
-3.35536839631e-07
-1.93320079564e-07
-1.30036166166e-07
-2.05329426541e-07
8.49254879126e-08
-2.14783696537e-07
2.88557136749e-07
-2.03512339379e-07
4.66624869703e-07
-1.77979583135e-07
6.21110453157e-07
-1.54429266851e-07
7.56968870708e-07
-1.3580667652e-07
8.77371353107e-07
-1.2037320222e-07
9.84380115804e-07
-1.06979176775e-07
1.07943511517e-06
-9.50433899371e-08
1.16368227181e-06
-8.42320192284e-08
1.23804261465e-06
-7.43595192555e-08
1.30333360836e-06
-6.52878567104e-08
1.36025653472e-06
-5.69305597892e-08
1.40946648563e-06
-4.92068789893e-08
1.4515367798e-06
-4.20613927313e-08
1.48700387595e-06
-3.54374532666e-08
1.51633293563e-06
-2.92985439333e-08
1.5399737042e-06
-2.36026276901e-08
1.55832597052e-06
-1.83281939775e-08
1.57179874627e-06
-1.34480088569e-08
1.58077751342e-06
-8.96909386127e-09
1.58572497944e-06
-4.93563421968e-09
1.58725167981e-06
-1.52757247815e-09
1.58592994746e-06
1.32449683577e-09
1.58198310979e-06
3.93852420734e-09
1.57556745828e-06
6.4114283007e-09
1.56686372168e-06
8.689317951e-09
1.55607466275e-06
1.07781438051e-08
1.54336399139e-06
1.26896903153e-08
1.52889708468e-06
1.44478556149e-08
1.51280340193e-06
1.60640886277e-08
1.49521458208e-06
1.75568680944e-08
1.47623651858e-06
1.89342138503e-08
1.4559800426e-06
2.02103713657e-08
1.43453885623e-06
2.13940763459e-08
1.41200244127e-06
2.24961766136e-08
1.38844435522e-06
2.35244861662e-08
1.36393047188e-06
2.44873393774e-08
1.33851707352e-06
2.53907381541e-08
1.31225711235e-06
2.62415513877e-08
1.28519623138e-06
2.70442573688e-08
1.2573794322e-06
2.78028150524e-08
1.22884573511e-06
2.85200516681e-08
1.19963451432e-06
2.91990270411e-08
1.16978170073e-06
2.98398540949e-08
1.13932548417e-06
3.04439835537e-08
1.10830272359e-06
3.10091724225e-08
1.07675504309e-06
3.15346369626e-08
1.04472159027e-06
3.20189547275e-08
1.01224641652e-06
3.24614362293e-08
9.79377204609e-07
3.28541932012e-08
9.4617297565e-07
3.31903404734e-08
9.12692020828e-07
3.34659940165e-08
8.79000775998e-07
3.36777585205e-08
8.45172335292e-07
3.38140101269e-08
8.11298960109e-07
3.38607161937e-08
7.77493133803e-07
3.37923135308e-08
7.43931673022e-07
3.3550070114e-08
7.10874270488e-07
3.3045293291e-08
6.78726926973e-07
3.21378169908e-08
6.48026760857e-07
3.0690052327e-08
6.19530044875e-07
2.84896476934e-08
5.94101684171e-07
2.5420715324e-08
5.72809100727e-07
2.12882620261e-08
5.56558285595e-07
1.62456589956e-08
5.45684062025e-07
1.08722464993e-08
5.39574062585e-07
6.10668176175e-09
5.36655767513e-07
2.91779466838e-09
5.35347770788e-07
1.30570943734e-09
5.34572438956e-07
7.75535615853e-10
5.33869576589e-07
7.01141406032e-10
5.32974270317e-07
8.97264647615e-10
5.32541577232e-07
4.35495512002e-10
-7.47083984697e-09
5.40020418775e-07
-2.44904803e-08
-3.22072227331e-08
-9.63206196472e-08
3.88285435997e-08
-1.98241459214e-07
1.05825502867e-07
-3.08699293607e-07
1.50095195986e-07
-4.15035197154e-07
1.89860822365e-07
-5.24056924808e-07
2.23992872894e-07
-6.46306413796e-07
2.49255473174e-07
-7.79173294006e-07
2.68896058843e-07
-9.20208379953e-07
2.84662268037e-07
-1.06766704419e-06
2.97453353586e-07
-1.2202250605e-06
3.07829861634e-07
-1.37682110291e-06
3.16187755499e-07
-1.53657584338e-06
3.22831391107e-07
-1.6987487659e-06
3.28009347765e-07
-1.86271243663e-06
3.31933791096e-07
-2.02793571041e-06
3.34791534681e-07
-2.19397333342e-06
3.36750713978e-07
-2.36045665663e-06
3.37964822708e-07
-2.52708858277e-06
3.38575133683e-07
-2.69363640216e-06
3.38711911843e-07
-2.85992849377e-06
3.38494825905e-07
-3.02584698379e-06
3.38032751673e-07
-3.19132431401e-06
3.37423054301e-07
-3.35633506823e-06
3.36750604404e-07
-3.52089129211e-06
3.36086655655e-07
-3.68503305918e-06
3.35487697792e-07
-3.84882250503e-06
3.34994420356e-07
-4.01233352437e-06
3.34630959706e-07
-4.17564490562e-06
3.34404441483e-07
-4.33882983294e-06
3.34304950983e-07
-4.50194891706e-06
3.3430588363e-07
-4.66504044521e-06
3.34364741843e-07
-4.82811425569e-06
3.34424298248e-07
-4.99114342477e-06
3.34414111468e-07
-5.15405975189e-06
3.34252305347e-07
-5.3167474597e-06
3.33847619595e-07
-5.47904086452e-06
3.33101588817e-07
-5.64072042986e-06
3.3191089994e-07
-5.80151284208e-06
3.30169783245e-07
-5.96108963198e-06
3.27772557009e-07
-6.11906988722e-06
3.24616222029e-07
-6.27502161234e-06
3.20603222977e-07
-6.42846724689e-06
3.1564416767e-07
-6.57888771838e-06
3.09660426941e-07
-6.72573049695e-06
3.02586496913e-07
-6.86841604369e-06
2.94372458935e-07
-7.00634834022e-06
2.84986268765e-07
-7.13892341417e-06
2.74415598348e-07
-7.26554120849e-06
2.62668537742e-07
-7.38561447907e-06
2.49774045493e-07
-7.49858083522e-06
2.35781728688e-07
-7.60391134797e-06
2.20760834522e-07
-7.70112176725e-06
2.04799065112e-07
-7.78977987337e-06
1.88000873184e-07
-7.86951461583e-06
1.70484525914e-07
-7.94002060196e-06
1.5237808489e-07
-8.00106404576e-06
1.33815803808e-07
-8.05248324318e-06
1.14934639572e-07
-8.09418887532e-06
9.58693423832e-08
-8.12616192093e-06
7.67524026203e-08
-8.1484469551e-06
5.77047534167e-08
-8.16113912716e-06
3.88291609612e-08
-8.16438044204e-06
2.02121791956e-08
-8.1583640576e-06
1.93529415444e-09
-8.1435253073e-06
-1.5773155727e-08
-8.12041584168e-06
-3.27228470075e-08
-8.08946149805e-06
-4.89214276962e-08
-8.05101524512e-06
-6.44355472687e-08
-8.00535319128e-06
-7.93915173363e-08
-7.95265081029e-06
-9.39796140521e-08
-7.89295847542e-06
-1.08453093317e-07
-7.82617129974e-06
-1.23123350948e-07
-7.75200712149e-06
-1.38351690212e-07
-7.66998326161e-06
-1.54537248963e-07
-7.5794068548e-06
-1.72100989981e-07
-7.47936732239e-06
-1.91467618967e-07
-7.36874568359e-06
-2.13044293409e-07
-7.24623025523e-06
-2.37191293998e-07
-7.11036033711e-06
-2.64184775129e-07
-6.95958518346e-06
-2.94173976852e-07
-6.79236109799e-06
-3.27129573934e-07
-6.60726973744e-06
-3.62787732668e-07
-6.40316895914e-06
-4.00613624149e-07
-6.17933679848e-06
-4.39796837733e-07
-5.93561447308e-06
-4.79278599751e-07
-5.6724988908e-06
-5.17813171768e-07
-5.39119335023e-06
-5.54067817052e-07
-5.09357398042e-06
-5.86752909201e-07
-4.78210448177e-06
-6.14742656717e-07
-4.45969085836e-06
-6.37146919881e-07
-4.12953750518e-06