/*--------------------------------*- C++ -*----------------------------------*\
| =========                 |                                                 |
| \\      /  F ield         | OpenFOAM: The Open Source CFD Toolbox           |
|  \\    /   O peration     | Version:  v1806                                 |
|   \\  /    A nd           | Web:      www.OpenFOAM.com                      |
|    \\/     M anipulation  |                                                 |
\*---------------------------------------------------------------------------*/
FoamFile
{
    version     2.0;
    format      ascii;
    class       surfaceScalarField;
    location    "12";
    object      phia;
}
// * * * * * * * * * * * * * * * * * * * * * * * * * * * * * * * * * * * * * //

dimensions      [0 3 -1 0 0 0 0];
oriented        oriented;


internalField   nonuniform List<scalar> 
24170
(
1.58165820469e-07
1.67256765477e-07
2.07334716178e-07
-4.23733210635e-08
2.18146217061e-07
-5.42211890557e-09
2.31950011956e-07
-1.34984481139e-08
2.39085377266e-07
-5.84204600674e-09
2.49022289644e-07
-1.13913874727e-08
2.58054348308e-07
-9.64574372746e-09
2.6691214146e-07
-1.18745306924e-08
2.77527228954e-07
-1.34990404189e-08
2.90012750819e-07
-1.67443456835e-08
3.06250764198e-07
-2.02701675679e-08
3.28244345746e-07
-2.55821803681e-08
3.6098553939e-07
-3.55890046181e-08
4.05480164946e-07
-4.61376313742e-08
4.57384121041e-07
-5.2854622093e-08
5.02673467567e-07
-4.54686342424e-08
5.72294497599e-07
-6.93948522401e-08
-5.30978764364e-07
1.10371097058e-06
5.4455827811e-07
-1.8866315152e-08
2.45240005031e-07
2.66851243044e-07
3.23766672874e-07
-7.89526996537e-08
3.20249604781e-07
-9.88853116804e-09
3.42315086595e-07
-2.78302889294e-08
3.59718500239e-07
-3.09042149451e-08
3.8212791846e-07
-3.41887250239e-08
4.05085248817e-07
-3.90461298425e-08
4.30804362582e-07
-4.4011298172e-08
4.58956950558e-07
-5.09521572013e-08
4.91030495815e-07
-5.83044146761e-08
5.28477110013e-07
-6.83900417267e-08
5.70606536609e-07
-8.18510162141e-08
6.16379948237e-07
-9.45312806162e-08
6.60224237417e-07
-9.81440773177e-08
7.03189757081e-07
-8.89821638073e-08
8.00305863271e-07
-1.66499671337e-07
-6.55498863343e-07
9.25003274179e-07
-1.04878538367e-07
4.53823257506e-07
4.04811547517e-07
-2.3983127053e-07
2.88739221463e-07
4.05544866571e-08
3.01261014911e-07
-2.20255874617e-08
3.03641185656e-07
-2.94334604295e-08
3.0896278848e-07
-3.7270836462e-08
3.15134701409e-07
-4.10743265084e-08
3.21258039083e-07
-4.71843085712e-08
3.29409017004e-07
-5.40764193862e-08
3.39622098741e-07
-6.35894656948e-08
3.54001936897e-07
-7.48212754993e-08
3.74233179796e-07
-9.04356846679e-08
4.00581588187e-07
-1.09612732727e-07
4.3248882856e-07
-1.27378179563e-07
4.69560567324e-07
-1.35823912951e-07
5.28490859378e-07
-1.48146867102e-07
6.41961533726e-07
-2.79945117643e-07
-6.79255208029e-07
6.65815679156e-07
7.62909410721e-07
9.26309579171e-08
3.33263111091e-07
1.95750978813e-07
3.48866674896e-07
2.83053334431e-08
3.65747453727e-07
-3.88895509736e-08
3.70988526334e-07
-3.53708514273e-08
3.80512829376e-07
-4.91355944847e-08
3.90942300351e-07
-5.42923560258e-08
4.02115412787e-07
-6.23843285773e-08
4.14529186379e-07
-7.09177611047e-08
4.27750514534e-07
-8.16862524686e-08
4.42803969907e-07
-9.44303044143e-08
4.59606386333e-07
-1.11189470353e-07
4.77257109274e-07
-1.30341059213e-07
4.94758969428e-07
-1.47057027097e-07
5.16081544835e-07
-1.58547531709e-07
5.60203631906e-07
-1.93025820692e-07
6.23920616721e-07
-3.43933196462e-07
-6.32987529736e-07
5.77615602315e-07
1.01709571116e-07
4.10210553377e-07
3.82127834557e-07
-8.38437569003e-08
3.65821603622e-07
4.66328674591e-08
3.65293829346e-07
-3.78184867251e-08
3.72351419946e-07
-4.1877925954e-08
3.79949649849e-07
-5.73507007757e-08
3.90230639132e-07
-6.52117315219e-08
4.01928869213e-07
-7.54001768269e-08
4.15823259802e-07
-8.60954815114e-08
4.31687522757e-07
-9.89561889412e-08
4.50143451018e-07
-1.1405745175e-07
4.7038194129e-07
-1.32407261821e-07
4.91121194395e-07
-1.51869173366e-07
5.12088642856e-07
-1.68647907499e-07
5.3897311537e-07
-1.85877424643e-07
5.81871636897e-07
-2.36152742451e-07
6.13858879068e-07
-3.75965351041e-07
-5.71172594445e-07
5.52074508308e-07
4.86421691129e-07
3.76370367624e-07
4.01536074381e-07
3.45294524811e-09
4.15595810103e-07
3.46280229593e-08
4.17452954934e-07
-3.92393676173e-08
4.22328291222e-07
-4.72059722561e-08
4.27792439545e-07
-6.43501244498e-08
4.35310220642e-07
-7.48073006605e-08
4.44181908872e-07
-8.69381410737e-08
4.55023338001e-07
-9.97699569125e-08
4.67836837305e-07
-1.1459634674e-07
4.82921400251e-07
-1.31642235166e-07
4.99394044921e-07
-1.50973509795e-07
5.16367748531e-07
-1.70489901209e-07
5.34995134539e-07
-1.88507706856e-07
5.60806855914e-07
-2.12535991562e-07
5.94420330564e-07
-2.70261450287e-07
6.04256872254e-07
-3.86006993986e-07
-5.14681764111e-07
5.47725274413e-07
4.09926985713e-07
4.47518881213e-07
4.40933557539e-07
-2.77087711322e-08
4.51766880789e-07
2.48635722214e-08
4.53963217319e-07
-4.07057234629e-08
4.59215506985e-07
-5.18943225755e-08
4.64888569644e-07
-7.00439842176e-08
4.72444384513e-07
-8.25581811761e-08
4.8133181719e-07
-9.62778115152e-08
4.91892127743e-07
-1.10756642524e-07
5.04001087817e-07
-1.27086323741e-07
5.17520816893e-07
-1.45407960844e-07
5.31586122285e-07
-1.65228491779e-07
5.45855438657e-07
-1.84926363923e-07
5.62190156342e-07
-2.0500716945e-07
5.83972894781e-07
-2.34438313081e-07
6.05541022221e-07
-2.91868177184e-07
6.01271976437e-07
-3.81691493383e-07
-4.66779112561e-07
5.5337037422e-07
4.78858489523e-07
4.85862338495e-07
4.80565039161e-07
-2.86051883876e-08
4.95375336589e-07
1.15554896225e-08
4.97479116743e-07
-4.18461770214e-08
5.02332235018e-07
-5.63889149715e-08
5.0728648121e-07
-7.53291555936e-08
5.13971576425e-07
-8.99544100955e-08
5.21965151408e-07
-1.05241043232e-07
5.31452460739e-07
-1.21219752007e-07
5.42192387377e-07
-1.38691022773e-07
5.53778734109e-07
-1.57668430868e-07
5.65509517496e-07
-1.77463631781e-07
5.77470317937e-07
-1.97264604722e-07
5.91289458221e-07
-2.19090748411e-07
6.07596724586e-07
-2.50906681139e-07
6.1833219761e-07
-3.02643164556e-07
6.06294504082e-07
-3.69638941958e-07
-4.26467578771e-07
5.65998020589e-07
5.26377126018e-07
5.13006894217e-07
5.27617170443e-07
-3.00143643354e-08
5.41177768083e-07
-1.2901788217e-09
5.43937708164e-07
-4.37679171162e-08
5.48457219647e-07
-6.0158087453e-08
5.52898745421e-07
-7.92688581934e-08
5.58749545372e-07
-9.54259507538e-08
5.65737917285e-07
-1.11914314539e-07
5.73922894389e-07
-1.29050015577e-07
5.829771965e-07
-1.47329533006e-07
5.92412175999e-07
-1.6665134511e-07
6.01758873795e-07
-1.86395247135e-07
6.11307340517e-07
-2.06460611688e-07
6.21914745009e-07
-2.29419760807e-07
6.32166581939e-07
-2.60915915198e-07
6.34402516931e-07
-3.04653195467e-07
6.18507072359e-07
-3.53599838409e-07
-3.9191469491e-07
5.84072749589e-07
5.79361681754e-07
5.28568972402e-07
5.78440902888e-07
-2.81658542366e-08
5.90600789327e-07
-1.20097362001e-08
5.9350559427e-07
-4.53385576092e-08
5.97651411718e-07
-6.34069610166e-08
6.01522202742e-07
-8.26564137466e-08
6.06465209492e-07
-1.0019158744e-07
6.12289596621e-07
-1.17693839188e-07
6.18964873945e-07
-1.35682749474e-07
6.26118408566e-07
-1.54385924397e-07
6.33298611882e-07
-1.73661551897e-07
6.40237227133e-07
-1.931084744e-07
6.47151825809e-07
-2.13136052922e-07
6.5404019172e-07
-2.36071883057e-07
6.58495373954e-07
-2.65129335334e-07
6.54572333078e-07
-3.00492127726e-07
6.36960925296e-07
-3.35784784385e-07
-3.61722374636e-07
6.06862859419e-07
6.35180100008e-07
5.30295887142e-07
6.32066483976e-07
-2.4925018142e-08
6.43006690478e-07
-2.21785125129e-08
6.45606278502e-07
-4.70162126832e-08
6.49349964433e-07
-6.62388750257e-08
6.52616801922e-07
-8.51797808391e-08
6.5663664135e-07
-1.03556132304e-07
6.61222926195e-07
-1.21685244106e-07
6.66289352305e-07
-1.40154426305e-07
6.71467700017e-07
-1.58953316492e-07
6.76396225481e-07
-1.779846343e-07
6.80893766547e-07
-1.97049151202e-07
6.84965071587e-07
-2.16719332591e-07
6.87952184829e-07
-2.38620900876e-07
6.87344343379e-07
-2.64130896379e-07
6.79096912078e-07
-2.91881758586e-07
6.60725206864e-07
-3.17156028238e-07
-3.34609100807e-07
6.33820947616e-07
5.79751179289e-07
5.25710142073e-07
5.76765600826e-07
-2.07166689427e-08
5.84110309026e-07
-2.81597737166e-08
5.86170765063e-07
-4.77268284319e-08
5.88875854908e-07
-6.7774950777e-08
5.9118083477e-07
-8.65054114324e-08
5.93843736774e-07
-1.0535958565e-07
5.96740072727e-07
-1.23788352778e-07
5.99768569768e-07
-1.42375348873e-07
6.02642145049e-07
-1.6103751177e-07
6.05110078196e-07
-1.79727322042e-07
6.07055451643e-07
-1.9821794564e-07
6.08277273269e-07
-2.17193151553e-07
6.0795095005e-07
-2.37696451348e-07
6.0429653427e-07
-2.59901610252e-07
5.95096663442e-07
-2.82231359313e-07
5.79451505484e-07
-3.01137967138e-07
-3.13493596534e-07
5.5856112665e-07
7.12619610496e-07
5.12757113685e-07
7.10175590425e-07
-1.77019293967e-08
7.15783570386e-07
-3.28892139841e-08
7.18108664225e-07
-4.91206531926e-08
7.20679700832e-07
-6.94618857153e-08
7.22870311917e-07
-8.78653771295e-08
7.25158646945e-07
-1.06894628541e-07
7.27454233194e-07
-1.25330108194e-07
7.29576557576e-07
-1.43774982916e-07
7.31244523687e-07
-1.62041719808e-07
7.3226799852e-07
-1.79931534642e-07
7.32420525956e-07
-1.97581609179e-07
7.31298050557e-07
-2.15353675659e-07
7.28005238392e-07
-2.33655292833e-07
7.20887984315e-07
-2.5221851869e-07
7.08564967139e-07
-2.69341786169e-07
6.9062286487e-07
-2.82853943768e-07
-2.90859023363e-07
6.68318173997e-07
8.73732983521e-07
4.93078075525e-07
8.71787582562e-07
-1.47859390631e-08
8.75198706897e-07
-3.58130761987e-08
8.77367869704e-07
-5.07361131957e-08
8.79509294635e-07
-7.09514368752e-08
8.81284035975e-07
-8.90147180651e-08
8.82865817548e-07
-1.07744869729e-07
8.84103959586e-07
-1.25865712022e-07
8.84811890268e-07
-1.43766528437e-07
8.84767717669e-07
-1.61149423809e-07
8.83638124149e-07
-1.78095352636e-07
8.81232857518e-07
-1.94389036809e-07
8.77012955527e-07
-2.10348054464e-07
8.69992123739e-07
-2.26005479971e-07
8.59111434719e-07
-2.40676306071e-07
8.43449286258e-07
-2.53218543876e-07
8.23252050921e-07
-2.62190342786e-07
-2.66745550779e-07
7.99433873501e-07
1.07044784526e-06
4.6319146012e-07
1.06796416899e-06
-1.22062910214e-08
1.0694561863e-06
-3.69048357601e-08
1.07086819478e-06
-5.18071973752e-08
1.07198362743e-06
-7.17903304272e-08
1.07277765322e-06
-8.92435675045e-08
1.07293866062e-06
-1.07381876673e-07
1.07244433646e-06
-1.24652422239e-07
1.07102550632e-06
-1.41560686171e-07
1.0683214155e-06
-1.57798925491e-07
1.06425483694e-06
-1.73230867747e-07
1.05834372434e-06
-1.87811743487e-07
1.050134307e-06
-2.0152503323e-07
1.03889105289e-06
-2.14174234368e-07
1.02390990178e-06
-2.25200765781e-07
1.00495259337e-06
-2.33762705702e-07
9.82309853721e-07
-2.39187855544e-07
-2.41038453461e-07
9.5699005529e-07
1.30749177351e-06
4.22549841022e-07
1.30542643789e-06
-1.01546753019e-08
1.30510189545e-06
-3.69248424197e-08
1.3053234109e-06
-5.22192754711e-08
1.30503949452e-06
-7.12711883464e-08
1.30403679332e-06
-8.80382651512e-08
1.30212295818e-06
-1.04924324855e-07
1.29902058463e-06
-1.20991795657e-07
1.29449147109e-06
-1.36437274727e-07
1.28838698187e-06
-1.51000192306e-07
1.28030908852e-06
-1.64631310439e-07
1.27008535646e-06
-1.77054843512e-07
1.25723709934e-06
-1.88224079787e-07
1.24140519444e-06
-1.97890049619e-07
1.22229272043e-06
-2.05645507658e-07
1.19996026241e-06
-2.11050857826e-07
1.17496049592e-06
-2.13757565779e-07
-2.13749896818e-07
1.14792178756e-06
1.59025835919e-06
3.76755298592e-07
1.58951982703e-06
-1.11366155937e-08
1.58847062213e-06
-3.67267457814e-08
1.58722883475e-06
-5.13691679507e-08
1.58485736483e-06
-6.89939995389e-08
1.58143799486e-06
-8.44240322481e-08
1.57644113679e-06
-9.96370004088e-08
1.56980139836e-06
-1.13947209659e-07
1.56127434856e-06
-1.27435075036e-07
1.55065527809e-06
-1.39969346897e-07
1.53781182301e-06
-1.51343468707e-07
1.52254184966e-06
-1.61390432632e-07
1.50468788633e-06
-1.69940271504e-07
1.48410952437e-06
-1.76902750409e-07
1.46085173662e-06
-1.81969171805e-07
1.43521795615e-06
-1.84997039417e-07
1.40763826987e-06
-1.85827807394e-07
-1.84584541495e-07
1.37890225152e-06
1.9292716064e-06
3.27343703839e-07
1.93017146436e-06
-1.435400206e-08
1.9273042186e-06
-3.54515994276e-08
1.92443272531e-06
-4.91560168054e-08
1.91940188786e-06
-6.42318114157e-08
1.91282557899e-06
-7.77427056327e-08
1.90392662388e-06
-9.06615612425e-08
1.89291828402e-06
-1.02666321731e-07
1.87945284214e-06
-1.1376165063e-07
1.86367493066e-06
-1.2382128743e-07
1.84538757807e-06
-1.32738530565e-07
1.82474577752e-06
-1.40287186948e-07
1.80161550478e-06
-1.46422439276e-07
1.77630607931e-06
-1.51067487796e-07
1.74881667383e-06
-1.54100315215e-07
1.71983382082e-06
-1.55466902327e-07
1.68943502805e-06
-1.55154669184e-07
-1.53292790385e-07
1.65867437513e-06
2.34186401887e-06
2.76877965901e-07
2.34331226115e-06
-1.92161204201e-08
2.33696359023e-06
-3.18343383623e-08
2.3315662632e-06
-4.48417117717e-08
2.32288053155e-06
-5.6246901856e-08
2.31214362711e-06
-6.70910646519e-08
2.29854466272e-06
-7.70305809781e-08
2.28215726514e-06
-8.61475123732e-08
2.26312471034e-06
-9.44697946174e-08
2.24141400276e-06
-1.0181315555e-07
2.21730860316e-06
-1.08180719467e-07
2.19086990702e-06
-1.13362852737e-07
2.16236243588e-06
-1.17376014583e-07
2.13211492018e-06
-1.20202274743e-07
2.10028404347e-06
-1.21792956161e-07
2.06766057892e-06
-1.22139859158e-07
2.03411879178e-06
-1.21299516414e-07
-1.1930786589e-07
2.00085416616e-06
1.71200493967e-06
2.38455956186e-07
1.71145045958e-06
-2.53404538425e-08
1.70642647207e-06
-3.14152027807e-08
1.70072193027e-06
-4.20561613785e-08
1.69364618917e-06
-5.0005530327e-08
1.68418306255e-06
-5.84745647393e-08
1.67314784652e-06
-6.58580882773e-08
1.65969996532e-06
-7.29797210866e-08
1.64484999948e-06
-7.92405898959e-08
1.62805772019e-06
-8.48368595647e-08
1.60990129702e-06
-8.9582903698e-08
1.59037662287e-06
-9.33619698662e-08
1.56964574777e-06
-9.62720868994e-08
1.5481939051e-06
-9.81367468903e-08
1.52588284804e-06
-9.91312533987e-08
1.50342632437e-06
-9.90810200359e-08
1.48063816841e-06
-9.82232154201e-08
-9.6592060933e-08
1.45860490976e-06
1.50220180196e-06
1.94189032417e-07
1.49276425901e-06
-2.26472144965e-08
1.48798022877e-06
-3.01477201741e-08
1.48204889498e-06
-4.01257759764e-08
1.47491025806e-06
-4.50907382565e-08
1.46614289694e-06
-5.09215438767e-08
1.45545590357e-06
-5.59525061457e-08
1.44333505605e-06
-6.09451497611e-08
1.42968267652e-06
-6.55250187302e-08
1.41479831281e-06
-6.96142320255e-08
1.3987363434e-06
-7.31387043413e-08
1.38162913394e-06
-7.59320173279e-08
1.36390878871e-06
-7.79918389056e-08
1.34544649927e-06
-7.93492775474e-08
1.32677592398e-06
-7.99426004014e-08
1.30776580112e-06
-7.97372306976e-08
1.28880737576e-06
-7.87374159506e-08
-7.63080152263e-08
1.26883625066e-06
1.2759813834e-06
1.79627522673e-07
1.30529507633e-06
-5.98616286173e-08
1.30111954091e-06
-3.51986510898e-08
1.29724642609e-06
-3.93207079274e-08
1.29050174202e-06
-4.06406165908e-08
1.2823572007e-06
-4.38574469526e-08
1.27248264056e-06
-4.69840550282e-08
1.26148513575e-06
-5.02990490425e-08
1.24940679292e-06
-5.33962404752e-08
1.23634242539e-06
-5.6340124684e-08
1.22246515082e-06
-5.88564269512e-08
1.207813946e-06
-6.09879229189e-08
1.19282043451e-06
-6.25467784654e-08
1.17738013136e-06
-6.3710725182e-08
1.16206535456e-06
-6.4047045224e-08
1.14646362897e-06
-6.41067789878e-08
1.13175686985e-06
-6.35968227272e-08
-6.56328498545e-08
1.12127600018e-06
1.25383555958e-06
3.51698703338e-08
1.13553612269e-06
5.51378873613e-08
1.13411600365e-06
-3.37252830328e-08
1.13002162343e-06
-3.90948855043e-08
1.12407962583e-06
-3.69393041878e-08
1.11623975633e-06
-3.79053483303e-08
1.1073431652e-06
-3.86031688047e-08
1.09731008707e-06
-4.04852982929e-08
1.08637616334e-06
-4.23860157088e-08
1.07458531345e-06
-4.43175288052e-08
1.06201174596e-06
-4.61111410259e-08
1.0489769789e-06
-4.7631751419e-08
1.0353778138e-06
-4.88110003805e-08
1.02189551164e-06
-4.94498645311e-08
1.00764837777e-06
-4.99345122062e-08
9.93990527089e-07
-4.97120416921e-08
9.79010688022e-07
-4.89248673923e-08
-4.0027329607e-08
9.53805346593e-07
6.61235160812e-07
3.33275995901e-07
1.00996130867e-06
-2.96433269567e-07
1.01318323843e-06
-4.28381644202e-08
1.00864776711e-06
-3.51569887358e-08
1.00242672059e-06
-3.13037353803e-08
9.95243084135e-07
-3.07328183642e-08
9.86897766436e-07
-3.06339443157e-08
9.78069450437e-07
-3.15602232212e-08
9.68698670409e-07
-3.28706417126e-08
9.59044774329e-07
-3.45067511198e-08
9.48967302114e-07
-3.60810659126e-08
9.38659913564e-07
-3.71697901443e-08
9.28194095103e-07
-3.80981361132e-08
9.17656078592e-07
-3.87785661347e-08
9.07277472187e-07
-3.90472345555e-08
8.9634430587e-07
-3.8666576172e-08
8.85272138115e-07
-3.76539985491e-08
-4.92739777125e-08
8.94685485091e-07
1.61979147215e-06
-4.35820533022e-07
8.41723131251e-07
4.86909374487e-07
8.50416019895e-07
-4.73335742306e-08
8.54298216321e-07
-3.88817778964e-08
8.47645211488e-07
-2.56272904691e-08
8.40301251495e-07
-2.40521812202e-08
8.32261089456e-07
-2.24713579328e-08
8.23662734257e-07
-2.30347519447e-08
8.14626585323e-07
-2.39763600271e-08
8.0515631828e-07
-2.52573353137e-08
7.95374092232e-07
-2.63588582006e-08
7.85321083967e-07
-2.73835402023e-08
7.7529127698e-07
-2.80292500325e-08
7.65056630407e-07
-2.84606270555e-08
7.54891406894e-07
-2.88439650217e-08
7.46373036639e-07
-3.00982911857e-08
7.42732666107e-07
-3.37475414172e-08
-2.27095532933e-08
7.15934372498e-07
-5.72079248042e-07
8.770203329e-07
8.41860877459e-07
-9.20712294353e-07
8.2007888252e-07
-2.38165474385e-08
7.95770954989e-07
-1.24708531934e-08
7.92670482473e-07
-2.06734643358e-08
7.86849201693e-07
-1.76864660341e-08
7.81149548463e-07
-1.68924045041e-08
7.74767990747e-07
-1.682908834e-08
7.6788240955e-07
-1.7276511037e-08
7.60459659877e-07
-1.79358751814e-08
7.52294125375e-07
-1.849508846e-08
7.43207821978e-07
-1.83601262578e-08
7.33225661514e-07
-1.82439762045e-08
7.22423555152e-07
-1.78535352493e-08
7.10596822156e-07
-1.72241949096e-08
6.95397360012e-07
-1.52863999348e-08
6.70761240073e-07
-8.89996184583e-09
-1.52368145004e-08
6.63397210798e-07
2.31673117823e-06
-7.8850874774e-07
5.64949908426e-07
8.40639450656e-07
6.31412418426e-07
-8.45503719791e-08
6.61709611556e-07
-3.58994657568e-08
6.4991196829e-07
-1.05585265071e-08
6.43973449459e-07
-1.14746310913e-08
6.36346655831e-07
-9.26164792374e-09
6.29220043534e-07
-1.00390968074e-08
6.22420944624e-07
-1.08205950005e-08
6.16439547338e-07
-1.22868503852e-08
6.1149036716e-07
-1.33896577538e-08
6.07037992192e-07
-1.42913030184e-08
6.03418416729e-07
-1.48652147587e-08
6.00780310165e-07
-1.55310431353e-08
5.99286524623e-07
-1.61779857097e-08
6.01249084502e-07
-1.75590879926e-08
6.14654765134e-07
-2.27586596557e-08
-1.14871152911e-08
6.11567218396e-07
-7.84179743254e-07
5.68830668676e-07
8.64420353658e-07
-7.95875837675e-07
5.95267421974e-07
1.92904055086e-07
6.05630298162e-07
-3.82941322111e-08
5.93241448622e-07
3.05761743922e-09
5.88538875651e-07
-6.49391025598e-09
5.82620273845e-07
-3.38220937678e-09
5.75685136605e-07
-3.61128116753e-09
5.68238715722e-07
-3.91809610968e-09
5.60335979878e-07
-4.45624966916e-09
5.52004021116e-07
-5.16990293209e-09
5.43331829851e-07
-5.89882861795e-09
5.34499175543e-07
-6.42528728331e-09
5.25396425301e-07
-6.85651988153e-09
5.1600110374e-07
-7.3321161313e-09
5.0496270034e-07
-7.24320440374e-09
4.8411860592e-07
-1.63054321492e-09
-1.6840333489e-08
4.89105478541e-07
1.26671267404e-06
-1.94253911411e-07
3.73391438272e-07
1.11487839878e-07
6.03442101088e-07
-2.68868974356e-08
5.57736942863e-07
1.68019438448e-08
5.68001397092e-07
-5.24525029183e-09
5.6077135611e-07
1.1874695284e-09
5.58639944554e-07
-1.32413678749e-09
5.55126502141e-07
-6.76229271176e-10
5.51887199457e-07
-1.21325225611e-09
5.4870440253e-07
-1.4524471441e-09
5.45268285856e-07
-1.84882902265e-09
5.41269310192e-07
-2.26706904203e-09
5.36776358079e-07
-2.40095981531e-09
5.31627534575e-07
-2.24821062089e-09
5.25390064762e-07
-1.81026939204e-09
5.20033704279e-07
-2.38597769503e-09
5.26215343556e-07
-8.2449578478e-09
1.08500361426e-08
4.98487517385e-07
2.27108662383e-07
3.3942499136e-07
3.13446057482e-07
3.30454370304e-07
3.25261465311e-07
3.26449206053e-07
3.25056952267e-07
3.24303249426e-07
3.23060725035e-07
3.21597218269e-07
3.19692265787e-07
3.17343677357e-07
3.14845422218e-07
3.1246090988e-07
3.10509385444e-07
3.08033391595e-07
2.99765842834e-07
3.10327949352e-07
7.90843647517e-08
-1.29345575817e-07
9.62388934442e-08
-7.11104219664e-08
8.97939598506e-08
-3.40621846154e-08
3.41025600698e-08
7.52671143383e-09
-5.06992609872e-08
5.56970580891e-08
-1.44920413329e-07
7.01296105136e-08
-2.0853500106e-07
5.50246223071e-08
-2.55532037761e-07
3.61932262565e-08
-2.79095998918e-07
1.96412518119e-08
-2.924808849e-07
6.82558764773e-09
-2.92669443376e-07
-2.06754681218e-09
-2.89229564861e-07
-7.91636498619e-09
-2.79409217266e-07
-1.12582363904e-08
-2.69489899397e-07
-1.29748460069e-08
-2.56984489437e-07
-1.34203804723e-08
-2.45809053641e-07
-1.31688562581e-08
-2.34042717811e-07
-1.23774490691e-08
-2.2390149112e-07
-1.1384203667e-08
-2.1411667507e-07
-1.02515957845e-08
-2.05768087053e-07
-9.16743636849e-09
-1.98127782128e-07
-8.14081041896e-09
-1.91500085459e-07
-7.26971550046e-09
-1.85603175921e-07
-6.55086136598e-09
-1.80260386871e-07
-6.00690765423e-09
-1.75446123796e-07
-5.63504456096e-09
-1.70816271916e-07
-5.42955084348e-09
-1.66448849723e-07
-5.37606094838e-09
-1.61957654153e-07
-5.44816247988e-09
-1.57431748063e-07
-5.63717056413e-09
-1.52601569851e-07
-5.91388088558e-09
-1.47482671203e-07
-6.26527263074e-09
-1.41953368722e-07
-6.66796051541e-09
-1.35945040842e-07
-7.11152330228e-09
-1.29499363551e-07
-7.57685011313e-09
-1.22450202117e-07
-8.04762573986e-09
-1.14978275095e-07
-8.52732965544e-09
-1.0688073381e-07
-8.99153003663e-09
-9.83765210948e-08
-9.44366117025e-09
-8.92677014241e-08
-9.86809664011e-09
-7.97982577368e-08
-1.02741074346e-08
-6.97820182278e-08
-1.06418608403e-08
-5.94551153887e-08
-1.09859011327e-08
-4.86715706123e-08
-1.12887344824e-08
-3.76346098644e-08
-1.15652479015e-08
-2.62456536748e-08
-1.18023127855e-08
-1.46711108835e-08
-1.20127886607e-08
-2.84813601953e-09
-1.21884543602e-08
9.07623663855e-09
-1.23391239054e-08
2.11709139651e-08
-1.24560309314e-08
3.32852253844e-08
-1.25529840217e-08
4.55055907052e-08
-1.26203546476e-08
5.76871951748e-08
-1.26655665473e-08
6.99493951536e-08
-1.26811424456e-08
8.21390981764e-08
-1.26821613703e-08
9.43947172977e-08
-1.26557757688e-08
1.06575539572e-07
-1.26245479951e-08
1.18794918887e-07
-1.25825730469e-08
1.30974840153e-07
-1.25444837667e-08
1.43182599324e-07
-1.25177704118e-08
1.554038777e-07
-1.25067772771e-08
1.67631874101e-07
-1.25108017639e-08
1.798509614e-07
-1.24744443112e-08
1.91775697806e-07
-1.22049761228e-08
2.02778663301e-07
-1.12843221908e-08
2.13073839488e-07
-1.06044453983e-08
2.22889591037e-07
-1.0152983824e-08
2.32355370554e-07
-9.76547477113e-09
2.41419760302e-07
-9.42906195113e-09
2.50319606241e-07
-9.10679363013e-09
2.58875995546e-07
-8.83462340289e-09
2.67434228757e-07
-8.56931092619e-09
2.75717956094e-07
-8.37654388867e-09
2.84205728292e-07
-8.18704230314e-09
2.92530341122e-07
-8.12075409538e-09
3.01209584925e-07
-8.0697609808e-09
3.09922600104e-07
-8.160230145e-09
3.19168466595e-07
-8.29889888252e-09
3.28728978948e-07
-8.60033711696e-09
3.39079547384e-07
-8.97234654113e-09
3.5004506234e-07
-9.54705396651e-09
3.62043785631e-07
-1.02419060163e-08
3.75059048422e-07
-1.1176774567e-08
3.8941615751e-07
-1.23038329242e-08
4.05346246072e-07
-1.37117944712e-08
4.22993876125e-07
-1.54307788032e-08
4.42873583318e-07
-1.75117072974e-08
4.65052109684e-07
-2.00826532341e-08
4.8998841826e-07
-2.32049461157e-08
5.18348853655e-07
-2.69062547108e-08
5.50530832279e-07
-3.13417896407e-08
5.8712022276e-07
-3.61431524662e-08
6.28131542342e-07
-4.11536175114e-08
6.73527556061e-07
-4.63628651002e-08
7.22975778678e-07
-5.15291433394e-08
7.75754118817e-07
-5.58541861455e-08
8.29815613301e-07
-5.85613799473e-08
8.83789630948e-07
-5.94460501919e-08
9.3726411803e-07
-6.06056898049e-08
9.91889577562e-07
-6.26030244032e-08
1.04791519985e-06
-6.58619912462e-08
1.1071168673e-06
-6.98470097315e-08
1.16659583706e-06
-7.17374280954e-08
1.21368922276e-06
-6.01781276143e-08
1.30742048966e-06
-1.08616793374e-07
1.41899794245e-06
-1.31217280652e-07
1.50907112042e-06
-1.14704587549e-07
1.38513020915e-06
9.38983425291e-08
1.08429062783e-06
2.69800076694e-07
8.42652031359e-07
2.19615411681e-07
7.10199494449e-07
1.17898678831e-07
6.25371267988e-07
7.44957545935e-08
5.65605168686e-07
5.20695679142e-08
5.21214949022e-07
3.90516219206e-08
4.86706998935e-07
3.06443072271e-08
4.59447088567e-07
2.49950770912e-08
4.37254752584e-07
2.07888024466e-08
4.19231340307e-07
1.77504120019e-08
4.04257604525e-07
1.53243254039e-08
3.91892989574e-07
1.35223980738e-08
3.81255823844e-07
1.20562775126e-08
3.71910230646e-07
1.09236366669e-08
3.63337511194e-07
9.9548434118e-09
3.55558211511e-07
9.22970979327e-09
3.48337720884e-07
8.58692392115e-09
3.41804424884e-07
8.15059828243e-09
3.35589042051e-07
7.79478473946e-09
3.29741892543e-07
7.59986848701e-09
3.23973307205e-07
7.41293852211e-09
3.18475642683e-07
7.22632639751e-09
3.12918861608e-07
7.13712689321e-09
3.07633349597e-07
6.89051722707e-09
3.02263307244e-07
6.80752348762e-09
2.97279916417e-07
6.39975024174e-09
2.92614051946e-07
5.9026507078e-09
2.88434694789e-07
5.35169251836e-09
2.84712863812e-07
4.68536629985e-09
2.81624733959e-07
3.93310301136e-09
2.79126215174e-07
3.0470317415e-09
2.773808697e-07
2.1186397354e-09
2.76242044389e-07
1.05439518817e-09
2.75891441589e-07
2.43773898207e-11
2.76008509621e-07
-1.08727193793e-09
2.76760212181e-07
-2.03147200327e-09
2.77764538819e-07
-2.93755320324e-09
2.79215990209e-07
-3.59820308338e-09
2.80717651986e-07
-4.22074338935e-09
2.82512613279e-07
-4.59897940866e-09
2.84175238466e-07
-4.96195749245e-09
2.85998376323e-07
-5.08428944373e-09
2.87563226192e-07
-5.24949589893e-09
2.89291788298e-07
-5.24593596049e-09
2.90799350457e-07
-5.37669367331e-09
2.92587452517e-07
-5.3510532334e-09
2.94224181734e-07
-5.47968411456e-09
2.96328579238e-07
-5.48755662688e-09
2.98474424477e-07
-5.73008833711e-09
3.01395398956e-07
-5.86481337338e-09
3.04610678489e-07
-6.26483147711e-09
3.08972421397e-07
-6.55391065002e-09
3.13994881357e-07
-7.21266919384e-09
3.20804085977e-07
-7.89306177898e-09
3.28808288611e-07
-8.98836485594e-09
3.39071912638e-07
-9.87486347551e-09
3.50674497296e-07
-1.10483594851e-08
3.64864208248e-07
-1.19748657495e-08
3.80362198553e-07
-1.30738315758e-08
3.98433846134e-07
-1.36262530356e-08
4.17041220257e-07
-1.38705076637e-08
4.37142368155e-07
-1.28988925327e-08
4.56224225372e-07
-1.14594251954e-08
4.75828892799e-07
-9.12433244013e-09
4.94015791504e-07
-7.1709610756e-09
5.12732690973e-07
-4.70045285302e-09
5.31091715424e-07
-3.82518227719e-09
5.50318005936e-07
-1.81788827037e-09
5.68222204364e-07
-1.69422284775e-10
5.85496226417e-07
3.14333190432e-09
5.92699765631e-07
1.2967497377e-08
5.84555432152e-07
3.03207947581e-08
2.89555302647e-08
5.77222761858e-07
1.08279336967e-09
-1.77016842143e-07
-6.63545165606e-08
-4.00232971927e-08
-1.75754035849e-07
5.67189061705e-08
-2.4291213717e-07
6.11243979724e-08
-2.35514197031e-07
4.07508301456e-08
-1.91707646599e-07
1.89726581279e-08
-1.41749233632e-07
9.10568257514e-10
-9.79309761643e-08
-1.25276639236e-08
-5.95856028078e-08
-2.13438091973e-08
-3.02222296755e-08
-2.62153504669e-08
-6.21514513327e-09
-2.80310152503e-08
1.09342837862e-08
-2.7840889271e-08
2.46718633886e-08
-2.64266422478e-08
3.41579814356e-08
-2.44669146991e-08
4.20746524834e-08
-2.23442596162e-08
4.79022636707e-08
-2.03650214273e-08
5.34657617327e-08
-1.86485810704e-08
5.84566105395e-08
-1.72882962405e-08
6.39350862842e-08
-1.62808416275e-08
6.97637217051e-08
-1.56220032919e-08
7.63721458432e-08
-1.52782790353e-08
8.37452804885e-08
-1.51955398959e-08
9.19341362649e-08
-1.53340131232e-08
1.00977281486e-07
-1.56440695012e-08
1.1069343952e-07
-1.60874199153e-08
1.21166506922e-07
-1.66143063506e-08
1.3212983613e-07
-1.72039341845e-08
1.43652604852e-07
-1.78171125006e-08
1.55495900884e-07
-1.8435842045e-08
1.67673195048e-07
-1.90374859816e-08
1.80026875249e-07
-1.96098316529e-08
1.92493424241e-07
-2.01419673744e-08
2.05030874954e-07
-2.06183884531e-08
2.1751304682e-07
-2.1048434568e-08
2.29963087409e-07
-2.14219941515e-08
2.42237553186e-07
-2.1742505989e-08
2.54417939049e-07
-2.20102000571e-08
2.6634925871e-07
-2.22365808983e-08
2.78150425643e-07
-2.24139589852e-08
2.89687439597e-07
-2.25565015656e-08
3.01075286189e-07
-2.26626302058e-08
3.12212358705e-07
-2.27425598242e-08
3.23195854703e-07
-2.27955752201e-08
3.33955001934e-07
-2.28298993532e-08
3.44563631473e-07
-2.28451161148e-08
3.54971948189e-07
-2.28472312732e-08
3.65234689633e-07
-2.2834483065e-08
3.75312308292e-07
-2.2810088623e-08
3.85250995233e-07
-2.2772947041e-08
3.95006755736e-07
-2.27201877963e-08
4.04641437173e-07
-2.26466923262e-08
4.14094173406e-07
-2.25603444066e-08
4.2344714646e-07
-2.24479615407e-08
4.3264582725e-07
-2.23160259876e-08
4.41756600087e-07
-2.21595508583e-08
4.50711217298e-07
-2.19865638057e-08
4.59564127931e-07
-2.17871727123e-08
4.68240582702e-07
-2.15724764586e-08
4.76752172086e-07
-2.13321555784e-08
4.85019082073e-07
-2.10785326205e-08
4.93035598248e-07
-2.07986287182e-08
5.00819398445e-07
-2.05426800323e-08
5.08790066665e-07
-2.04600375571e-08
5.17479866352e-07
-2.02822919032e-08
5.25683666862e-07
-1.91138063036e-08
5.33084571016e-07
-1.78990842088e-08
5.39592289388e-07
-1.65847274734e-08
5.44995826806e-07
-1.51614571775e-08
5.49283329739e-07
-1.36363821051e-08
5.52273532671e-07
-1.20536713894e-08
5.54064800626e-07
-1.04311486585e-08
5.54503161958e-07
-8.83461511477e-09
5.53745155061e-07
-7.28178538786e-09
5.51698790532e-07
-5.81646084055e-09
5.48522065799e-07
-4.45870738368e-09
5.44145178969e-07
-3.24119463864e-09
5.38738414696e-07
-2.15274766369e-09
5.32279360718e-07
-1.22031171495e-09
5.24877626648e-07
-4.4689598414e-10
5.16526682434e-07
1.2548282877e-10
5.07304773859e-07
4.69481876703e-10