/*--------------------------------*- C++ -*----------------------------------*\
| =========                 |                                                 |
| \\      /  F ield         | OpenFOAM: The Open Source CFD Toolbox           |
|  \\    /   O peration     | Version:  v1806                                 |
|   \\  /    A nd           | Web:      www.OpenFOAM.com                      |
|    \\/     M anipulation  |                                                 |
\*---------------------------------------------------------------------------*/
FoamFile
{
    version     2.0;
    format      ascii;
    class       volScalarField;
    location    "12";
    object      rho;
}
// * * * * * * * * * * * * * * * * * * * * * * * * * * * * * * * * * * * * * //

dimensions      [0 0 0 0 0 0 0];


internalField   nonuniform List<scalar> 
12225
(
0.58358311275
0.6440144441
0.624726956934
0.624466101504
0.612668720079
0.608280549761
0.602291481366
0.598153546399
0.595881257479
0.596653283875
0.601979398459
0.610542866742
0.617552373782
0.629524818891
0.652981016651
0.682801235317
0.720477355157
0.752899702133
0.748129110976
0.693424851406
0.659774900742
0.664613215893
0.655174775557
0.652580262423
0.648544175543
0.64591008676
0.644300896177
0.644426454893
0.647679516915
0.653876775643
0.66048040879
0.670351979461
0.687715717419
0.709513356585
0.732944825395
0.735481030176
0.611834290764
0.672538394036
0.656682911831
0.657605639741
0.648052747276
0.644542561055
0.639932440669
0.63675269713
0.634522373781
0.633755337747
0.635183480907
0.638980385359
0.644653010059
0.653699401044
0.668169339933
0.685693491174
0.70139642705
0.696405638022
0.658604438577
0.687485579762
0.659737157504
0.665825623956
0.656830837584
0.654980761935
0.651624828152
0.6495262898
0.648051329786
0.647639934126
0.648658324171
0.651319796571
0.655769885917
0.662848132476
0.673220135683
0.684606523782
0.691704487933
0.68251555685
0.6408795093
0.686102918677
0.661869201614
0.668523722944
0.660569775787
0.659663454252
0.657248669319
0.656101301598
0.655590486932
0.656054187666
0.657656562694
0.660519554928
0.664861890968
0.671036101871
0.678825546384
0.685910350123
0.687698437519
0.677740117457
0.644670629585
0.689932781847
0.664800590003
0.67294705722
0.66553536936
0.665390450495
0.663562181385
0.662973011694
0.662969280551
0.663825612035
0.665613249272
0.668386137761
0.672279417124
0.67731510132
0.682815754634
0.68660591461
0.685295829508
0.67585932413
0.644715339308
0.691632901358
0.667358106137
0.676443836048
0.669673236416
0.670194023325
0.668884591742
0.668753539621
0.669121008535
0.670212722225
0.672041824784
0.674607003995
0.677910469078
0.68176033427
0.685297686965
0.686683618919
0.683663363718
0.675017207575
0.645739099758
0.693023375549
0.669515361524
0.679370552965
0.673166621094
0.674239650272
0.673343249657
0.673552133272
0.674138077951
0.675307106514
0.67704267764
0.679293406725
0.681941492922
0.684668597767
0.686595402179
0.686297852397
0.682375462009
0.674538279025
0.646649835389
0.693846728693
0.671232033138
0.68165884344
0.675979677005
0.677525879732
0.676972008723
0.677422128396
0.678108243281
0.679241832077
0.680789962917
0.682648047809
0.684613895575
0.686312092787
0.686959486736
0.685496350777
0.681141979138
0.673994316438
0.647310457567
0.69418523871
0.672392323918
0.683236379355
0.678002418692
0.679938602057
0.679639144581
0.680235562201
0.680947513963
0.681992347438
0.683298481877
0.684711956521
0.685987291457
0.686763294486
0.686401728261
0.684158286647
0.679643577176
0.673146154945
0.647056421608
0.694265476775
0.67269958726
0.683924217093
0.678945707631
0.681109596229
0.680903803861
0.681541481863
0.682216860089
0.68311732392
0.684132228209
0.685103810041
0.685790581583
0.685882406102
0.684881045871
0.682287467201
0.677953791073
0.672188722331
0.642892099993
0.694142513332
0.671161670908
0.682992450002
0.677953706199
0.68022491974
0.680045896524
0.680694409011
0.681285588503
0.682035240915
0.682890028981
0.683672483134
0.684134436361
0.683983452534
0.682838941295
0.680357741245
0.676480605707
0.67150763677
0.63947020642
0.693444875218
0.669622803682
0.681883211708
0.677025937869
0.67947794855
0.6794088064
0.680145208691
0.680837604881
0.681678637986
0.682554627475
0.683284629355
0.683588848528
0.683257359313
0.681977354529
0.67954470116
0.675993963618
0.671588697429
0.635341516816
0.692575365092
0.667878165842
0.680693967753
0.676056646588
0.678874328823
0.679123577669
0.680092991166
0.680907821726
0.681762645878
0.682537095063
0.683036164575
0.683018050449
0.682338405471
0.680833765888
0.678381275145
0.675124851433
0.671210228721
0.62999305245
0.691623085225
0.665693486479
0.679252688673
0.674843237945
0.678091885744
0.678702306785
0.679945566309
0.680901323009
0.681728362437
0.682341127316
0.682536139667
0.682135113297
0.681118883962
0.679408742285
0.676981420946
0.673993611746
0.670583629799
0.624386700676
0.690599062146
0.663203607123
0.677492432785
0.67320507754
0.676824686342
0.6777054035
0.67915168841
0.680172678118
0.680960740317
0.681386798943
0.68133476716
0.680643604371
0.67942147271
0.677627733454
0.67531527828
0.672619370726
0.669634952549
0.619342313938
0.689663094542
0.6606857436
0.675563598998
0.671247178544
0.675089673503
0.676087053687
0.67760072177
0.678603550962
0.679282535197
0.679567558431
0.679331542017
0.678491732279
0.677183840196
0.675438142654
0.673285629322
0.670895263215
0.66825947934
0.614596118995
0.688942282191
0.658292543963
0.673645911948
0.669155536611
0.673071152163
0.674035640905
0.675515417949
0.676434995321
0.677002544764
0.677167059849
0.676820308963
0.675914423051
0.67461700945
0.672969872083
0.670999097474
0.66886839988
0.666538570263
0.611994056759
0.688833913116
0.65702914319
0.672565109046
0.667786787016
0.671560175152
0.672302001846
0.67358014847
0.674287911971
0.67465427371
0.674643888278
0.67417086022
0.673201369458
0.671917687441
0.670354605592
0.668526039936
0.666584469009
0.664482071506
0.617476214642
0.689506800649
0.658646413381
0.673316464437
0.668057552506
0.671155927644
0.671254575635
0.67187500328
0.671990440288
0.671829783927
0.671388462586
0.670597927724
0.66942021787
0.668023379063
0.666437250007
0.664665636066
0.662845404721
0.660938735469
0.621713239416
0.690564033211
0.660555330799
0.674596609067
0.668966946354
0.671527004601
0.671116872218
0.671261279738
0.670923572631
0.670389839642
0.669647534804
0.668651874513
0.667330742784
0.66587647218
0.66427922842
0.662562558425
0.660819762303
0.659039175631
0.625070645979
0.691684222555
0.662389842824
0.67589759307
0.669976062817
0.672066172225
0.671242084323
0.670972469591
0.670280748989
0.669447409222
0.668460247907
0.667298521219
0.665876747131
0.664363909555
0.662762660194
0.661071860011
0.659390527754
0.657674062208
0.628965352823
0.692979367253
0.66424766075
0.677249989217
0.671035883656
0.672669450164
0.671447725
0.670799973437
0.669779403119
0.668656319893
0.667462931442
0.666132736591
0.664599433904
0.663010050209
0.661390709876
0.659690854091
0.658033294374
0.65635723657
0.632044315884
0.694056423451
0.666291719313
0.678669442794
0.672175317434
0.673367040338
0.67177041195
0.670757866608
0.669436550398
0.66807282279
0.666676092
0.665205499225
0.663573171348
0.661931387941
0.660262133388
0.658553184182
0.656890205029
0.655278934903
0.639003828306
0.696075740676
0.667919833593
0.67978144998
0.672999111226
0.673741039497
0.671787322019
0.670460385121
0.668861484766
0.667255579526
0.665655857544
0.664042609492
0.662295948552
0.660562125424
0.658832331189
0.657049765736
0.655296932345
0.653560848284
0.631785087915
0.694913928088
0.671455558487
0.681885475312
0.675135906839
0.675466819798
0.673287763118
0.671708067769
0.669899782697
0.668100052892
0.666353534408
0.664633048265
0.662827244311
0.661044445686
0.659279942981
0.657491663036
0.655748277693
0.654212713335
0.676058815998
0.702546148285
0.672193120276
0.682891886203
0.675526865997
0.675394554963
0.672804191348
0.670858117382
0.668698458638
0.666545052948
0.664421962003
0.662465288628
0.660492956764
0.658541834904
0.656659023529
0.654746849135
0.652812072825
0.650677243469
0.585326148868
0.69012600848
0.682877060975
0.688224271794
0.682050599232
0.681514293123
0.67915078959
0.677402911842
0.675534361294
0.673674727558
0.671963822775
0.670373981541
0.668711698779
0.667060697828
0.665429017807
0.663666069815
0.66180260134
0.660356363646
0.812069912098
0.716474012503
0.687101440484
0.694838261545
0.688024976088
0.687088576219
0.684024679581
0.681324189288
0.678231094571
0.674893211403
0.6714179745
0.668168602142
0.664880370487
0.661460475924
0.657997732153
0.654481554361
0.650872164299
0.647361483988
0.647702443077
0.677419626145
0.67380630684
0.675281405632
0.667644997851
0.66670419661
0.664135796701
0.662166197269
0.660164786467
0.658415695258
0.657017810915
0.655715004723
0.65434619457
0.653305571612
0.652591702963
0.652003776523
0.651719863696
0.650978395489
0.500152982551
0.499794260968
0.499611488153
0.499629891655
0.499837560899
0.500195693033
0.500615675733
0.501056890778
0.501493648751
0.501908902208
0.502291711591
0.502635627008
0.50293736647
0.503195918746
0.503411850088
0.503587043616
0.503723950882
0.503825952068
0.503896164982
0.503937684186
0.503953875863
0.503947062264
0.503920613921
0.503875302542
0.503813138846
0.503733711727
0.503638733332
0.503527927821
0.503402046106
0.503260280211
0.503102997669
0.502929698081
0.502740886153
0.502535806777
0.502314767409
0.502077974507
0.501826631661
0.501560103427
0.501279642623
0.500985430568
0.500678901924
0.50036094627
0.500033295436
0.499697726532
0.499356370097
0.499011842414
0.498666724249
0.498324119736
0.497987224287
0.497658909074
0.497341925283
0.497037485885
0.496748648856
0.496479420616
0.496235029432
0.496020412637
0.49584083422
0.495701482656
0.495607718494
0.495564595578
0.495576004271
0.495642889787
0.495765833528
0.495946777248
0.496185608807
0.496479835122
0.496827699208
0.497227264933
0.49767532323
0.498169046097
0.498704095486
0.499276453975
0.499881194436
0.500513887397
0.501169640863
0.501844242855
0.502533452484
0.5032325165
0.50393742839
0.504645389051
0.505354160023
0.506060353906
0.506761849424
0.507455999233
0.508143679537
0.508822387055
0.509492330958
0.510159944088
0.510821760634
0.511481625425
0.512140252262
0.512797736359
0.51345569709
0.514086694444
0.514674944301
0.515257321169
0.515864507962
0.516480393392
0.517101466391
0.517721053465
0.518445304892
0.519253434789
0.519320653979
0.519280380118
0.519397098776
0.519734466085
0.520259615743
0.520493821437
0.5208093449
0.521105279726
0.521363791481
0.521588821161
0.521789404072
0.521971166382
0.522138355749
0.522293791597
0.522440380991
0.522581295877
0.522717370351
0.522847527893
0.522968315456
0.523078418629
0.523179124741
0.52327153337
0.52335851152
0.523441322133
0.523520732748
0.523597263665
0.523671316887
0.523743293775
0.523813572479
0.523882373564
0.523949840746
0.524015906406
0.524080546305
0.524143576739
0.52420490424
0.524264840638
0.524322836624
0.524378596818
0.524430149602
0.524478770618
0.524523597701
0.524563160004
0.524595804873
0.524619745701
0.524633890485
0.524637438154
0.524629679601
0.524610054985
0.524577461419
0.524530352428
0.524466982357
0.52438568605
0.524284667356
0.524162095635
0.524015918016
0.523843892989
0.523643081079
0.523409913944
0.523139054267
0.522824809079
0.522459132947
0.522030712997
0.521524095483
0.520922339358
0.520204610872
0.519354531714
0.518359097541
0.517195710541
0.515851603492
0.514330275613
0.51264949482
0.510849553596
0.508988875933
0.507011195465
0.504968211509
0.502937774505
0.501029489396
0.499542990999
0.500050716676
0.49981631354
0.499913285851
0.500199478128
0.500547689574
0.50090401004
0.50124702622
0.501566795677
0.501859729848
0.5021243227
0.502360379844
0.502567031696
0.502744676767
0.502893240456
0.503013664094
0.503106785642
0.503174221477
0.503217701889
0.503239671234
0.50324168751
0.503226377873
0.503195281511
0.503150904009
0.503093600413
0.503024966844
0.502944319948
0.502852750824
0.502749600387
0.502634923346
0.502507594235
0.502367699739
0.502214425908
0.502047409038
0.501865624425
0.501669559486
0.501458611092
0.501233174037
0.500993030892
0.500738706092
0.500470087929
0.500188107163
0.499893500824
0.499587648206
0.499272208047
0.498949277359
0.498621469448
0.498291950249
0.497964121101
0.49764236878
0.497331565138
0.497039050705
0.496769564239
0.496525734876
0.496310218237
0.496126631305
0.495978511597
0.49586938857
0.495804657825
0.495789979798
0.495827161337
0.49591741889
0.496062890184
0.496263417428
0.496516169599
0.49682181705
0.497180931866
0.497592498859
0.498055400985
0.498568103588
0.499129109981
0.499736155973
0.500386903806
0.501077939327
0.501805725296
0.502566242058
0.503354977431
0.504166959753
0.504996999566
0.50583961634
0.506690681061
0.507546781508
0.508403599344
0.509256279212
0.510102191181
0.510942189255
0.511770309696
0.512579392582
0.513379029681
0.514190694587
0.514997277883
0.515770002644
0.516544453586
0.517362952075
0.51819728228
0.518963473494
0.519657026431
0.520387417362
0.520972285955
0.521554904946
0.522172970069
0.522764513221
0.523487725747
0.523994797595
0.524549186931
0.5250566567
0.525530327922
0.525770946149
0.525937250926
0.52608522945
0.52626168518
0.52646308867
0.526670537307
0.526880586773
0.527091010342
0.527301528856
0.527512169959
0.527724218775
0.527939360887
0.52815809014
0.528377473073
0.528593468896
0.528804067304
0.52900906292
0.529210053167
0.529408887556
0.529606419986
0.529803266703
0.529999771683
0.530196325614
0.53039305046
0.53059001584
0.530787209621
0.530984722963
0.53118255985
0.531380914618
0.531580062516
0.531780665247
0.531983583364
0.532189491236
0.532397922016
0.532608442408
0.532822143904
0.533039363394
0.533259817183
0.533482637866
0.533707379517
0.533934404337
0.534164649138
0.534399285925
0.534639276023
0.534885673821
0.535139613803
0.535402231664
0.535674139409
0.535955133517
0.536244324072
0.536539683696
0.53683858105
0.537137416416
0.537432899277
0.537720033246
0.537993262017
0.538247167472
0.538477693196
0.538681131017
0.538854503202
0.539001512875
0.539114507265
0.539194446448
0.539243053849
0.539258785796
0.539234416784
0.539159587287
0.539029781998
0.538775557576
0.538488928635
0.538149538183
0.537767441041
0.537387483273
0.53698960081
0.500416313705
0.50034062894
0.500379608208
0.500505483252
0.500641700562
0.500756281916
0.500857392427
0.500952708996
0.501047374854
0.50114203881
0.501235885426
0.501326741944
0.501412381215
0.501490495476
0.501559385996
0.501617678838
0.501664756718
0.501700242223
0.501724500124
0.501737960785
0.501741531001
0.501735229357
0.501720616985
0.501697332923
0.501665808306
0.501625317003
0.501576110654
0.501516972523
0.501447565537
0.50136660544
0.501273633776
0.50116728779
0.501047318448
0.500912769744
0.50076340884
0.500598787278
0.50041941343
0.500224768285
0.500015440852
0.49979172688
0.499554520933
0.499304821237
0.499044125991
0.498774260161
0.498497458043
0.498216322632
0.497933985365
0.497653852629
0.497379775387
0.497115889502
0.49686815452
0.496642761736
0.496446459145
0.496283563192
0.496157414098
0.496070649088
0.496025465769
0.496021651858
0.496058207246
0.496136554525
0.496259255427
0.496428352034
0.496648528438
0.496923514648
0.497253628651
0.497640967329
0.498087221018
0.498592842806
0.499156610617
0.499776348809
0.500448461798
0.501168506774
0.501931233561
0.502730970602
0.503561821255
0.504417778125
0.505292951713
0.506181418064
0.507077483929
0.507975569343
0.508872588247
0.509764584879
0.510646047535
0.511513065425
0.512368322803
0.513212319779
0.514029826941
0.514817100993
0.515597651519
0.516381524283
0.517135414274
0.517832160119
0.518548258585
0.519261473525
0.519938432266
0.520582862767
0.521170156164
0.521603676593
0.52211376671
0.522814858269
0.523588968338
0.524121582971
0.524372708211
0.524635036855
0.52474551942
0.524907203637
0.525229291875
0.525713127982
0.526182659921
0.52659312885
0.526961470083
0.527296901605
0.527609377053
0.527904536714
0.528186412478
0.528457812169
0.528721534722
0.528979829055
0.529233365646
0.529479819087
0.529716727504
0.529943489333
0.530161441419
0.530372838391
0.530578806269
0.530780023607
0.530976891622
0.531169687261
0.531358633008
0.531544109904
0.531726674991
0.531906891681
0.532085145727
0.532261726393
0.53243695199
0.532611277366
0.532785308708
0.532959402464
0.533133561309
0.533306389789
0.533477587628
0.533648011218
0.533818873544
0.533989941152
0.534159827873
0.534327463459
0.534492418215
0.534654777021
0.534814516313
0.534971578246
0.535125860501
0.535277448743
0.535426274143
0.535572404125
0.535716112245
0.53585793302
0.535998607516
0.536139298528
0.536281175252
0.536425893952
0.536575102622
0.536730414619
0.536893424916
0.537065872609
0.537248990856
0.537444290639
0.537654417515
0.537879880404
0.538117608865
0.538364711101
0.538616170419
0.53886155174
0.539087564757
0.539267918255
0.539375522397
0.539392444954
0.539301571672
0.539100773807
0.538840245059
0.538672845519
0.500870183163
0.500764686593
0.500530138091
0.500416004459
0.500364272742
0.500324543035
0.500303075123
0.500302892815
0.500324572075
0.500366043045
0.500423950425
0.500493820217
0.500571841893
0.500654177713
0.500737862952
0.500820271312
0.500899591471
0.500974393278
0.501044116588
0.501107709904
0.501165499684
0.50121713762
0.501262778227
0.501301763044
0.501334469918
0.501359502442
0.501376564203
0.501384363181
0.501382151372
0.501368320537
0.501342042136
0.501302013101
0.501247424523
0.501176956163
0.501090690806
0.50098769729
0.500868044357
0.500731577062
0.500578846856
0.500410097752
0.500226463411
0.500029145621
0.499819977598
0.499601166989
0.499375380414
0.499145734495
0.498915900564
0.498689630402
0.498471296316
0.498265600386
0.498077116097
0.497909318036
0.497767846413
0.497657517988
0.497582810182
0.497547470585
0.497554961774
0.49760697605
0.49770216493
0.497837845834
0.498013468006
0.49823021875
0.498491230494
0.498800716038
0.499163523405
0.499582854783
0.500060546512
0.500597489681
0.50119331028
0.501846182413
0.502552891242
0.503308683548
0.504107447907
0.504942702006
0.505807510867
0.506693997036
0.507595131267
0.508505549945
0.509418223853
0.510326346089
0.511227431667
0.512121741657
0.513000597551
0.513853939232
0.51468918515
0.515513352864
0.516311524374
0.51704967614
0.517773798325
0.51849424469
0.519176824265
0.519804742835
0.520390572
0.520956233747
0.521471694521
0.521988113422
0.522566607086
0.523200713097
0.523939512321
0.524641735351
0.525117429334
0.525290828744
0.525397044454
0.52554641084
0.525689098581
0.525981665305
0.526467446686
0.527078259558
0.527667753636
0.528178212085
0.528617394559
0.529000773132
0.529343592962
0.52965610462
0.529945518971
0.530217090884
0.530475057609
0.530722711328
0.530960996506
0.531188764657
0.531404844447
0.531610181011
0.531807700002
0.53199958074
0.532186845442
0.532369975393
0.532549385731
0.532725505334
0.532898843759
0.533069907818
0.533239466723
0.533408074447
0.533575980612
0.533743521506
0.533911124489
0.53407938485
0.534248772809
0.534419269994
0.534589929383
0.534759162586
0.534926406309
0.535093155256
0.535261278258
0.53543078258
0.535600556871
0.535769668303
0.535937832097
0.536105192226
0.536271989083
0.536438498121
0.536604923519
0.536771476403
0.536938039219
0.537104505423
0.537270779821
0.537436732577
0.537602077506
0.537766298652
0.53792873844
0.538088680921
0.538245689799
0.538399252561
0.538548895581
0.53869474287
0.538837373557
0.538978171576
0.539120616287
0.539267084161
0.539419655149
0.539581692964
0.539754889068
0.539937253842
0.540124485447
0.540307472444
0.540467008902
0.540595655786
0.540681941993
0.540729485103
0.540795302579
0.541008887309
0.501391644849
0.50081317872
0.500207918196
0.499984857153
0.499911790128
0.499864256936
0.499836745013
0.499829707607
0.49984570891
0.499883594764
0.499941574993
0.500016409102
0.500104862067
0.500203237127
0.500308595398
0.50041789944
0.500529147915
0.500640088897
0.500749591614
0.500856528911
0.500960384888
0.501059943187
0.501155529499
0.501245947628
0.501330739693
0.501408849087
0.501479676025
0.501541551436
0.501593568513
0.501634102911
0.501662155997
0.501675998075
0.501674993764
0.501657958898
0.50162432957
0.501573337933
0.501505258731
0.501419482995
0.501316545987
0.501196755706
0.501061133384
0.50091075901
0.500747390318
0.500573025657
0.500390213885
0.500201719504
0.500010944461
0.499821453402
0.499637090622
0.499462295977
0.499303040607
0.499163504926
0.499048896617
0.498964256426
0.49891356541
0.498900283507
0.498928227673
0.498999921353
0.499115847508
0.499277488927
0.499486035941
0.499741983302
0.500046145703
0.500399484097
0.500804162787
0.501263293557
0.501779514447
0.502354553142
0.502988212372
0.503679041059
0.50442385935
0.505217895849
0.506053825972
0.50692541596
0.507825576731
0.508745367574
0.509675741624
0.510612941425
0.511552852418
0.512482237756
0.513394283133
0.514298483744
0.51518778185
0.516043083951
0.516875235577
0.517697761714
0.518489685797
0.519230967603
0.519913073952
0.520571330406
0.521223339037
0.521817316408
0.522392964556
0.522934385034
0.523496152836
0.524164206036
0.524889347591
0.525595268931
0.526200541843
0.526572411729
0.526695186626
0.526690122542
0.526757683272
0.526925300013
0.527176339269
0.527560220686
0.528054784675
0.528599466516
0.52911892649
0.529581198398
0.529985632453
0.530340901956
0.530658180827
0.530946406491
0.531212467127
0.531461626821
0.531698048198
0.531924520998
0.532141592938
0.532348298104
0.532544116515
0.532730855002
0.532911500769
0.533087777613
0.533260191151
0.533428809746
0.533593720504
0.533755129285
0.533913389346
0.534068909262
0.534222042212
0.534373126066
0.534522574717
0.534670769258
0.534818281613
0.534965793582
0.535113623627
0.535261289726
0.535407015352
0.535549159048
0.535687279221
0.535823787555
0.53596101414
0.536099433577
0.536238370876
0.536377030706
0.536515181567
0.536652913651
0.53679047887
0.536928165767
0.537066157301
0.537204601193
0.537343653891
0.537483409843
0.537623949427
0.537765213327
0.537907161277
0.538049761616
0.538192860295
0.538336280619
0.53848012229
0.538624451381
0.538769407608
0.538915504127
0.539063243966
0.539213630672
0.539368975241
0.5395304454
0.539698535132
0.53987479036
0.540058604185
0.540246798552
0.540435884273
0.540619014837
0.540785194876
0.540931686739
0.5410608456
0.541191589459
0.541390394845
0.541771068589
0.501877205675
0.500276641572
0.499440383026
0.499408115331
0.499495304036
0.499537252333
0.499558548325
0.499577852077
0.49960878631
0.499656834186
0.499724041627
0.499808499687
0.499908395583
0.500020386767
0.500142095038
0.500270469235
0.500403577971
0.500539161631
0.500676095317
0.500812426428
0.500947826982
0.501081171313
0.50121178378
0.501338565708
0.501461295533
0.501578234681
0.501688586336
0.501790768398
0.50188364431
0.501965403229
0.502034873993
0.502090532021
0.502131352434
0.502155905424
0.502164030948
0.502154731232
0.502127973673
0.502083557295
0.502022080246
0.501943832766
0.501850098492
0.501742059516
0.501621689545
0.501491070361
0.50135285656
0.501209791706
0.501065254502
0.500922438921
0.500785124254
0.500657672379
0.500545884697
0.500453952637
0.500387613406
0.500352129595
0.500352249204
0.500392215021
0.500475939258
0.50060288696
0.500771732311
0.500981760171
0.501233241595
0.501526547088
0.501863338059
0.502244869555
0.502675547393
0.50315911908
0.50369944643
0.504299144764
0.504958353061
0.505674646527
0.50644601889
0.507266936562
0.508128678533
0.509022807722
0.509945300424
0.510886274809
0.511831852763
0.512776314065
0.513723117651
0.51466239659
0.515568903545
0.516477282833
0.517369942275
0.518232438349
0.519052276404
0.519824222631
0.52056990034
0.521282406107
0.521961987941
0.522627533341
0.523237622765
0.523837074405
0.524502267865
0.525173888353
0.525859525292
0.526527525895
0.527114444022
0.527577795507
0.527893697763
0.528025295794
0.528042343067
0.528073443974
0.528209436046
0.528441205334
0.528754536163
0.529149213171
0.529595353539
0.530056507009
0.530497680709
0.530902657196
0.53126780543
0.531595903285
0.531892725877
0.532164025534
0.532414836034
0.532649381129
0.532871140975
0.533082096846
0.533282546555
0.533471655486
0.533649581842
0.533818786599
0.53398200253
0.534140758915
0.534295462123
0.534446150072
0.534592860075
0.534735786674
0.534875271526
0.535011771875
0.535145794828
0.535278017319
0.53540902839
0.535539371487
0.535669754692
0.535800902968
0.535932958661
0.536064791726
0.536194313248
0.53631946993
0.536440331519
0.536559458231
0.536679161718
0.536800141464
0.536921853158
0.537043671171
0.537165309247
0.53728677753
0.537408220932
0.537529638943
0.537651111019
0.537772700611
0.537894480022
0.5380165927
0.538139113661
0.538262142185
0.538385729399
0.53850994163
0.538634749774
0.538760168291
0.538886430025
0.539013738928
0.539142459278
0.539273304991
0.53940714822
0.539545231077
0.539689799584
0.539842142927
0.540002976336
0.54017388092
0.540354108766
0.5405407636
0.540731268848
0.540920663846
0.541100165124
0.541269486959
0.541434728621
0.541619381785
0.541886639571
0.542324895048
0.502168682661
0.499108293423
0.498449134519
0.498916104137
0.499222272788
0.499360724453
0.499434816039
0.499491267909
0.499555122557
0.499633555768
0.499729969224
0.499842844671
0.499970953316
0.500111123084
0.500261521898
0.500419162873
0.500582565233
0.500749223382
0.500918144537
0.501087862449
0.50125759546
0.501425785129
0.501592404981
0.501755949785
0.501915682536
0.502070392144
0.502219211955
0.502360346456
0.502492744036
0.502614657156
0.502724956195
0.502821867894
0.502904636413
0.502972060181
0.503023508408
0.503058264543
0.503076555369
0.503077925844
0.50306306567
0.503032447718
0.502987350199
0.502928959812
0.502859207905
0.502779983961
0.502693697904
0.502602525839
0.502509314383
0.502416618171
0.502327156991
0.502244253618
0.502174427082
0.502121216246
0.502091038721
0.502091246927
0.502128401818
0.502208568032
0.502335129508
0.502504999929
0.502716606965
0.502968217252
0.50325895963
0.503586663267
0.50395203298
0.5043574264
0.504810123843
0.505314252495
0.505875375447
0.506497841956
0.507181350956
0.507921889459
0.50871644476
0.509562304701
0.510446802405
0.511355964966
0.512286963875
0.513234000717
0.514182096704
0.515125364509
0.516073240121
0.517008134212
0.517920725099
0.518796064467
0.519629566695
0.520446164155
0.521234877619
0.521983668906
0.522690658445
0.523356243528
0.524017955231
0.524700633729
0.525361608638
0.526034992037
0.526711368533
0.527345869235
0.527937202075
0.528439527617
0.528827325121
0.529092025086
0.529254051856
0.529329404436
0.529394409848
0.529520268385
0.529728395559
0.530000205583
0.530323200714
0.530687792663
0.531075036789
0.531465757964
0.531842642242
0.532196011981
0.532521653077
0.532819465208
0.533091793515
0.533341938845
0.533573336356
0.53378937224
0.533992777662
0.534185086378
0.534366367065
0.534536149253
0.534695254178
0.53484611751
0.534991247984
0.535131985205
0.535268772069
0.535401678829
0.535530784194
0.535656286683
0.535778553282
0.535898077464
0.536015394975
0.536131017668
0.536245418688
0.536359214896
0.536473184458
0.536588051768
0.536703703484
0.536818601764
0.53693038326
0.537037049211
0.537139194172
0.537239336016
0.537339774808
0.53744119529
0.537543233064
0.537645477273
0.537747779064
0.537850275551
0.537952998619
0.538056039339
0.538159414744
0.538263196051
0.538367450892
0.53847223534
0.538577653913
0.53868384035
0.53879088205
0.538898870806
0.539007825087
0.539117859237
0.539229275456
0.539342393103
0.539457632369
0.539575866671
0.539698117102
0.53982564626
0.539960583941
0.540104168748
0.540257202796
0.540421189338
0.540595553639
0.540777828871
0.540966458175
0.541158309629
0.541347288292
0.541535199195
0.54173089145
0.541959799698
0.542278268496
0.542752065433
0.502153220429
0.497478172245
0.497541260296
0.49864327275
0.499085353877
0.499288869361
0.499416811927
0.499527834801
0.499646212344
0.499776851593
0.499922973667
0.500082099956
0.500253959201
0.500435461295
0.500625648369
0.500821736446
0.501022742726
0.501226467685
0.501432329456
0.501638354596
0.501844317139
0.502048836988
0.502251236884
0.502450418165
0.502646133033
0.50283667346
0.503021379835
0.50319877645
0.503367879807
0.50352702949
0.503675257041
0.503811208778
0.503934031134
0.504042549459
0.504136667296
0.504215588233
0.504279409605
0.504328114049
0.504362393929
0.504382674953
0.50439031614
0.504386423908
0.504372739153
0.504350820742
0.504322469611
0.504289141915
0.504252364376
0.504213392012
0.50417367124
0.504134908658
0.504102356176
0.504082162407
0.504082446573
0.504114981723
0.50419162952
0.50432278518
0.504508943239
0.504743412488
0.505022051542
0.505339800788
0.50568968713
0.506064168796
0.506458483604
0.506882279678
0.50734433595
0.507852618075
0.50841496824
0.509040351499
0.509732080691
0.510482000929
0.511282521128
0.512134431686
0.513027454638
0.513935170001
0.514872309994
0.515825000308
0.516770706155
0.517701713976
0.518606301506
0.51947930208
0.520341330931
0.521179494126
0.521980928679
0.522745208888
0.523468190049
0.524154139384
0.524825155933
0.525501315497
0.526185897113
0.526863757107
0.527503657846
0.528127857312
0.528701011323
0.529210055168
0.529655092083
0.530011529909
0.530275758221
0.530455141993
0.530582726638
0.530689644185
0.530826666154
0.531018059168
0.531258647127
0.531533739204
0.531835369902
0.53215707487
0.532489281063
0.532821874135
0.53314512277
0.533452312402
0.533739535654
0.534005507082
0.534250829464
0.534477205977
0.534686981732
0.534882753994
0.535066603428
0.535239599844
0.535401671678
0.535552592872
0.535693465405
0.535826552886
0.535953994681
0.536077016936
0.536196122004
0.536311457432
0.536423139286
0.536531362372
0.536636465575
0.536738888838
0.536839119721
0.536937637245
0.537034989251
0.537131857211
0.537229144719
0.53732750102
0.5374265151
0.537524414521
0.537618672581
0.537707728645
0.537792420524
0.537875150544
0.537957975935
0.538041514729
0.538125579193
0.538209897282
0.53829449436
0.538379467659
0.538464921206
0.538550892956
0.538637358205
0.538724347394
0.538811899151
0.538900103397
0.538989080326
0.539078991441
0.539169967766