/*--------------------------------*- C++ -*----------------------------------*\
| =========                 |                                                 |
| \\      /  F ield         | OpenFOAM: The Open Source CFD Toolbox           |
|  \\    /   O peration     | Version:  v1806                                 |
|   \\  /    A nd           | Web:      www.OpenFOAM.com                      |
|    \\/     M anipulation  |                                                 |
\*---------------------------------------------------------------------------*/
FoamFile
{
    version     2.0;
    format      ascii;
    class       volScalarField;
    location    "12";
    object      sensitivity;
}
// * * * * * * * * * * * * * * * * * * * * * * * * * * * * * * * * * * * * * //

dimensions      [0 2 -3 0 0 0 0];


internalField   nonuniform List<scalar> 
12225
(
-2.4022358679
-9.37472822744
-5.73064609718
-7.09788465913
-6.67350879645
-6.98149408313
-7.11004405338
-7.35302636581
-7.56208686147
-7.69446516292
-7.68249207316
-7.49876399139
-7.18295470173
-6.99829645375
-7.61460200553
-10.1641222521
-15.0581254284
-17.9303049865
-19.2331486689
-6.84652800969
-9.21141745736
-8.57285870812
-9.22476644082
-9.65053994317
-10.3030874496
-10.9765736862
-11.6361867452
-12.2215003272
-12.7187234151
-13.1210493891
-13.4842240527
-14.0872964404
-15.540275674
-18.5856746645
-22.6595198161
-22.9621257741
14.0257527503
-12.4609585465
-7.04201874206
-8.68549602105
-8.37977575838
-8.71668278115
-8.94462941137
-9.18931796395
-9.36979585435
-9.46258158629
-9.4636405726
-9.40012994793
-9.38898602739
-9.75419663062
-11.0660486852
-13.8179438321
-17.1497336089
-17.5266088658
-18.6338591248
-10.0309034234
-8.65682124913
-9.19628525864
-9.24873028705
-9.59312177788
-9.9164997762
-10.2693538137
-10.5666327638
-10.7709613533
-10.85041162
-10.8166802984
-10.7724879656
-10.98451819
-11.8656456885
-13.6128137009
-15.3172778756
-14.8542777707
-1.63938049393
-8.97998249505
-8.38667974292
-8.68053766854
-8.76887263576
-9.00956497082
-9.29692548891
-9.60752071173
-9.89935020993
-10.1378390498
-10.3029551586
-10.4114903461
-10.5597067232
-10.9541051609
-11.8338908507
-13.1344376687
-14.0177017596
-13.3133493757
-8.63003679914
-9.74091658712
-8.79421205946
-9.19839813191
-9.21420826132
-9.39958208224
-9.59469860451
-9.80462338011
-9.99419802133
-10.1448334446
-10.2506320757
-10.3412944167
-10.5086791211
-10.9061500662
-11.6440696791
-12.534159834
-12.9296128131
-12.2440721028
-7.78288617608
-9.31406612608
-9.06507910166
-9.29156595529
-9.370067223
-9.51740299818
-9.68850665996
-9.86059457437
-10.0147469186
-10.1363382713
-10.2272978293
-10.3214030396
-10.4966847376
-10.8534117383
-11.4130878944
-11.9618534147
-12.0637102189
-11.4588933491
-8.59992456656
-9.39358423283
-9.30031238849
-9.46405225057
-9.54978805391
-9.65951873651
-9.79470568737
-9.92510343058
-10.0420003969
-10.1354333508
-10.2121945129
-10.3047984941
-10.4717633809
-10.7660651759
-11.1562024609
-11.4531952445
-11.3904777189
-10.871575292
-9.16081335547
-9.44418632358
-9.52766879411
-9.61987211242
-9.71562586826
-9.79342006997
-9.89816418125
-9.99268768162
-10.0771359818
-10.1452821788
-10.2065869523
-10.2889507963
-10.4309294996
-10.6505522282
-10.8939057914
-11.016336869
-10.8672293809
-10.4228671443
-9.65939611943
-9.52262027187
-9.7332185676
-9.76561819837
-9.8642765058
-9.91523414299
-9.99307813442
-10.0568684746
-10.1130343417
-10.1582083178
-10.2022857638
-10.266690651
-10.3727140569
-10.5165611078
-10.6420550167
-10.6487718321
-10.4579266144
-10.0747031257
-10.1120715922
-9.5932770604
-9.91098791781
-9.8879874533
-9.98618447908
-10.0154807876
-10.0710445512
-10.1099651956
-10.1426356215
-10.1675720639
-10.1934823227
-10.2348955505
-10.300090123
-10.3744576926
-10.4098681014
-10.341864392
-10.132939834
-9.79770324512
-10.384120592
-9.66055316652
-10.0134679964
-9.95779097553
-10.0486376623
-10.0637452385
-10.1022887675
-10.1233229935
-10.1384988644
-10.1475163356
-10.1566360898
-10.1748714186
-10.2031630683
-10.2238813822
-10.1997278377
-10.0899503896
-9.8776975911
-9.57924006163
-10.5315004217
-9.72365380726
-10.0710763972
-9.99722588274
-10.0774666683
-10.0825807
-10.107418179
-10.1150239453
-10.1162898838
-10.1113906047
-10.1043996326
-10.1006438446
-10.0959255721
-10.0739037951
-10.0072554567
-9.87163352812
-9.66215870597
-9.39411895095
-10.6262914833
-9.77270589848
-10.0993430203
-10.0124425285
-10.0768886074
-10.0721302934
-10.0825354053
-10.0770599588
-10.0644432645
-10.045536166
-10.0223065433
-9.99635939462
-9.96183133956
-9.90477528414
-9.80707257172
-9.65607774811
-9.45390519719
-9.21488023979
-10.6875565425
-9.81405133881
-10.1145671442
-10.0202147004
-10.0647852275
-10.0491109808
-10.0430869428
-10.0234103782
-9.99578700689
-9.96164828602
-9.92079523658
-9.87348402856
-9.81328652147
-9.72980461938
-9.61207919891
-9.45483648645
-9.26378244119
-9.05149678182
-10.6746748247
-9.84770846625
-10.1091427209
-10.0173148518
-10.041706095
-10.0162312533
-9.99413103557
-9.96060235764
-9.91766909183
-9.86813331676
-9.81025198249
-9.74397477334
-9.66364802565
-9.56257972462
-9.43469596988
-9.27876844781
-9.10177290794
-8.91415554854
-10.6069539611
-9.85001808108
-10.0747694198
-9.99047725095
-9.99703302314
-9.96348706173
-9.92726428294
-9.88110255318
-9.82438806565
-9.76073041665
-9.68796953034
-9.60639672027
-9.51215369024
-9.40122054438
-9.27067832964
-9.12134585539
-8.95988935095
-8.79486329435
-10.4656763205
-9.84053796802
-10.0054846411
-9.93717130359
-9.92689967399
-9.88842614611
-9.84095661412
-9.7851799047
-9.71769229753
-9.64327985694
-9.55971153339
-9.46818342185
-9.36628194291
-9.25188840511
-9.12382537014
-8.98376173968
-8.83773280037
-8.69246517083
-10.3125622189
-9.83029851899
-9.93080105851
-9.87934129972
-9.85354228653
-9.81101468477
-9.75489609983
-9.69173124391
-9.61657051072
-9.53494780132
-9.44484502298
-9.34825045316
-9.24374824775
-9.13033234954
-9.00767107179
-8.87770722271
-8.74575246883
-8.61732967954
-10.2801496933
-9.79620896697
-9.90709073691
-9.84384066159
-9.81934395719
-9.77060433462
-9.71132243043
-9.643385888
-9.56487103771
-9.48006111511
-9.38758185356
-9.28991679063
-9.18584613914
-9.07511398418
-8.95753286723
-8.83493487551
-8.71239671635
-8.59475723626
-10.3373652066
-9.80487461182
-9.92974004138
-9.85540122631
-9.83147770878
-9.77797310075
-9.71621887164
-9.6454502519
-9.56483549515
-9.47820727343
-9.38459826016
-9.2863248264
-9.18318202395
-9.07457270132
-8.96052620644
-8.84277656716
-8.72557874955
-8.61238603344
-10.3143563926
-9.78520137536
-9.98908329369
-9.90341781125
-9.88679501211
-9.82853228311
-9.76582772805
-9.69243304676
-9.61130341483
-9.52436438792
-9.43166468576
-9.33524278669
-9.23497029514
-9.13089041463
-9.02316300256
-8.91295184993
-8.80532573093
-8.70640376357
-10.9070034299
-9.9533235721
-10.0000228585
-9.92072946832
-9.90107046737
-9.83902118123
-9.77497369312
-9.69968734314
-9.6165596597
-9.52705579658
-9.43016044124
-9.32985721865
-9.22654739744
-9.11944312509
-9.00776576312
-8.89241619466
-8.77462085623
-8.65270539321
-8.89384323762
-9.48806485755
-10.3360882359
-10.1563760935
-10.169882163
-10.0937854729
-10.0299245709
-9.95208989565
-9.8706854175
-9.7849104819
-9.69772986215
-9.60721361157
-9.5140890526
-9.41972535434
-9.32464556237
-9.22926206885
-9.14019702138
-9.0579368441
-16.1887004603
-10.8036709705
-9.8039990117
-9.88538785631
-9.80416373172
-9.73980253092
-9.66457726532
-9.58298953557
-9.4971997047
-9.40612566861
-9.3080556627
-9.20967067614
-9.10945083938
-9.00625700782
-8.90093176415
-8.79553486284
-8.69007616211
-8.61527802916
4.4732680514
-8.92320510926
-11.0031137227
-10.6344265949
-10.7321918308
-10.6211984501
-10.5753270327
-10.4974960659
-10.4191351476
-10.3284242814
-10.225160798
-10.1073593264
-9.97838548603
-9.83775604243
-9.68791472938
-9.53115815463
-9.37381533674
-9.15191601801
-41.1131776897
-10.0344613584
-10.3726514225
-9.93593772725
-9.91120740017
-9.82015689429
-9.72755725103
-9.64290669866
-9.5599406586
-9.48337516822
-9.41654153087
-9.35705955441
-9.30714450531
-9.27369389776
-9.26230731787
-9.27443786548
-9.30040804661
-9.38146020276
31.214206227
-15.2930898677
-9.25758691321
-11.0896804524
-10.5573653
-10.5410602571
-10.437034096
-10.3257948367
-10.212730369
-10.0875516166
-9.95592650555
-9.82135668768
-9.68465263779
-9.54632845304
-9.40632539287
-9.26268950161
-9.11405338875
-8.90209916849
-37.7341618989
-5.37467930574
-13.0263246782
-10.5717020204
-11.2654847941
-10.9758756227
-10.9880146953
-10.9160372199
-10.8660226562
-10.8123793826
-10.7588449897
-10.699821977
-10.6289382998
-10.5410721056
-10.4350225046
-10.3089969807
-10.1504377995
-10.0130238559
-5.8439359888
-8.69004939261
-7.35240343629
-7.54272289756
-7.33153149468
-7.23233196817
-7.09558488229
-6.97793261783
-6.86233460967
-6.75172122391
-6.64316035997
-6.53690358507
-6.43086131355
-6.31706312525
-6.18981566644
-6.05894372172
-5.96608793093
-5.91873490376
-0.0156760080043
-0.0202376900874
-0.0103774003309
0.00691301691196
0.00568259383665
-0.0252904639388
-0.0545867524661
-0.0863899988859
-0.122641560007
-0.162539542764
-0.204059216314
-0.244956714209
-0.283349194356
-0.317942589932
-0.348105214395
-0.373689126551
-0.395012861828
-0.412537856605
-0.426926150849
-0.438779365417
-0.448750949679
-0.457295403349
-0.464869317575
-0.471740124265
-0.478081446273
-0.48395528359
-0.489335132651
-0.494091267856
-0.497955006934
-0.500653683254
-0.501782554785
-0.50096119064
-0.497702135221
-0.491632887807
-0.482269882723
-0.469240692831
-0.4522044255
-0.430874633018
-0.404981606582
-0.37435904816
-0.338886793723
-0.29851378754
-0.25324639296
-0.203151158888
-0.148344359232
-0.0890047490866
-0.0253623052517
0.0422730999462
0.113577895367
0.188187003856
0.265689943917
0.345687029736
0.427713505882
0.51137599451
0.596267460131
0.682162157173
0.768679848677
0.855611869337
0.9425463393
1.02927117012
1.11534661397
1.20001033821
1.28213767516
1.35889166366
1.42813301073
1.49169543648
1.55049285099
1.60493494532
1.655502439
1.70236306444
1.7457764252
1.78583611842
1.82268125839
1.85635283359
1.88673525176
1.91379667927
1.93726737664
1.95707418597
1.97298264507
1.98496996122
1.99293073096
1.99716338531
1.99770024178
1.99497985973
1.98927539237
1.98070724855
1.96964255497
1.9548272111
1.9361830693
1.91218090323
1.88018532052
1.83956221176
1.79058370173
1.73297416659
1.66511594576
1.58433342108
1.48931329818
1.38094925961
1.26092158632
1.13043801758
0.985325610525
0.824195255301
0.641227902402
0.431194999593
0.253725817605
0.0983582137475
-0.0626019021458
-0.170607552293
-0.151830316219
-0.184523002918
-0.22000556413
-0.253279619084
-0.283663142268
-0.311191798566
-0.33591092105
-0.357996264344
-0.377710307372
-0.395252912324
-0.41073536757
-0.424186877731
-0.435527441584
-0.44475975924
-0.451951890317
-0.457220456292
-0.460596574384
-0.462043077255
-0.461495353934
-0.459018776814
-0.454912674352
-0.449859333077
-0.44412923952
-0.437917088249
-0.431366305716
-0.424729922385
-0.418184309516
-0.411932813694
-0.406135285116
-0.400923742894
-0.39634509002
-0.392388526351
-0.388979987016
-0.385972937003
-0.383225703931
-0.380583329667
-0.377912453763
-0.375090780487
-0.371983593227
-0.368435179525
-0.364341508512
-0.359682621076
-0.354536836619
-0.349023371203
-0.343203998493
-0.337029265628
-0.33050765427
-0.32372764284
-0.316735253285
-0.309506411976
-0.302042272388
-0.294496709251
-0.287199435275
-0.280390366931
-0.27400473655
-0.267834100008
-0.261781117124
-0.255812487394
-0.249890821111
-0.243883511671
-0.237764964859
-0.231665040904
-0.226212768146
-0.221230705503
-0.217387540272
-0.216534838352
-0.219523587831
-0.225794211131
-0.231952891548
-0.232838551258
-0.224344645831
-0.167037900408
0.00107066737961
-0.00150765981374
-0.0601391349742
-0.0971211132146
-0.104931623728
-0.0949294269482
-0.0748974816328
-0.0517561689332
-0.0285877721329
-0.00676724930249
0.0131565532556
0.0311953554671
0.0476220870193
0.0629496619428
0.0777846566276
0.0928717868627
0.108937439178
0.126755776641
0.14697605294
0.170233886822
0.196967785535
0.227521099667
0.262078502015
0.300727450375
0.343401209603
0.389967828675
0.440234349305
0.493941697423
0.550851956892
0.610693330368
0.673267931062
0.738322381535
0.805705225934
0.875265515037
0.946890203797
1.02045753645
1.09590942472
1.17317832774
1.25221837648
1.33301002334
1.41551941488
1.4997250994
1.58558332419
1.67305496566
1.76207190017
1.85255360314
1.94437286551
2.0373698894
2.13132887878
2.22600581959
2.32112477848
2.41642944265
2.51164486995
2.60653097175
2.70073443051
2.79388561987
2.88551854516
2.97520364465
3.06241387842
3.14658957022
3.2272702849
3.3043335057
3.37852013955
3.45269363193
3.52494841724
3.59042721376
3.64696772607
3.69319817098
3.72824492854
3.75153831098
3.76289693679
3.76240152169
3.75033421746
3.72717358439
3.6933685107
3.64936453641
3.59544809789
3.53179514159
3.45831821978
3.37487884034
3.28126751401
3.17748021442
3.0637259533
2.94079252733
2.80990447149
2.67288720086
2.53141080425
2.38773444612
2.24345937682
2.09920219487
1.95609718062
1.81425139538
1.67283678592
1.53081542621
1.3897742934
1.25409489567
1.12604488219
1.0005843046
0.865239160258
0.707046467995
0.542285394366
0.398727470752
0.273482941896
0.132353703457
-0.0614258283878
-0.277969994772
-0.306578590198
-0.33315026643
-0.373658960807
-0.43808598488
-0.496649407024
-0.549994240026
-0.598270397657
-0.642186195788
-0.681865458158
-0.717625896586
-0.749807366499
-0.778727646412
-0.804700834026
-0.827923075083
-0.848565037695
-0.866896779705
-0.883377160765
-0.898486215053
-0.912655422352
-0.926246927783
-0.939644267151
-0.953239009858
-0.967265959334
-0.98145830346
-0.995949477201
-1.01067359453
-1.02554049797
-1.04023126175
-1.05449525519
-1.06804352991
-1.08054601327
-1.0916362617
-1.1009410747
-1.10810378937
-1.11276524934
-1.11459666915
-1.11343985779
-1.10932868953
-1.10244378846
-1.09296755376
-1.08107859897
-1.06699092877
-1.05096056227
-1.03323059066
-1.0140016325
-0.993362643177
-0.971440743104
-0.948531444926
-0.924983505468
-0.901036596536
-0.876907298955
-0.852838289251
-0.829233172462
-0.806605537259
-0.785411167138
-0.766013859139
-0.748919951268
-0.734705218355
-0.723941770972
-0.716921753174
-0.713521663566
-0.713428052693
-0.714891768408
-0.71662678616
-0.71793785587
-0.719585502218
-0.722027345866
-0.725592803304
-0.729407557611
-0.730685340236
-0.721459285025
-0.694750341454
-0.64851372088
-0.58890921177
-0.0254827946511
-0.0968356037994
-0.113179949392
-0.0770949250827
-0.0158479859733
0.0475463033239
0.101876236002
0.144981527907
0.178870706282
0.206589605948
0.230668345447
0.252931546567
0.274566450933
0.296340665263
0.318715991306
0.34197836569
0.366255712329
0.391609388498
0.41801848332
0.445421958554
0.473720595145
0.50283997821
0.532660180993
0.563102229921
0.594110747698
0.625653722831
0.657727707243
0.690374427039
0.723687867852
0.757780018293
0.792815384692
0.828978058562
0.866487771009
0.90551717873
0.946301841842
0.989023932209
1.03383586188
1.08087292706
1.13024257818
1.18198946707
1.23610852374
1.29254115298
1.35115901067
1.4117830537
1.47416401405
1.53800387209
1.60293988601
1.66855269535
1.73437824256
1.79995184942
1.86473908597
1.92822999631
1.98993481421
2.04943094486
2.10627229795
2.16005602267
2.21035307711
2.25686772359
2.29934772604
2.33763964694
2.37146901579
2.40093660308
2.42507557422
2.44363022582
2.46250629247
2.48461241029
2.51058347638
2.54053472384
2.57431707294
2.61134204529
2.65056037338
2.69049176035
2.72928914162
2.76481706144
2.79471569153
2.81661892848
2.82816269692
2.82721347984
2.8119085764
2.78088031247
2.73327662986
2.66890941334
2.58821418308
2.49229444675
2.38277691816
2.26152317486
2.13115870225
1.99390200667
1.85183014157
1.70660773423
1.55807886268
1.40758218331
1.25998116947
1.12264795092
0.997180789683
0.874935428366
0.744485355522
0.607775989762
0.472201337603
0.34541966891
0.251550199249
0.155235292088
0.00769661467365
-0.260618416831
-0.374174956342
-0.3388447539
-0.336308578766
-0.410019771506
-0.48999772414
-0.565271213831
-0.625249863093
-0.676220016505
-0.721541670189
-0.763405506034
-0.802541797319
-0.839401610603
-0.874174237276
-0.906927103623
-0.937638588322
-0.966161710651
-0.99231402188
-1.01599467336
-1.0372318175
-1.05610925485
-1.0726584928
-1.0868811051
-1.09871542339
-1.10804092575
-1.11470680709
-1.11865222714
-1.11993573759
-1.11909874715
-1.11642392043
-1.11208548517
-1.10632057471
-1.09932522833
-1.09131680047
-1.08253866295
-1.07324152747
-1.06361292839
-1.05375399243
-1.04375091789
-1.03375206429
-1.02396802361
-1.01461044789
-1.00588740379
-0.997970688075
-0.990951953742
-0.984833405636
-0.979534596726
-0.974971971789
-0.971096167114
-0.967912196392
-0.96541354974
-0.963644263721
-0.962660467046
-0.962538133328
-0.96336956439
-0.96528819447
-0.968317858934
-0.972352595162
-0.977360190579
-0.98327758149
-0.989949291951
-0.9967778946
-1.0034063451
-1.0081691952
-1.00961486215
-1.00777565172
-1.00309747828
-0.996910013261
-0.991211526535
-0.987754023765
-0.987622094105
-0.991443777583
-0.996534723888
-0.997101290959
-0.982658998873
-0.948929370285
-0.90471600563
-0.0710825419165
-0.089807622487
-0.031874509589
0.0551194246413
0.145368307115
0.220551606063
0.274259698897
0.310130737518
0.334742568706
0.353858314276
0.371310946262
0.389379784585
0.409251487877
0.431488818157
0.456284212302
0.483629947911
0.513413088071
0.545452882985
0.579536736521
0.615456950427
0.652986746917
0.691891358755
0.731965166436
0.773018878877
0.814850896117
0.857316599171
0.900284329165
0.943654695519
0.987351456527
1.03134021297
1.07562526688
1.12019991715
1.16511393185
1.21043374349
1.25622319161
1.30254245948
1.34951005416
1.39719591053
1.44569348197
1.49508575726
1.54544992577
1.59683713225
1.64928170375
1.70278796943
1.75733439333
1.81286112138
1.86926556033
1.92641985568
1.98414369306
2.0422320985
2.10047435271
2.15865669739
2.21649956659
2.27379400801
2.33030286558
2.38583071309
2.44014901266
2.4930648255
2.5443846582
2.59400001419
2.64162329452
2.68658195951
2.72854706343
2.76481875491
2.79151318216
2.80762565187
2.81366854405
2.81051439247
2.79940869614
2.78184192987
2.75945188232
2.73381752627
2.70629027306
2.67788418799
2.6491023644
2.61990381397
2.58963403175
2.55706333593
2.52040598593
2.47753499772
2.42614252604
2.36406547218
2.2895704124
2.2016190698
2.10000260379
1.98542776942
1.85874948139
1.72123036946
1.57407680608
1.41935425553
1.26197548784
1.10733472364
0.957154586791
0.807075485664
0.652693018441
0.493988712248
0.337805444825
0.199136000393
0.0936437573108
0.00958930542336
-0.0863434570398
-0.26899143672
-0.45333850069
-0.520636354099
-0.451080517062
-0.401646441787
-0.452846005309
-0.554528596813
-0.648561194155
-0.730344212536
-0.797835508989
-0.856131771611
-0.907841529409
-0.954535561675
-0.996671655076
-1.03451027986
-1.06820325803
-1.09791027469
-1.12377307216
-1.14587353439
-1.1643234073
-1.17937989076
-1.19149045577
-1.2011903337
-1.20901234478
-1.21541383938
-1.22083805151
-1.22569609511
-1.23033816321
-1.2351219381
-1.24036509456
-1.2459663278
-1.25179071782
-1.25786839876
-1.26405508384
-1.27020160088
-1.27615294317
-1.28173437112
-1.28673909925
-1.29087997608
-1.29380767696
-1.29518644458
-1.29475759887
-1.29240512999
-1.28817028844
-1.28225234685
-1.27494452507
-1.26657591487
-1.25749235293
-1.24807166981
-1.23868416752
-1.22969384435
-1.2213951825
-1.2139941455
-1.20759921879
-1.20232281637
-1.19827128288
-1.19548924616
-1.19399292351
-1.19373039331
-1.19458522915
-1.19630628063
-1.19876552975
-1.20174245751
-1.20511434599
-1.20778155078
-1.20934764734
-1.20948245274
-1.2081937401
-1.20564557921
-1.20286720248
-1.20166166756
-1.20367378173
-1.20935832222
-1.21904407539
-1.23114040257
-1.24387401813
-1.24813488734
-1.24039439199
-1.22978209047
-0.0587143944211
0.0658007385758
0.176748115651
0.247437829601
0.304193318838
0.346362204874
0.373054264061
0.389114196193
0.40015812974
0.410318033658
0.421899579573
0.436025134023
0.453117154974
0.473222819447
0.496218290656
0.521888766582
0.550013593051
0.580369698943
0.612775939014
0.647033491889
0.682993290548
0.720526866902
0.75949814948
0.799799437484
0.841342968697
0.884045763184
0.927822886806
0.972627132939
1.01840973513
1.06514118244
1.11279123618
1.16136547779
1.21085872382
1.26123827558
1.31252357727
1.3646880044
1.4176976294
1.47150564085
1.52606893308
1.58128917191
1.63706335537
1.69324190763
1.74965088005
1.80607750474
1.8622774482
1.91797575033
1.97286164232
2.02658968438
2.07879769903
2.1291474342
2.17724519606
2.22275042883
2.26534167933
2.3047425034
2.34070591229
2.37310888143
2.40186633428
2.42696743217
2.44840361822
2.46620414024
2.48059260359
2.49177684571
2.50031949649
2.50878789012
2.51967192072
2.53233539905
2.54592629917
2.55929196039
2.5712275656
2.58056649303
2.58628348145
2.58754561086
2.5837117361
2.57427447602
2.5587813679
2.53678371286
2.50774818489
2.47105634641
2.42597241987
2.37173413069
2.30755721713
2.23271203496
2.14657506978
2.04863005647
1.93849819268
1.81583370451
1.68116686824
1.53597268143
1.382944954
1.22525713422
1.06403700177
0.897372734896
0.721259005671
0.534419095615
0.344772982316
0.166151132135
0.0220626704757
-0.0899267603144
-0.181160945805
-0.315074042472
-0.473873952668
-0.582775461112
-0.613189028989
-0.559526327147
-0.505170322775
-0.528520311691
-0.612952410343
-0.71030835353
-0.794271995921
-0.865592269762
-0.924779503334
-0.974979975582
-1.01811755326
-1.05575529927
-1.08883495713
-1.11810174517
-1.14416186169
-1.16749836306
-1.18846254904
-1.20726039639
-1.22407316286
-1.23918331139
-1.25296407626
-1.26575515125
-1.27779999083
-1.28928688111
-1.30030181834
-1.31081553688
-1.32067259084
-1.32954383426
-1.33699909475
-1.34276068242
-1.34686722305
-1.3494281521
-1.35049841484
-1.35019177775
-1.34866889262
-1.34613530171
-1.34279775861
-1.33884930335
-1.33443098215
-1.32961907429
-1.32450198176
-1.31922925294
-1.31401311085
-1.30907683081
-1.30464458719
-1.30091642325
-1.2980600512
-1.29620160695
-1.2954233514
-1.295780739
-1.29731410735
-1.30000620732
-1.30375546049
-1.3084509918
-1.31404456002
-1.32053246542
-1.32784348311
-1.33577670899
-1.34415512336
-1.35274185922
-1.36126608833
-1.36929906568
-1.37589423576
-1.38059203491
-1.38295540616
-1.38268209218
-1.37972091565
-1.37429718808
-1.36733269614
-1.36049462943
-1.35527891408
-1.35294705843
-1.35366309334
-1.35751701656
-1.3654100205
-1.37286436328
-1.37847856152
-1.38662604991
0.0253713460315
0.362178429415
0.432444152801
0.40356225211
0.395537420119
0.401061490263
0.409466919488
0.417786188062
0.426370209992
0.436189943675
0.447844237587
0.46165648235
0.477778658843
0.496220993956
0.516950272516
0.539864137589
0.564884920214
0.591897875619
0.620821184771
0.651568097837
0.684065664144
0.718224770732
0.753994478222
0.791307083248
0.830075857473
0.870235622543
0.911703386474
0.954400134557
0.998232894066
1.04312714002
1.0890059951
1.13577479972
1.18336615039
1.23171396374
1.28073610152
1.33034348505
1.38048602258
1.43105885512
1.48197785872
1.53313118039
1.5844025652
1.63563798604
1.68666717344
1.73728707929
1.78726998286
1.83635808013
1.88424908578
1.93063436228
1.97515695682
2.01746393173
2.05719287803
2.09400432111
2.12755356676
2.15757211112
2.18380514694
2.20611830248
2.22448051118
2.23899015776
2.24984924487
2.25734778665
2.26185876865
2.26354623514
2.26218080204
2.25882299675
2.25341224845
2.24699882666
2.24039444035
2.23426278978
2.22909898236
2.22518353541
2.22257606105
2.22107431627
2.22022422344
2.21927830589
2.21711354715
2.21219702267
2.20256258203
2.1858805784
2.15961195696
2.1214267707
2.06953058116
2.00285620493
1.92104056243
1.82439730728
1.71391273498
1.59121487879
1.45832299089
1.3171196794
1.16869112017
1.01107528635
0.842620972232
0.659875298284
0.465704542465
0.274681840957
0.10687620269
-0.0336616613135
-0.145036970324
-0.274914712936
-0.426017964495
-0.555719307222
-0.62608727163
-0.632529642026
-0.613084259179
-0.594775591278
-0.623021018379
-0.70178303805
-0.798110871807
-0.887480611621
-0.962624122384
-1.02669190803
-1.0814392852
-1.1289933441
-1.17070480254
-1.20773893832
-1.24086001526
-1.27065207083
-1.29756303926
-1.32190980215
-1.34386552822
-1.36349453286
-1.38084670377
-1.39608013215
-1.40940535478
-1.42100134729
-1.43104394013
-1.43963365787
-1.44679978337
-1.45252648102
-1.45680298038
-1.45972811861
-1.46166831515
-1.46296176032
-1.4639587209
-1.46464229958
-1.46503981224
-1.4651665057
-1.46503572609
-1.4646735585
-1.46411247079
-1.46337332368
-1.46242525175
-1.4611969675
-1.45966778775
-1.45789151355
-1.45597067245
-1.45400267024
-1.45207833065
-1.4502894243
-1.44874837665
-1.44756711321
-1.44687111317
-1.44677925316
-1.44742177644
-1.44893986834
-1.45145657991
-1.45501137722
-1.4595835762
-1.46511952938
-1.47151658574
-1.47863977462
-1.48633122639
-1.4943540708
-1.50254164537
-1.51020079864
-1.51701708573
-1.52276460794
-1.5271130085
-1.5298191807
-1.53094344982
-1.53076812552
-1.52998053106
-1.52978486024
-1.53091566104
-1.53434022752
-1.53968438036
-1.54604215849
-1.55364872427
-1.5601979262
-1.56438809689
-1.56787445319
0.176176642886
0.760345042491
0.660896129446
0.491419538867
0.436862281593
0.426419207276
0.43147397689
0.439256175874
0.447219678244
0.455754023338
0.465237443596
0.476052431505
0.488531888621
0.502838312124
0.519110701754
0.537374494711
0.55767405817
0.579994778827
0.604346929173
0.630682999131
0.659003644999
0.689293685902
0.721525702459
0.755665560746
0.791676514364
0.829494970801
0.869041675278
0.910236104126
0.952978397214
0.997157481655
1.04264997222
1.089339758
1.13709118276
1.18574319238
1.23516954638
1.28520252928
1.33567561254
1.38641123519
1.43723740762
1.48794573935
1.53832936718
1.58815131997
1.63715855232
1.68507943874
1.73161827875
1.77647550711
1.81931065237
1.85976529945
1.89745892865
1.93205302153
1.96311500386
1.99026336783
2.01322097604
2.03174208211
2.04559423472
2.05475132231
2.05939101223
2.05984627325
2.05667296785
2.0504400698
2.04172661683
2.03086782397
2.01815298231
2.00542214846
1.99077869332
1.97456845113
1.95700601187
1.93851994581
1.91972210584
1.9013539754
1.88421416466
1.86903351318
1.85638536561
1.84653766497
1.83928264734
1.83371966077
1.82814164695
1.81989980494
1.80540915774
1.78062509134
1.74178700829
1.6862638475
1.61310576371
1.52326765624
1.41904729341
1.3031885808
1.17715493947
1.04239159521
0.896388729228
0.738022985659
0.569072527588
0.398366552471
0.237437659326
0.0959772290587
-0.0258912815518
-0.161252592956
-0.30978596307
-0.459522135566
-0.583859801604
-0.638241152206
-0.646904087737
-0.649053884942
-0.671775505036
-0.721637877986
-0.803214964201
-0.899515625449
-0.990954320582
-1.06984657855
-1.13616938771
-1.19296181769
-1.24207591285
-1.28506009628
-1.32288302907
-1.35638147528
-1.3861461231
-1.41269776112
-1.43644565503
-1.45769727108
-1.47660451376
-1.49321757081
-1.50760081995
-1.51991558356
-1.53040324668
-1.53932166159
-1.54690153371
-1.55333897795
-1.55881382902
-1.56349984009
-1.56757127598
-1.5711784117
-1.57451071716
-1.57733085884
-1.57961469491
-1.58132726485
-1.58245820076
-1.58302236719
-1.58306237196
-1.58263206618
-1.5818089232
-1.58064327314
-1.57912782669
-1.57722279727
-1.57493009604
-1.57235271049
-1.56966130653
-1.56704739796
-1.56469547212
-1.56278690741
-1.56149643159
-1.56098434454
-1.56137172971
-1.56271779954
-1.56502791196
-1.56829559477
-1.57253478225
-1.577725576
-1.5837585207
-1.59042576763
-1.59748664678
-1.604781678
-1.61204230329
-1.61922028642
-1.62577880331
-1.63151689732
-1.63630743645
-1.64002023997
-1.642461137
-1.6435583855
-1.64353086888
-1.64284525842
-1.64220681174
-1.64266957016
-1.64474259264
-1.64938692551
-1.65624234324
-1.66396419121
-1.672110325
-1.68006188705
-1.68723477633
-1.69587087868
0.38526756833
1.19605160188
0.812590987158
0.530319308071
0.473708608914
0.463006665954
0.468046228748
0.470640379748
0.471692259126
0.473240837487
0.475826413663
0.480035056583
0.486244139668
0.494558703064
0.505100300712
0.51783918376
0.532805744334
0.549930823014
0.569194438551
0.59053477818
0.613928306724
0.639316875582
0.666669234742
0.69591819991
0.726992116573
0.759818092919
0.794309426357
0.830363842019
0.867865611462
0.906690330497
0.946704277017
0.987744676667
1.02966429506
1.07229849677
1.11547203206
1.15900041869
1.20271644116
1.24641706801
1.28991152743
1.33299292538
1.37545036534
1.41705570621
1.45756424717
1.49672063202
1.53424984241
1.56987906332
1.60328999716
1.63416080385
1.66211276108
1.68681437368
1.70781241178
1.72467662563
1.73723817591
1.74527354987
1.74839217824
1.74650836657
1.74000041751
1.72949629162
1.7155722624
1.69882417449
1.67947798227
1.65771244581
1.63745019169
1.61605012921
1.59427801011
1.57235007505
1.55049208121
1.5289721266
1.50812996169
1.48846337587
1.4706034692
1.45519888509
1.44285495625
1.4339840376
1.42860875998
1.42617403305
1.42533646477
1.42368118873
1.41746735118
1.40189972122
1.37221265929
1.32493432916
1.2589521704
1.17560520523
1.07736585255
0.966122265538
0.842855472543
0.710603770908
0.572027973671
0.431552503812
0.29364621044
0.170677950142
0.0551976088794
-0.0662998744012
-0.201299425532
-0.360619017679
-0.515215934471
-0.627918465752
-0.687848337237
-0.697358855989
-0.710745750763
-0.752770527588
-0.822591517055
-0.909665423154
-1.00460279104
-1.09504585447
-1.17431592734
-1.24202522374
-1.29975416789
-1.34960322177
-1.39297777301
-1.4310214708
-1.46451049633
-1.49410988603
-1.52034545141
-1.54370117376
-1.56457335683
-1.58322015222
-1.59976180186
-1.61422439822
-1.62668627938
-1.63732372717
-1.64638121426
-1.654092446
-1.66066685693
-1.66626890898
-1.67103243712
-1.6750718167
-1.67848520456
-1.68134697502
-1.68378396935
-1.68567788102
-1.68711752576
-1.68813258449
-1.68873428443
-1.68893112693
-1.68875240104
-1.68825206352
-1.68750934108
-1.68659496485
-1.68552928764
-1.68429580283
-1.68289742587
-1.68140626073
-1.6799411984
-1.67864354949
-1.67764768073
-1.67708447181
-1.67707215673
-1.67771811466
-1.67909829248
-1.68126868479
-1.68425240238
-1.6880385662
-1.69259895312
-1.69786831918
-1.70372348412
-1.70998510468
-1.71647094398
-1.72297043048
-1.729313338
-1.73527012974
-1.74054219022