/*--------------------------------*- C++ -*----------------------------------*\
| =========                 |                                                 |
| \\      /  F ield         | OpenFOAM: The Open Source CFD Toolbox           |
|  \\    /   O peration     | Version:  v1806                                 |
|   \\  /    A nd           | Web:      www.OpenFOAM.com                      |
|    \\/     M anipulation  |                                                 |
\*---------------------------------------------------------------------------*/
FoamFile
{
    version     2.0;
    format      ascii;
    class       volVectorField;
    location    "12";
    object      U;
}
// * * * * * * * * * * * * * * * * * * * * * * * * * * * * * * * * * * * * * //

dimensions      [0 1 -1 0 0 0 0];


internalField   nonuniform List<vector> 
12225
(
(9.7387536542 0.0397728738283 0)
(9.50314165126 0.0409202513096 0)
(9.24813344715 0.0400505857261 0)
(8.99748358671 0.0401989099093 0)
(8.76013273113 0.0402276755663 0)
(8.53532783622 0.0398764818976 0)
(8.32102424789 0.0392931984898 0)
(8.11611480899 0.0386364425639 0)
(7.92010075952 0.0379952069916 0)
(7.73255446417 0.0374099519314 0)
(7.55289124661 0.0369022527411 0)
(7.38035153314 0.0364931143129 0)
(7.21403837721 0.0362122487946 0)
(7.05293378937 0.0361062950421 0)
(6.89583410908 0.0362563493925 0)
(6.74108307022 0.0368400331527 0)
(6.58637088054 0.0384676694536 0)
(6.4165772782 0.0366999477942 0)
(10.0164658159 0.0711157295631 0)
(10.0368736414 0.0700391168441 0)
(10.0248619265 0.066672451754 0)
(9.99720260523 0.0671287908246 0)
(9.96371458952 0.0680861179004 0)
(9.925859717 0.0685578158136 0)
(9.8834866589 0.0687311599581 0)
(9.83696446857 0.068885216267 0)
(9.78699968886 0.0691585442193 0)
(9.73421880932 0.0695955393219 0)
(9.67899771086 0.0702164058156 0)
(9.62146035664 0.0710579122378 0)
(9.56151642316 0.0721925109072 0)
(9.4988720014 0.0737467593842 0)
(9.43297252251 0.0759451787698 0)
(9.36281497118 0.079239156251 0)
(9.28751636288 0.0847955199598 0)
(9.19717032627 0.0965466548775 0)
(10.0212450812 0.057967644833 0)
(10.0536437009 0.0581828024246 0)
(10.068138686 0.0557762795521 0)
(10.0726138763 0.0581235937678 0)
(10.074546685 0.0611702457511 0)
(10.0748268783 0.0634904019173 0)
(10.0726959143 0.065322780803 0)
(10.0678804155 0.0670724597477 0)
(10.0605381042 0.0689441817117 0)
(10.0508757761 0.0710056003415 0)
(10.0389699997 0.073293564536 0)
(10.0247502619 0.0758761154575 0)
(10.0080291614 0.0788811762418 0)
(9.98851885127 0.0825231693001 0)
(9.96582150197 0.0871619205213 0)
(9.93940077684 0.0934402571598 0)
(9.90921830793 0.102593863335 0)
(9.87100620151 0.115395259232 0)
(10.0159969425 0.0474840472022 0)
(10.0434456171 0.0549271801972 0)
(10.059755024 0.0561052497237 0)
(10.067519997 0.0598675749078 0)
(10.07307182 0.0636987843569 0)
(10.0778051542 0.0664923123483 0)
(10.0811901285 0.0686484969615 0)
(10.082903323 0.0706971146513 0)
(10.0829918977 0.0729096341879 0)
(10.0815764165 0.075382887244 0)
(10.0786822302 0.078172443808 0)
(10.0742185191 0.0813698573385 0)
(10.0680111839 0.0851371139365 0)
(10.0598352119 0.0897338089182 0)
(10.0494439707 0.0955677641226 0)
(10.036619075 0.103284216388 0)
(10.0216159336 0.113896290917 0)
(10.002843577 0.127876682344 0)
(10.0116847975 0.0393757434656 0)
(10.0339416812 0.0507595753775 0)
(10.0494692652 0.0533799539363 0)
(10.057604855 0.0568053031969 0)
(10.0632944113 0.0603658706939 0)
(10.068209306 0.0632083225869 0)
(10.0720565375 0.0656094813236 0)
(10.0745167069 0.0680179377114 0)
(10.0755864869 0.0706744081838 0)
(10.0753654075 0.0736682457462 0)
(10.0738934258 0.0770601429269 0)
(10.0711184226 0.0809554895975 0)
(10.0669246313 0.0855357813897 0)
(10.0611724625 0.0910799239297 0)
(10.0537451944 0.0979980530151 0)
(10.0446197577 0.106876361907 0)
(10.0341398681 0.118509379201 0)
(10.0218460908 0.133367334962 0)
(10.0085120392 0.0328947392561 0)
(10.0263777636 0.0463321622891 0)
(10.0406504521 0.0506403010833 0)
(10.0488813082 0.0545621102925 0)
(10.0545540504 0.0586455135831 0)
(10.0593540067 0.062198382253 0)
(10.0631844358 0.0653160275236 0)
(10.0657515291 0.068359884219 0)
(10.067014536 0.0715800508589 0)
(10.0670553104 0.0751085787587 0)
(10.0659282751 0.0790495031529 0)
(10.0636180526 0.0835424506524 0)
(10.0600616975 0.0887921188235 0)
(10.0551909425 0.0950854930656 0)
(10.0489845602 0.102811188459 0)
(10.0415380416 0.112473419872 0)
(10.0332357455 0.124675871318 0)
(10.0241094358 0.139829741679 0)
(10.0061910293 0.0277312122722 0)
(10.0204473714 0.0420163362127 0)
(10.0332571927 0.0478305454071 0)
(10.041383666 0.0522827299681 0)
(10.0470078422 0.0566651464823 0)
(10.0516613729 0.0605673712385 0)
(10.0554110262 0.0640261832545 0)
(10.058015796 0.0673708835359 0)
(10.0594127366 0.0708843215772 0)
(10.0596649487 0.0747462370685 0)
(10.0588341192 0.0790951812545 0)
(10.0569336946 0.0840870410251 0)
(10.0539449601 0.089926548863 0)
(10.0498578677 0.0968827705048 0)
(10.0447217617 0.105297376024 0)
(10.0387042508 0.115578424587 0)
(10.0321989423 0.128162083561 0)
(10.0253993672 0.143328879999 0)
(10.0045097419 0.0236106009671 0)
(10.0158486012 0.0379450917739 0)
(10.0271304811 0.0449351610589 0)
(10.0349783722 0.0499402600174 0)
(10.0405350053 0.0546224331041 0)
(10.0450736229 0.0588880373099 0)
(10.048770206 0.0627740130929 0)
(10.0514450467 0.0665675539099 0)
(10.0530233062 0.0705499520292 0)
(10.0535486206 0.0749173698672 0)
(10.0530847957 0.079819937126 0)
(10.0516690657 0.0854135870932 0)
(10.0493216271 0.0918907485128 0)
(10.0460813341 0.0994922973437 0)
(10.0420497991 0.108506297977 0)
(10.03743642 0.119249346238 0)
(10.0326230626 0.132021869785 0)
(10.0278809214 0.146979345896 0)
(10.003297641 0.0203057483259 0)
(10.0123130444 0.0341981391196 0)
(10.022109629 0.0420113593109 0)
(10.0295435373 0.0475499956256 0)
(10.0350018759 0.0525341807246 0)
(10.039452054 0.0571322947041 0)
(10.0431199334 0.0614098203543 0)
(10.0458849343 0.065611582034 0)
(10.0476717649 0.0700032526196 0)
(10.0485092472 0.0747889293273 0)
(10.0484623355 0.0801292293459 0)
(10.0475888812 0.0861819780246 0)
(10.0459427096 0.0931283339084 0)
(10.0436017464 0.101180410531 0)
(10.0407028902 0.110573704541 0)
(10.0374730682 0.121543328369 0)
(10.0342618252 0.134282301455 0)
(10.0313558765 0.148847494924 0)
(10.0024264865 0.017633257371 0)
(10.0096165752 0.0308038049137 0)
(10.0180429865 0.0391060309013 0)
(10.0249743083 0.0451059643476 0)
(10.0302989957 0.0503795629633 0)
(10.0346822346 0.0552767412625 0)
(10.0383499398 0.0599105541666 0)
(10.0412314558 0.0644963991977 0)
(10.0432603611 0.0692807832833 0)
(10.044456299 0.0744689603879 0)
(10.0448843445 0.080226644826 0)
(10.0446179053 0.0867083128417 0)
(10.0437363889 0.0940777030646 0)
(10.0423449618 0.102512232659 0)
(10.0405996276 0.112193018714 0)
(10.0387266167 0.123281720658 0)
(10.0370331412 0.135887022127 0)
(10.0358226352 0.149997617975 0)
(10.0017997141 0.0154512276621 0)
(10.0075730074 0.0277700178122 0)
(10.0147867901 0.0362780138469 0)
(10.0211762868 0.0426289283831 0)
(10.0263386482 0.048156831404 0)
(10.030674201 0.0533118627934 0)
(10.034373546 0.0582563762515 0)
(10.0374018814 0.0631865440206 0)
(10.0397065761 0.0683262424731 0)
(10.0413028462 0.073872792055 0)
(10.0422547298 0.0799886014912 0)
(10.0426455401 0.0868183637893 0)
(10.0425716274 0.0945039050585 0)
(10.0421541363 0.103186609436 0)
(10.0415549881 0.112997621906 0)
(10.0409872535 0.124038454041 0)
(10.0407100385 0.136356739768 0)
(10.0410347973 0.149900089436 0)
(10.0013834016 0.0137580316039 0)
(10.0061610124 0.0252492046167 0)
(10.0124205987 0.0337551760128 0)
(10.0183144037 0.0403274136013 0)
(10.0233130173 0.0460501243794 0)
(10.0276228713 0.051405566904 0)
(10.0313832654 0.0565931903207 0)
(10.0345779431 0.0617979736434 0)
(10.0371676204 0.0672223778199 0)
(10.0391665904 0.0730507992193 0)
(10.0406369987 0.0794370184935 0)
(10.0416661279 0.0865130911097 0)
(10.0423580789 0.0943993214687 0)
(10.0428393033 0.103205462456 0)
(10.0432677167 0.113022515225 0)
(10.0438375384 0.123907691939 0)
(10.0447656173 0.135868170851 0)
(10.0463757642 0.148828698103 0)
(10.0010739485 0.0123404338017 0)
(10.0050720228 0.0229954722643 0)
(10.0105226119 0.0313295990441 0)
(10.0159485261 0.0380048945191 0)
(10.0207787982 0.0438668107102 0)
(10.0250732408 0.0493778963256 0)
(10.0289154067 0.0547584697267 0)
(10.0322969378 0.0601862839662 0)
(10.0351905609 0.0658436620874 0)
(10.0376115508 0.0718981810768 0)
(10.0396197468 0.0784903395827 0)
(10.0413029105 0.0857366634882 0)
(10.0427673281 0.0937357725528 0)
(10.0441386245 0.102568723194 0)
(10.0455652467 0.112292804925 0)
(10.0472194742 0.122930776069 0)
(10.0492763967 0.134460691019 0)
(10.0520747192 0.14679193705 0)
(10.0008185293 0.010941280897 0)
(10.0041512672 0.020661375706 0)
(10.0088652103 0.0286621340203 0)
(10.0138295421 0.035327971222 0)
(10.0184906094 0.0412720348056 0)
(10.0227972019 0.0469008857989 0)
(10.0267738553 0.052438734157 0)
(10.030410349 0.0580542568627 0)
(10.0336884544 0.0639075866363 0)
(10.0366243782 0.070144360028 0)
(10.0392737833 0.0768858117453 0)
(10.0417201991 0.0842284168246 0)
(10.0440654988 0.0922464280798 0)
(10.0464268305 0.100992113745 0)
(10.0489357903 0.110491578644 0)
(10.0517369332 0.120738730274 0)
(10.0549615151 0.131690270776 0)
(10.0589665642 0.143250360319 0)
(10.0006202149 0.00955964820867 0)
(10.0034251614 0.0182587274769 0)
(10.0075201625 0.0257493173528 0)
(10.0120722853 0.0322430201548 0)
(10.0165879762 0.0381562649129 0)
(10.020947539 0.0438169768529 0)
(10.0251225678 0.0494325808314 0)
(10.029092818 0.0551560010597 0)
(10.0328440832 0.061122325286 0)
(10.0363917297 0.0674504862521 0)
(10.0397847061 0.074237182043 0)
(10.0430971183 0.0815547219609 0)
(10.0464192716 0.0894518076606 0)
(10.0498523356 0.0979535513268 0)
(10.0535046484 0.107059884808 0)
(10.0574893341 0.116743066086 0)
(10.0618939383 0.126946885507 0)
(10.0670976946 0.137576732664 0)
(10.0004805686 0.00816768406698 0)
(10.0029102759 0.0157489180805 0)
(10.0065489771 0.0225378780304 0)
(10.0107959711 0.0286570348573 0)
(10.0152357886 0.0343736773739 0)
(10.0197185042 0.0399287032462 0)
(10.0241758364 0.0454933437538 0)
(10.0285730199 0.051195016846 0)
(10.0328937052 0.0571397776342 0)
(10.0371489649 0.0634162655684 0)
(10.0413773868 0.070092831606 0)
(10.0456384588 0.0772153816513 0)
(10.0500044026 0.0848075945345 0)
(10.0545541381 0.0928712119367 0)
(10.0593683961 0.101386366803 0)
(10.0645275996 0.110311636518 0)
(10.070078213 0.1195856771 0)
(10.0764248641 0.129120856164 0)
(10.0003994505 0.00670040913055 0)
(10.0026161682 0.0130257350136 0)
(10.0060008742 0.0188927147366 0)
(10.0101106026 0.0243892983335 0)
(10.0146001866 0.0296787418638 0)
(10.0193146779 0.0349188293762 0)
(10.0241612904 0.0402315670836 0)
(10.0290904928 0.04570943648 0)
(10.0340784732 0.0514253584709 0)
(10.0391271858 0.0574357486995 0)
(10.044260934 0.0637793038182 0)
(10.0495200943 0.0704761667579 0)
(10.0549541245 0.077527920699 0)
(10.0606158572 0.0849186884164 0)
(10.0665567921 0.0926161812062 0)
(10.0728259531 0.100573428321 0)
(10.079433533 0.108731065556 0)
(10.0868099326 0.117013512533 0)
(10.000376178 0.00503907332749 0)
(10.0025522435 0.00988335931923 0)
(10.0059221373 0.014552548144 0)
(10.0101223003 0.0191266733119 0)
(10.0148474664 0.0236958922177 0)
(10.0199456554 0.0283431637703 0)
(10.0253117588 0.0331353903395 0)
(10.0308842427 0.0381234241493 0)
(10.0366285578 0.0433438993502 0)
(10.0425336989 0.0488201535676 0)
(10.0486068738 0.0545621118444 0)
(10.0548674309 0.0605664228255 0)
(10.0613409261 0.0668168847427 0)
(10.0680543122 0.0732855955179 0)
(10.0750321414 0.0799342286695 0)
(10.0822967201 0.0867159417635 0)
(10.0898295973 0.0935774962643 0)
(10.0980877768 0.100456725598 0)
(10.000425689 0.0029542685335 0)
(10.0027729507 0.00590745428314 0)
(10.0064335505 0.00898038929934 0)
(10.0110305667 0.0122457492816 0)
(10.0162498633 0.0157217331247 0)
(10.0219371979 0.0194148171388 0)
(10.0279837925 0.0233336154013 0)
(10.034320339 0.0274852439288 0)
(10.0409005036 0.031869759419 0)
(10.0476984838 0.0364792505117 0)
(10.0547041897 0.04129818739 0)
(10.0619173912 0.0463046061895 0)
(10.0693422444 0.0514700923669 0)
(10.076983167 0.0567606872478 0)
(10.0848420273 0.0621372614549 0)
(10.092919466 0.0675571951097 0)
(10.1011746732 0.0729755125936 0)
(10.1100859348 0.0783435451166 0)
(10.0005638652 0.00071692959941 0)
(10.0033116859 0.00165345149358 0)
(10.007574615 0.00304634973084 0)
(10.0128348977 0.00493926205587 0)
(10.0187142764 0.00725370842938 0)
(10.0250595175 0.00991321678475 0)
(10.0317771554 0.0128742131458 0)
(10.0388011353 0.01610769016 0)
(10.046078456 0.0195846118893 0)
(10.0535739861 0.0232729052604 0)
(10.0612686765 0.0271400722827 0)
(10.0691528245 0.0311534435639 0)
(10.0772198074 0.0352802370042 0)
(10.0854620107 0.0394860864953 0)
(10.0938691361 0.0437357279641 0)
(10.1024305765 0.0479928857626 0)
(10.1110949059 0.0522222466132 0)
(10.1203463437 0.0563875497859 0)
(10.0007488491 -0.00145091160157 0)
(10.0040378802 -0.00238579452269 0)
(10.009063096 -0.00243206420096 0)
(10.0150705817 -0.00164470195546 0)
(10.0215999275 -0.000254315275063 0)
(10.0285275434 0.0015759838006 0)
(10.0357977758 0.00376646435049 0)
(10.0433563868 0.00626360671354 0)
(10.0511480437 0.00901473275616 0)
(10.0591351489 0.0119691063708 0)
(10.067298345 0.0150823326142 0)
(10.0756274092 0.0183160248872 0)
(10.0841126897 0.021635759908 0)
(10.0927418623 0.0250080178076 0)
(10.1014991963 0.0283998752207 0)
(10.1103698613 0.0317784898536 0)
(10.1192993123 0.0351125305917 0)
(10.1287876599 0.0383705744423 0)
(10.0010368645 -0.00381952986178 0)
(10.0051292742 -0.00663461963029 0)
(10.0111708347 -0.00792690899655 0)
(10.0180401872 -0.00801406352005 0)
(10.0252223681 -0.00736607775473 0)
(10.0326910604 -0.00622375673477 0)
(10.0404553637 -0.00467941617832 0)
(10.048469845 -0.00279909358798 0)
(10.0566736683 -0.000653467230056 0)
(10.0650306177 0.00169356086733 0)
(10.0735271787 0.00419244486374 0)
(10.0821577119 0.00680495021496 0)
(10.0909134407 0.00949717241788 0)
(10.0997788925 0.0122381754075 0)
(10.1087339016 0.0149962514138 0)
(10.1177589363 0.0177407099402 0)
(10.1267947812 0.020442162507 0)
(10.1363345019 0.0230745116484 0)
(10.0014935377 -0.00654119496871 0)
(10.0067640723 -0.0112288509807 0)
(10.0141071355 -0.0134803095638 0)
(10.0218977389 -0.0141750149492 0)
(10.0296808052 -0.0140954453939 0)
(10.0376292244 -0.0135097341484 0)
(10.0458306064 -0.0124946457845 0)
(10.0542379951 -0.0111346624032 0)
(10.0627860543 -0.00952700264671 0)
(10.0714483505 -0.00774919649498 0)
(10.0802246109 -0.00585112693104 0)
(10.08911532 -0.00386389619886 0)
(10.0981103579 -0.00181083222715 0)
(10.107190407 0.000284093590269 0)
(10.1163312233 0.00239544283862 0)
(10.1255114875 0.00449615205989 0)
(10.1346750191 0.00655830751673 0)
(10.1443399826 0.00855282126964 0)
(10.0022298256 -0.00981773267061 0)
(10.0092149837 -0.0162533118149 0)
(10.0181490156 -0.019024568655 0)
(10.0268320159 -0.0200362182004 0)
(10.0351125901 -0.0203618069624 0)
(10.0434667954 -0.0201796159929 0)
(10.0520357213 -0.0195151930653 0)
(10.0607435815 -0.0184715246663 0)
(10.069521282 -0.0171721309322 0)
(10.0783634124 -0.0157067554076 0)
(10.0872914294 -0.0141282127048 0)
(10.0963181814 -0.0124689191365 0)
(10.1054368096 -0.0107539321265 0)
(10.114625268 -0.00900769597743 0)
(10.1238534637 -0.00725511285459 0)
(10.1330920951 -0.00552288879131 0)
(10.142274084 -0.00383863453664 0)
(10.1518905068 -0.00223070496665 0)
(10.0034319886 -0.0139307952075 0)
(10.012862022 -0.0217334470449 0)
(10.0236066226 -0.0244468272966 0)
(10.0330370597 -0.0255544382203 0)
(10.0417003099 -0.0262461269192 0)
(10.0504391958 -0.0265001335478 0)
(10.0593846296 -0.0262987099718 0)
(10.0684039952 -0.0257633144156 0)
(10.0774259142 -0.0250140078845 0)
(10.0864679525 -0.0241162546069 0)
(10.0955697329 -0.0230982174752 0)
(10.1047511513 -0.0219767727799 0)
(10.1140055618 -0.0207706617935 0)
(10.1233087197 -0.0195028378315 0)
(10.132628009 -0.0181990381094 0)
(10.1419318959 -0.0168873855181 0)
(10.1511533171 -0.0156020823028 0)
(10.1608116648 -0.014389302659 0)
(10.0053457218 -0.0192500332739 0)
(10.0181461476 -0.027567536039 0)
(10.0307433911 -0.0295473991112 0)
(10.0406148192 -0.0304365870039 0)
(10.0494578073 -0.0310575702712 0)
(10.0584367815 -0.031148369446 0)
(10.0676015691 -0.030775269297 0)
(10.0767744489 -0.0301624236804 0)
(10.0859095307 -0.0294573144897 0)
(10.0950571597 -0.0287053593242 0)
(10.1042705712 -0.0279026361745 0)
(10.113567733 -0.0270386953533 0)
(10.1229344445 -0.0261125633157 0)
(10.1323391943 -0.0251335073699 0)
(10.1417426601 -0.0241159610492 0)
(10.1511019137 -0.0230779530055 0)
(10.1603259381 -0.022049399217 0)
(10.1698649888 -0.0210912990913 0)
(10.0084325733 -0.0262449790914 0)
(10.0257141727 -0.0335466305863 0)
(10.0400062221 -0.0347835628994 0)
(10.0501400043 -0.0363797767783 0)
(10.0592487755 -0.0378880307198 0)
(10.068562002 -0.0386104855241 0)
(10.0779442956 -0.0386778526549 0)
(10.0871969392 -0.038420995659 0)
(10.0963367523 -0.0380407255696 0)
(10.1054673098 -0.0376003299646 0)
(10.1146636452 -0.0370994940616 0)
(10.1239453173 -0.0365264016899 0)
(10.1332927595 -0.0358775366857 0)
(10.1426699362 -0.0351579209887 0)
(10.1520357304 -0.034374029601 0)
(10.1613424275 -0.03352875895 0)
(10.1704794791 -0.032631810884 0)
(10.1798495842 -0.0317447992521 0)
(10.0128094461 -0.0354426960007 0)
(10.0353521078 -0.037918347202 0)
(10.050089485 -0.0358622533918 0)
(10.0594682634 -0.0363379670321 0)
(10.0681607156 -0.0374703207105 0)
(10.0771073182 -0.0381151495057 0)
(10.0858811072 -0.0382896808336 0)
(10.0942556156 -0.0382557911973 0)
(10.1023153289 -0.038166763949 0)
(10.1102241081 -0.0380595624155 0)
(10.118090858 -0.0379197271073 0)
(10.12595153 -0.0377254856495 0)
(10.1337973155 -0.0374644178924 0)
(10.1416049905 -0.0371311695591 0)
(10.1493509073 -0.0367176203683 0)
(10.1570040825 -0.036196990257 0)
(10.1644441585 -0.0355098784898 0)
(10.1718145129 -0.0345546702628 0)
(10.0161715353 -0.0492906630367 0)
(10.0396840142 -0.0512648848734 0)
(10.0457372814 -0.0487958820511 0)
(10.0435636613 -0.0486182899544 0)
(10.0397350315 -0.048926902597 0)
(10.0351690472 -0.0488699382084 0)
(10.0294669956 -0.0484958019352 0)
(10.0226111466 -0.0480031891905 0)
(10.0149258039 -0.0475040460901 0)
(10.0067776879 -0.0470268997759 0)
(9.99843297572 -0.0465625912084 0)
(9.99004971214 -0.0460953088114 0)
(9.98171762723 -0.0456137196397 0)
(9.97349860714 -0.0451096171325 0)
(9.96545269114 -0.0445696575065 0)
(9.9576514678 -0.0439531693773 0)
(9.95014084797 -0.043147286568 0)
(9.94282340337 -0.0414755771817 0)
(9.85256229543 -0.0291117647685 0)
(9.72344371682 -0.0317227305094 0)
(9.57924116264 -0.0316580664691 0)
(9.43571774576 -0.0321217197286 0)
(9.29992813347 -0.0324910280753 0)
(9.17185897778 -0.0325313410724 0)
(9.0502872511 -0.0323241693288 0)
(8.93458558534 -0.031986297203 0)
(8.82458943334 -0.03158952355 0)
(8.7202299116 -0.0311658545871 0)
(8.62136302431 -0.0307267192401 0)
(8.52775682389 -0.0302764302065 0)
(8.43913551139 -0.0298176986702 0)
(8.35522426953 -0.0293520941509 0)
(8.27577976183 -0.0288774712115 0)
(8.20061033137 -0.0283763315427 0)
(8.12981541579 -0.0277826314956 0)
(8.06169337481 -0.0264546207067 0)
(0.028613872234 -0.110903632012 2.07693612042e-19)
(0.055104385201 -0.109519886042 0)
(0.0804882217626 -0.104278001266 0)
(0.0817509429265 -0.0654331958862 0)
(0.0434373811629 0.0308947147277 0)
(-0.0731617147988 0.113333231237 -1.3228411191e-19)
(-0.184375184827 0.133117264955 0)
(-0.303373566902 0.143013402256 0)
(-0.429311673601 0.14997747683 4.73159508942e-20)
(-0.561328995593 0.155022120965 0)
(-0.698490878204 0.158589734624 -3.33293911649e-20)
(-0.839933984994 0.160985633165 0)
(-0.984888472073 0.162440318898 -2.65397194332e-20)
(-1.13267690846 0.163134752349 -2.44509317346e-20)
(-1.28271091034 0.16321603905 0)
(-1.43448317845 0.162806391793 2.17482079221e-20)
(-1.58756303625 0.16200959178 2.0893386095e-20)
(-1.74158938288 0.160914474846 2.02677256247e-20)
(-1.89626711238 0.159597859534 0)
(-2.05136065089 0.158125852224 0)
(-2.20669035305 0.156555173258 0)
(-2.36212641351 0.154933524644 0)
(-2.51758465745 0.153300333836 0)
(-2.67301976523 0.151686718225 0)
(-2.82842008271 0.150115962764 -1.93159054517e-20)
(-2.98380023689 0.148603544292 -1.94430952915e-20)
(-3.13919484132 0.147157648393 0)
(-3.29465079533 0.145779254629 1.97968680223e-20)
(-3.45022047702 0.144462904428 2.00132350731e-20)
(-3.60595382573 0.143197031344 2.02506415337e-20)
(-3.76189156523 0.141964906796 0)
(-3.91805808532 0.140745109741 0)
(-4.07445544344 0.139512695382 -2.10603140323e-20)
(-4.23105716399 0.138239758654 0)
(-4.38780354993 0.136896603562 0)
(-4.54459729563 0.135452285775 -2.1973262047e-20)
(-4.70130047495 0.133875812585 0)
(-4.85773191741 0.132136551665 0)
(-5.01366607959 0.130205300835 0)
(-5.16883223149 0.128054595849 0)
(-5.32291516952 0.125659813568 0)
(-5.47555671552 0.122999508172 4.79116645964e-20)
(-5.62635929217 0.120056443355 0)
(-5.77489011013 0.116817620223 0)
(-5.92068638255 0.113274856661 4.99072629053e-20)
(-6.06325992404 0.109424722367 5.05529375405e-20)
(-6.20210302467 0.105269711725 0)
(-6.33669596194 0.100818544008 0)
(-6.46651775939 0.0960863438412 5.23734746563e-20)
(-6.59105742414 0.0910933949612 0)
(-6.70982520575 0.0858645302416 -5.34441321381e-20)
(-6.82236096291 0.0804276387919 0)
(-6.92824097036 0.0748127943711 5.43568535722e-20)
(-7.02707935466 0.0690523018945 0)
(-7.11852771632 0.0631820219937 5.50752149535e-20)
(-7.202275869 0.0572416589752 5.53503685723e-20)
(-7.27805621045 0.0512734898935 0)
(-7.34565500595 0.0453193166562 0)
(-7.4049266999 0.0394166071306 0)
(-7.4558046549 0.0335934979979 5.58034766796e-20)
(-7.4983010166 0.0278659565239 0)
(-7.5324813318 0.022237600382 0)
(-7.55843477876 0.0166957486618 0)
(-7.57622879166 0.0112258824255 0)
(-7.58589722676 0.00585460131784 0)
(-7.58752914672 0.000665793509501 0)
(-7.58142151622 -0.00427413199132 0)
(-7.56787317971 -0.00896074693114 -5.30396645425e-20)
(-7.54718798048 -0.0134229570982 0)
(-7.51962310411 -0.0177144776699 -5.15051360249e-20)
(-7.48535167119 -0.0219111664886 -5.06164228962e-20)
(-7.44442293197 -0.0261082559494 0)
(-7.39671864555 -0.0304196277853 4.85672341279e-20)
(-7.34190816038 -0.0349737611563 0)
(-7.27940669047 -0.03990962614 -4.60778380141e-20)
(-7.20834373168 -0.0453675252961 0)
(-7.12755026526 -0.0514799184111 4.29883802709e-20)
(-7.03557736063 -0.0583555103217 -4.11449125678e-20)
(-6.93075034327 -0.0660651378965 0)
(-6.81126438714 -0.0746262734703 0)
(-6.67531730139 -0.0839929717134 0)
(-6.52127316686 -0.0940437276237 0)
(-6.34782637415 -0.104584686513 -2.73788150423e-20)
(-6.1541490561 -0.115360996347 2.34415361663e-20)
(-5.94001740506 -0.126078347115 -3.80671901209e-20)
(-5.7059058692 -0.13641450564 -2.82634923674e-20)
(-5.45299463169 -0.146046233951 -1.74302272578e-20)
(-5.18308465609 -0.154679589832 0)
(-4.89849161943 -0.162075252495 0)
(-4.60197077135 -0.168038077957 0)
(-4.29658619477 -0.172409803913 3.73064107782e-20)
(-3.98552342682 -0.175080981299 0)
(-3.67191511631 -0.175985895843 0)
(-3.35876612505 -0.175096484408 9.36271211402e-20)
(-3.04890170758 -0.172423434155 0)
(-2.74489950707 -0.168014382182 -1.42549165021e-19)
(-2.44904734805 -0.161954899036 0)
(-2.16315428587 -0.154366125825 2.06453971106e-19)
(-1.88872773142 -0.14548189535 0)
(-1.62671521279 -0.135864233719 0)
(-1.37771738611 -0.126480037594 0)
(-1.14091816325 -0.119151019077 4.33295495133e-19)
(-0.915467429938 -0.115028266644 0)
(-0.701074103444 -0.115379609852 6.76586544677e-19)
(-0.499050780885 -0.120496837042 8.88281212785e-19)
(-0.296201490828 -0.133576640419 0)
(-0.102858870542 -0.153148491497 0)
(0.108633031066 -0.159482678777 0)
(0.280562002805 -0.139162970529 1.80951308063e-18)
(0.41483056672 -0.11640797053 0)
(0.545412993229 -0.0968235095771 0)
(0.669384882415 -0.0809165025051 7.9086714744e-19)
(0.78439140453 -0.0680313743132 6.90404924524e-19)
(0.889629653229 -0.0574558994642 0)
(0.985089615815 -0.0486407391351 -5.67254931882e-19)
(1.07111458106 -0.0411730994082 -5.27046756549e-19)
(1.14819534005 -0.0347670484223 4.9539765585e-19)
(1.21684959078 -0.0292091208584 0)
(1.27759379092 -0.0243499325237 0)
(1.33092263056 -0.0200705320388 0)
(1.37731789646 -0.0162833373587 -4.18936687434e-19)
(1.41723270546 -0.0129144523075 0)
(1.45109181704 -0.0099109531616 -3.98320898546e-19)
(1.47928434428 -0.00722753936661 0)
(1.50218045854 -0.00484115949709 0)
(1.52012822087 -0.00273376260997 0)
(1.53347708503 -0.000901835463503 3.76486944282e-19)
(1.54258677488 0.000658862489384 3.73931228748e-19)
(1.54788471525 0.00193636960798 0)
(1.55027297189 0.00295544574823 0)
(1.55001571709 0.00379933597837 0)
(1.54724670962 0.00452356784833 0)
(1.54211757012 0.00514078798205 0)
(1.53479466084 0.00566444992684 0)
(1.52544406173 0.00610437658439 7.44113398632e-19)
(1.51422065945 0.00647450400884 0)
(1.50126546011 0.006783730036 0)
(1.48670335496 0.00704301716111 0)
(1.47064659951 0.00725906225694 -7.66065139851e-19)
(1.45319792323 0.00744010477272 -7.74023142372e-19)
(1.43445622156 0.00759231211416 7.82951935175e-19)
(1.41451116711 0.00772364443396 7.92858915698e-19)
(1.39344154535 0.00784043701598 0)
(1.37131383817 0.00794433959378 0)
(1.34818425053 0.00803480771517 0)
(1.32410301853 0.00811131691264 8.42653344948e-19)
(1.29910926293 0.00817140707407 0)
(1.27323251605 0.0082239998351 0)
(1.24650941451 0.00828379066256 -8.91999562915e-19)
(1.21898023443 0.00836002729846 0)
(1.19067681987 0.00845506485469 -9.31674386631e-19)
(1.16162436677 0.00857159794676 0)
(1.13184532863 0.00871326293588 -9.77693531201e-19)
(1.10136818331 0.00887488004732 0)
(1.07023682379 0.00904371835977 0)
(1.03849041756 0.00920033170917 0)
(1.00615340533 0.00935478446688 0)
(0.973278837427 0.00952957507924 0)
(0.93996893301 0.00971064961208 0)
(0.906311121722 0.00985830664166 0)
(0.872351629396 0.00997825194818 0)
(0.838187775179 0.0101295027522 -1.29424116265e-18)
(0.803991371381 0.0103432605808 0)
(0.769969335307 0.0106109106241 0)
(0.736382875513 0.0108858572463 -1.45297038863e-18)
(0.703632782606 0.011068404151 0)
(0.672317100991 0.0110026319046 0)
(0.643237919387 0.0105532137624 -1.6269913388e-18)
(0.617340273297 0.0097186699575 0)
(0.595721165183 0.00857853206055 0)
(0.579562363021 0.0072441800728 -1.74394063119e-18)
(0.568761009185 0.00591781138295 1.75530927862e-18)
(0.56376810969 0.00480423308855 -1.75361920191e-18)
(0.562606470148 0.00401891092118 0)
(0.562937768201 0.00350492996854 0)
(0.563162691811 0.0031232227195 -3.48086339826e-18)
(0.562641165515 0.0027450422807 0)
(0.561059558404 0.00238227903908 3.47871574377e-18)
(0.567105156899 0.00177589510809 3.48215322411e-18)
(0.458738043854 -0.00260881124663 0)
(0.00693195172508 -0.120917360072 -6.41263256739e-19)
(-0.0393301663993 -0.0172248697812 0)
(-0.143886780489 0.12155501123 2.17370509351e-19)
(-0.23068144119 0.194622432462 -1.39538091246e-19)
(-0.31295102303 0.252579783494 -1.02217665885e-19)
(-0.40773651404 0.300083130526 4.08289609433e-20)
(-0.513205244858 0.332301720461 6.91518953455e-20)
(-0.628467461753 0.356436280901 0)
(-0.751784008615 0.375212294247 -2.61442057904e-20)
(-0.881505387252 0.389847278515 4.76095018517e-20)
(-1.01635149453 0.401110917324 6.51405389237e-20)
(-1.15530261512 0.409564069299 -4.06194210942e-20)
(-1.29751713802 0.415647791511 5.71723703601e-20)
(-1.44228642495 0.419726175153 1.79804217459e-20)
(-1.58900986806 0.422110693114 0)
(-1.7371778933 0.423073740718 -1.68920536318e-20)
(-1.8863618122 0.42285775532 -1.65829640297e-20)
(-2.03620507744 0.421680237776 -1.63917257845e-20)
(-2.18641785279 0.419737618353 3.31868115182e-20)
(-2.33677094944 0.41720687841 0)
(-2.48709163794 0.414246950589 3.32187441709e-20)
(-2.63725810779 0.41099869648 0)
(-2.78719508842 0.407585112434 -3.36882748409e-20)
(-2.93686782469 0.404110540389 0)
(-3.08627646961 0.400660449668 5.14600321371e-20)
(-3.2354490968 0.397300594148 -1.76960737229e-20)
(-3.38443514671 0.394076991419 -3.54590811473e-20)
(-3.53329767605 0.391015527522 -5.38202204858e-20)
(-3.68210594184 0.388122626225 -1.81069029066e-20)
(-3.83092737 0.385385618539 -1.84260646603e-20)
(-3.9798202127 0.382774204661 0)
(-4.12882602567 0.380241591328 -3.85507545762e-20)
(-4.27796303666 0.377726763354 1.9448434901e-20)
(-4.42721974447 0.375156206456 0)
(-4.5765497107 0.372446620923 0)
(-4.72586683595 0.369506985467 2.05409017861e-20)
(-4.87504201489 0.366241570853 0)
(-5.02390047738 0.362552039152 0)
(-5.17222039265 0.358340414183 0)
(-5.31973191103 0.353511148484 0)
(-5.46611753547 0.347974301845 0)
(-5.61101374859 0.341647820012 4.63201453212e-20)
(-5.75401486259 0.334460653264 9.35564864827e-20)
(-5.89467795847 0.326354332085 0)
(-6.03252815851 0.317284911867 4.86677342255e-20)
(-6.16706220306 0.307224094611 -4.87382156471e-20)
(-6.29775370774 0.296162246364 0)
(-6.42406181519 0.284110161388 0)
(-6.54544368386 0.271099746873 -1.53446580327e-19)
(-6.66136675515 0.257181584289 -1.03907521951e-19)
(-6.77131899716 0.24242327608 5.22149345705e-20)
(-6.87481883139 0.226905899296 1.06426366493e-19)
(-6.9714192674 0.210721822807 5.41779926833e-20)
(-7.0607071262 0.193975017539 0)
(-7.14230406378 0.176782915404 -1.63934353305e-19)
(-7.21586921492 0.15927529835 -5.4797876941e-20)
(-7.28111312343 0.141589793664 0)
(-7.33781161428 0.123865600647 1.11671814803e-19)
(-7.38582414471 0.106234834977 -1.12116266858e-19)
(-7.4251048485 0.0888165160006 -5.58468242266e-20)
(-7.45570218702 0.0717079637 0)
(-7.47771652209 0.0549728070448 0)
(-7.49126367853 0.0386452982026 0)
(-7.49636486677 0.0227788963231 1.12225087071e-19)
(-7.49292909479 0.00752154545607 0)
(-7.48189194309 -0.00693932211034 -1.10566000061e-19)
(-7.46352499742 -0.0205472900398 0)
(-7.43818493344 -0.0333433978829 -5.43530127706e-20)
(-7.40617300368 -0.0454306456738 0)
(-7.36773408768 -0.0569667097515 -5.28456435355e-20)
(-7.32303102024 -0.0681605610488 -5.19826736569e-20)
(-7.27211110086 -0.0792675719215 0)
(-7.2148635405 -0.0905873664296 -4.9395781119e-20)