/*--------------------------------*- C++ -*----------------------------------*\
| =========                 |                                                 |
| \\      /  F ield         | OpenFOAM: The Open Source CFD Toolbox           |
|  \\    /   O peration     | Version:  v1806                                 |
|   \\  /    A nd           | Web:      www.OpenFOAM.com                      |
|    \\/     M anipulation  |                                                 |
\*---------------------------------------------------------------------------*/
FoamFile
{
    version     2.0;
    format      ascii;
    class       volVectorField;
    location    "12";
    object      Ua;
}
// * * * * * * * * * * * * * * * * * * * * * * * * * * * * * * * * * * * * * //

dimensions      [0 1 -1 0 0 0 0];


internalField   nonuniform List<vector> 
12225
(
(0.0843809215684 40.8550544081 0)
(0.971789239139 10.2182994522 0)
(0.593440769624 9.76841495472 0)
(0.764972929574 9.93149532879 0)
(0.734131980582 9.96484959162 0)
(0.789699823321 10.0521537231 0)
(0.82544416721 10.0678124453 0)
(0.87719275104 10.0108883667 0)
(0.926973224138 9.85229833978 0)
(0.969011348123 9.6020805419 0)
(0.993620611293 9.29523999872 0)
(0.995134804044 8.98515420077 0)
(0.976343830013 8.71096708196 0)
(0.974983174198 8.56144448726 0)
(1.09396754955 8.51038533542 0)
(1.51812651886 8.26933118088 0)
(2.34549052008 7.02719360756 0)
(2.91381757863 3.51621411801 0)
(2.26506035173 -35.1665205475 0)
(0.753788055031 -6.42271483564 0)
(0.990994994587 -6.31666448998 0)
(0.929465966143 -6.41799065039 0)
(0.998662191901 -6.35731301252 0)
(1.04650054554 -6.35015543109 0)
(1.11789421257 -6.28127677264 0)
(1.19262440534 -6.19522470399 0)
(1.26709749676 -6.0862589783 0)
(1.33524912024 -5.96608569287 0)
(1.39592612017 -5.83235707882 0)
(1.44827700083 -5.67669211182 0)
(1.49742830475 -5.47778739677 0)
(1.57436168026 -5.20359397042 0)
(1.74809200454 -4.80720380134 0)
(2.10369870473 -4.24124602018 0)
(2.58447050368 -3.54176544319 0)
(2.64322041223 -2.92969084775 0)
(-1.59866280732 28.5716570662 0)
(1.26043326117 3.89275119817 0)
(0.70459902364 3.1300788813 0)
(0.871020852948 3.32144938476 0)
(0.837593510707 3.2251424437 0)
(0.870800101868 3.20427222349 0)
(0.893304843221 3.13807688533 0)
(0.918222343992 3.04532958453 0)
(0.937260074564 2.91383303474 0)
(0.948127971743 2.74134533177 0)
(0.950569775319 2.52554014409 0)
(0.947428204714 2.26240801498 0)
(0.950604525182 1.95708940269 0)
(0.993857471449 1.6191962282 0)
(1.1373883574 1.24974389038 0)
(1.43456470286 0.813967506036 0)
(1.7984115977 0.190154025571 0)
(1.85364678769 -0.731133500821 0)
(2.00874532075 -18.6437338627 0)
(1.05054866157 -2.5165476982 0)
(0.899078406841 -1.85960905462 0)
(0.956093337788 -1.96684528525 0)
(0.959363433777 -1.8523706896 0)
(0.99383581683 -1.77376842916 0)
(1.025626915 -1.6708475163 0)
(1.06061235205 -1.5538123718 0)
(1.09001720486 -1.41845881947 0)
(1.11012099644 -1.26300171618 0)
(1.11772807516 -1.08624503187 0)
(1.11406758375 -0.889857317312 0)
(1.10965655295 -0.675706757111 0)
(1.13208664393 -0.45185888338 0)
(1.22448128827 -0.248178969622 0)
(1.40825141616 -0.145919767696 0)
(1.59052639537 -0.291903967159 0)
(1.54889907377 -0.746790015454 0)
(0.135132668709 8.49604410271 0)
(0.924376788861 0.881355482874 0)
(0.857931416982 0.806174988176 0)
(0.889067699906 0.661643156822 0)
(0.896624967789 0.567726642951 0)
(0.921271303283 0.452831122222 0)
(0.950553227901 0.341132198089 0)
(0.982632743491 0.22191643665 0)
(1.01308848921 0.100524890945 0)
(1.03843717999 -0.0181518367145 0)
(1.05661470075 -0.124528652449 0)
(1.06929588402 -0.207804984702 0)
(1.08630931341 -0.25655111569 0)
(1.12893696047 -0.266158208224 0)
(1.22209284074 -0.253708425608 0)
(1.35957895285 -0.281003038366 0)
(1.45492802607 -0.442131377148 0)
(1.3856796821 -0.734570432506 0)
(0.895802060533 -2.37775784077 0)
(1.01043052569 -0.309758756524 0)
(0.906749122496 -0.269800001255 0)
(0.94902283737 -0.252467705747 0)
(0.948689983433 -0.217574631526 0)
(0.967152019518 -0.188810932199 0)
(0.986400049903 -0.167874490767 0)
(1.00756571854 -0.159651527319 0)
(1.02696210008 -0.1647524484 0)
(1.04274429976 -0.181161076005 0)
(1.05430424314 -0.203923810636 0)
(1.0646633682 -0.225913045339 0)
(1.08324931836 -0.239630127501 0)
(1.12589880188 -0.243991884087 0)
(1.20414857321 -0.255338500072 0)
(1.29873018551 -0.316510304879 0)
(1.34258040441 -0.469469269019 0)
(1.27411954237 -0.673422929348 0)
(0.798986342674 0.73832713791 0)
(0.96579805037 -0.0293116708678 0)
(0.934315680534 0.0188126252009 0)
(0.958841522598 -0.0476032935602 0)
(0.96527723464 -0.0638191964741 0)
(0.980254112537 -0.0883708276527 0)
(0.997402217328 -0.109415316616 0)
(1.0149982163 -0.133499665998 0)
(1.03099132015 -0.159824183439 0)
(1.04392738046 -0.187376928379 0)
(1.05399479884 -0.213325769213 0)
(1.06464628725 -0.233989029323 0)
(1.08390957357 -0.246890668265 0)
(1.12216065032 -0.256374343754 0)
(1.1816981657 -0.280109438466 0)
(1.24044702584 -0.34797699173 0)
(1.25306815342 -0.474003291326 0)
(1.19213471713 -0.615812358052 0)
(0.884882779445 0.228506887952 0)
(0.974737305451 -0.0315155138478 0)
(0.959686540298 -0.0148560738924 0)
(0.977805497734 -0.0526141687529 0)
(0.985057458765 -0.0659190671574 0)
(0.996252039451 -0.0849497401538 0)
(1.00978967345 -0.104492134995 0)
(1.02317074691 -0.127855011556 0)
(1.03537882427 -0.154077002884 0)
(1.04542847509 -0.181565812545 0)
(1.0540024534 -0.207657417597 0)
(1.06442323863 -0.229549928245 0)
(1.0827055136 -0.246639970612 0)
(1.11432968066 -0.264617576551 0)
(1.15605258577 -0.298069535087 0)
(1.18828386191 -0.364552887922 0)
(1.1832283598 -0.46389063562 0)
(1.13060786076 -0.563858554778 0)
(0.942793164762 0.313716106691 0)
(0.98046030636 -0.0282967016422 0)
(0.983943790726 -0.0147732595369 0)
(0.994830661323 -0.0488134835135 0)
(1.00321261136 -0.0643524591944 0)
(1.01122007274 -0.0841155260112 0)
(1.02170015632 -0.104456438392 0)
(1.03143522246 -0.127653906141 0)
(1.04030926148 -0.153000744013 0)
(1.04772164517 -0.179160903202 0)
(1.05463121986 -0.20421394223 0)
(1.06388497832 -0.226552451555 0)
(1.07943441163 -0.246966855669 0)
(1.10313273278 -0.271103119179 0)
(1.12937807248 -0.309309736165 0)
(1.14312304422 -0.369942185996 0)
(1.1286253952 -0.447262904962 0)
(1.08328663586 -0.519683742936 0)
(0.994399502895 0.325081697042 0)
(0.988896746038 -0.0209239690133 0)
(1.00578399003 -0.0140385814054 0)
(1.01061593111 -0.0428496927864 0)
(1.01938248982 -0.0601997810771 0)
(1.02470248982 -0.0803314718687 0)
(1.03246068988 -0.101319970221 0)
(1.03904713391 -0.12434832666 0)
(1.04498780991 -0.14893611264 0)
(1.0499780541 -0.174026452132 0)
(1.05501804251 -0.198358909766 0)
(1.06228426147 -0.221292579549 0)
(1.07394144674 -0.244312312239 0)
(1.08957634951 -0.272163942604 0)
(1.10333332537 -0.311243250035 0)
(1.10473733618 -0.364295131876 0)
(1.08553517959 -0.424650133007 0)
(1.04620910683 -0.478739920791 0)
(1.0410827452 0.336601306237 0)
(0.996424141574 -0.0137923395849 0)
(1.02453884073 -0.0148452027265 0)
(1.02376533887 -0.0386004697982 0)
(1.03253796039 -0.0574749828356 0)
(1.03566707624 -0.0776491471162 0)
(1.04113892557 -0.0989706742217 0)
(1.04515000442 -0.121633515044 0)
(1.04862797027 -0.145428505661 0)
(1.05145695556 -0.169539638016 0)
(1.05451015053 -0.193258602205 0)
(1.05925553506 -0.216579651764 0)
(1.0665138724 -0.241145992339 0)
(1.07474921999 -0.270409787212 0)
(1.0789330001 -0.307784544029 0)
(1.07232424138 -0.353073261317 0)
(1.05098623077 -0.400581829294 0)
(1.01641058745 -0.44196670028 0)
(1.06835680119 0.34024807251 0)
(1.00350363564 -0.00536745334583 0)
(1.03507381757 -0.0154417125537 0)
(1.03107804453 -0.0341704889367 0)
(1.03908500408 -0.0538754979849 0)
(1.04076502397 -0.0736401499439 0)
(1.04447266274 -0.0949583027637 0)
(1.04661644557 -0.117178192744 0)
(1.04823677131 -0.140319760971 0)
(1.04934565763 -0.163732584867 0)
(1.05057740346 -0.18713389149 0)
(1.0528278818 -0.210767841303 0)
(1.05615573496 -0.236038899052 0)
(1.05870568577 -0.265312515073 0)
(1.05657116606 -0.299955684703 0)
(1.04547805013 -0.338736050462 0)
(1.0236450582 -0.377174601796 0)
(0.992749952239 -0.410088679284 0)
(1.0829062641 0.340462802433 0)
(1.01002125032 -5.44291303544e-05 0)
(1.04091917232 -0.0150657154893 0)
(1.03516970289 -0.0309240375751 0)
(1.04212285179 -0.0507509309877 0)
(1.04280056699 -0.0701273172629 0)
(1.04509965651 -0.0912458816045 0)
(1.04584886777 -0.113038710914 0)
(1.04601548941 -0.135605736011 0)
(1.04565641193 -0.158489492804 0)
(1.04516924424 -0.181581976658 0)
(1.04506822555 -0.205121510781 0)
(1.04487193157 -0.230190167677 0)
(1.04286441552 -0.258146072678 0)
(1.03617158166 -0.289313778217 0)
(1.02223539805 -0.322202346123 0)
(1.00053683374 -0.353590624909 0)
(0.972652576776 -0.380117775123 0)
(1.09189577848 0.327140027404 0)
(1.01504095922 0.0011403316239 0)
(1.0436731043 -0.0170011382097 0)
(1.03672759864 -0.0314252882811 0)
(1.04210198475 -0.0511672077061 0)
(1.04182400323 -0.0701265899503 0)
(1.04267566175 -0.0909044149145 0)
(1.04208759057 -0.112154416133 0)
(1.04079938073 -0.134109043777 0)
(1.03893758129 -0.156334161777 0)
(1.03668188491 -0.178839581879 0)
(1.03415853356 -0.201708120146 0)
(1.0307187744 -0.225670537786 0)
(1.02489858691 -0.251192787139 0)
(1.01479856523 -0.278146940971 0)
(0.999082599987 -0.30506817373 0)
(0.977982422088 -0.329935346855 0)
(0.952956261128 -0.350630569836 0)
(1.09716281637 0.317176520089 0)
(1.01922450674 0.00246769156967 0)
(1.0449558765 -0.0178310471552 0)
(1.03742609998 -0.0315918400897 0)
(1.04079603212 -0.0506343121324 0)
(1.03945931202 -0.0687809015287 0)
(1.03865346367 -0.0885968994239 0)
(1.03660634799 -0.108807941844 0)
(1.03373489476 -0.129628082704 0)
(1.03021908562 -0.150736704171 0)
(1.02602166727 -0.172079694215 0)
(1.02112862846 -0.193682466902 0)
(1.01484212292 -0.215741306751 0)
(1.00608662464 -0.238401948068 0)
(0.993713849316 -0.261075984796 0)
(0.977170440622 -0.282775951714 0)
(0.957063592694 -0.302091839331 0)
(0.934672652823 -0.317948252933 0)
(1.09477014512 0.284867763383 0)
(1.0225796278 0.000431927221631 0)
(1.04401019852 -0.0204681794652 0)
(1.03691352703 -0.0340999886192 0)
(1.03822005461 -0.0520211054164 0)
(1.03591951876 -0.0690947488867 0)
(1.03346323554 -0.0874029085009 0)
(1.02996575185 -0.106017708775 0)
(1.02545030415 -0.125077926629 0)
(1.02024585131 -0.144386802852 0)
(1.01414798884 -0.16381973398 0)
(1.00712860799 -0.183283330688 0)
(0.998573357563 -0.202739385443 0)
(0.987812103071 -0.222049549359 0)
(0.97420840019 -0.240629767079 0)
(0.957641556558 -0.257744560473 0)
(0.938849182772 -0.272541170632 0)
(0.918881484657 -0.284444365045 0)
(1.08685988415 0.259626682585 0)
(1.02267151255 -0.000221419524957 0)
(1.04002098219 -0.0207141843701 0)
(1.03382075781 -0.0339981614981 0)
(1.03326447516 -0.0506766065249 0)
(1.03013494903 -0.0664680119237 0)
(1.0261866542 -0.0830924616134 0)
(1.02132407747 -0.0998219594819 0)
(1.01529295136 -0.11682236429 0)
(1.00850505818 -0.133869313337 0)
(1.00072616693 -0.15091847039 0)
(0.991962185523 -0.167694317653 0)
(0.981800942497 -0.184153175454 0)
(0.969852963691 -0.199981892104 0)
(0.955822727618 -0.214804110276 0)
(0.939797541495 -0.228025896553 0)
(0.922492309798 -0.239218989477 0)
(0.904741812435 -0.2480125362 0)
(1.07148789844 0.229281274281 0)
(1.02155771672 -0.00154738365936 0)
(1.03240703961 -0.0204361915834 0)
(1.02791781406 -0.0326842958189 0)
(1.0255573529 -0.047569952845 0)
(1.02187551418 -0.0616746014874 0)
(1.01668866011 -0.0762449428683 0)
(1.01074037297 -0.0907877687896 0)
(1.00348156303 -0.105386944616 0)
(0.99545055344 -0.11987864074 0)
(0.986410920548 -0.134171186839 0)
(0.976467586824 -0.148001174602 0)
(0.965365471887 -0.161264847689 0)
(0.952918659074 -0.173739644627 0)
(0.939014549609 -0.185122523354 0)
(0.923829462057 -0.195064726385 0)
(0.908013455542 -0.20329218083 0)
(0.892206402607 -0.209631337344 0)
(1.05534904604 0.197639357474 0)
(1.02045412635 -0.00605539457585 0)
(1.02439656019 -0.0189847473337 0)
(1.02161547729 -0.0303749934213 0)
(1.0175359191 -0.0421277731759 0)
(1.01332700463 -0.053826251944 0)
(1.00711551216 -0.0655742078876 0)
(1.00026566153 -0.0772937739498 0)
(0.992066044779 -0.0889861535996 0)
(0.983136815767 -0.100453975499 0)
(0.973268563297 -0.111691714517 0)
(0.962653607502 -0.122375533136 0)
(0.951144327104 -0.132490768342 0)
(0.938673083948 -0.141823161113 0)
(0.92521496365 -0.15021889913 0)
(0.910973664268 -0.157420218505 0)
(0.896524180598 -0.163311157229 0)
(0.882379333124 -0.167753213379 0)
(1.05315252959 0.161572873826 0)
(1.01698876797 -0.015455194728 0)
(1.02213581046 -0.022271140615 0)
(1.01788615977 -0.0322181327416 0)
(1.01377434047 -0.0406549183104 0)
(1.00871402655 -0.0498179483071 0)
(1.00197237459 -0.058675192331 0)
(0.994421904 -0.0677346217099 0)
(0.985679903449 -0.0766035009771 0)
(0.976238494453 -0.085414604677 0)
(0.965960504573 -0.0939009339545 0)
(0.955093603639 -0.102006610887 0)
(0.943509552975 -0.109539972304 0)
(0.931216286889 -0.116489704281 0)
(0.918202910359 -0.122621792957 0)
(0.904661020223 -0.127875871034 0)
(0.891137968408 -0.132069172536 0)
(0.878077748644 -0.135229107755 0)
(1.05987634267 0.183023510772 0)
(1.01801487975 0.00602279731252 0)
(1.02468138667 0.00213633426392 0)
(1.01908323019 -0.00644302376719 0)
(1.01488074987 -0.0127298571643 0)
(1.00915380419 -0.0201279587572 0)
(1.00199043173 -0.0272126032683 0)
(0.993989171528 -0.0346794249837 0)
(0.984878849756 -0.0420113985096 0)
(0.975115647011 -0.049356621629 0)
(0.964603011703 -0.0564510960441 0)
(0.953575376156 -0.0632873220864 0)
(0.942002725501 -0.0696782718556 0)
(0.929862057731 -0.0755909028262 0)
(0.917158020437 -0.0808184913294 0)
(0.904075339542 -0.0853168579079 0)
(0.891069746505 -0.088962598361 0)
(0.878446219884 -0.0917372983124 0)
(1.05808932297 -0.105367124274 0)
(1.015990986 -0.122766348666 0)
(1.03084150431 -0.123276949041 0)
(1.02389149578 -0.126104401563 0)
(1.02031897276 -0.127300927084 0)
(1.01396724282 -0.129588161072 0)
(1.0065891202 -0.131769116598 0)
(0.998207894639 -0.134214312977 0)
(0.988952681252 -0.136713728209 0)
(0.979080831761 -0.139176146013 0)
(0.968599061138 -0.141584050078 0)
(0.957715773749 -0.143594968352 0)
(0.946405357501 -0.14526820496 0)
(0.934705711935 -0.146548334043 0)
(0.922636733782 -0.147371997052 0)
(0.910319808597 -0.147592183414 0)
(0.898294390344 -0.14720180889 0)
(0.887130595456 -0.146260292142 0)
(1.12035783751 1.03810099517 0)
(1.03401400136 0.359661968542 0)
(1.03262533388 0.366447539224 0)
(1.0261518043 0.350187093235 0)
(1.02212558343 0.341280314883 0)
(1.01520173406 0.329029943623 0)
(1.00750342741 0.316974574368 0)
(0.998742227863 0.304023275563 0)
(0.989104291663 0.290793715077 0)
(0.978800637625 0.277182667867 0)
(0.967738733992 0.263366298339 0)
(0.956319428541 0.249163674773 0)
(0.944576392203 0.234828261586 0)
(0.93245985932 0.220701263461 0)
(0.919899308936 0.206914694385 0)
(0.906982143026 0.193530522418 0)
(0.89386093212 0.180615247394 0)
(0.880309890717 0.168401968238 0)
(0.910354085742 -3.23291068214 0)
(0.983461429078 -1.10504046724 0)
(1.06466631333 -1.10742215271 0)
(1.04761819364 -1.0679233109 0)
(1.0468943488 -1.04062449245 0)
(1.03849478747 -1.01241148463 0)
(1.03084825706 -0.985183786609 0)
(1.02191103976 -0.958498367405 0)
(1.01257839334 -0.931765313508 0)
(1.00281263111 -0.904870577071 0)
(0.992913667222 -0.877598221638 0)
(0.982672528509 -0.849493538517 0)
(0.972146046088 -0.820975326327 0)
(0.961502479297 -0.792413878934 0)
(0.95079309466 -0.7638497473 0)
(0.940059016901 -0.735204877673 0)
(0.929993700855 -0.706535882177 0)
(0.920598001247 -0.678110849467 0)
(1.67712200586 9.10031800954 0)
(1.12658877393 2.17730548358 0)
(1.01693757558 2.1646659664 0)
(1.0266613111 2.07695120324 0)
(1.01611050788 2.0202667875 0)
(1.00862104897 1.95213290801 0)
(0.999426073611 1.88820022457 0)
(0.98964689246 1.82359489573 0)
(0.979377923898 1.75988330418 0)
(0.968572660939 1.69647987415 0)
(0.957065240078 1.63339736388 0)
(0.945541017894 1.57053837165 0)
(0.933829929352 1.50843695274 0)
(0.92184833202 1.44695359548 0)
(0.909689032178 1.38640640906 0)
(0.897560314467 1.32733909782 0)
(0.885488036803 1.2705387521 0)
(0.876548416195 1.2168843574 0)
(-0.49780659027 -19.9166377506 0)
(0.916529419216 -3.41602042996 0)
(1.12591172191 -3.17052070192 0)
(1.08903442581 -3.05241277841 0)
(1.09695267296 -2.9310060392 0)
(1.08495567611 -2.81363786502 0)
(1.07924535826 -2.70463270509 0)
(1.07042956063 -2.60053532986 0)
(1.06153453777 -2.50217375259 0)
(1.05137941069 -2.40928212426 0)
(1.03995000294 -2.3220160986 0)
(1.02703969832 -2.24140922099 0)
(1.01297851528 -2.16739393223 0)
(0.997748564696 -2.09860858052 0)
(0.981605290089 -2.03460476613 0)
(0.964780966973 -1.97478397081 0)
(0.94793777973 -1.91880337308 0)
(0.924561584852 -1.86730208734 0)
(4.34361929692 35.1667257099 0)
(1.05672402842 4.41901042099 0)
(1.08187161193 3.59231280729 0)
(1.03840992485 3.58503332147 0)
(1.03335191038 3.39761308036 0)
(1.0227163214 3.2514524934 0)
(1.0112632173 3.10889055692 0)
(1.00071144302 2.97513611313 0)
(0.990333262839 2.8521536665 0)
(0.980671180345 2.74024604073 0)
(0.972070291125 2.64066489728 0)
(0.964307951673 2.55448697587 0)
(0.957571271423 2.48126826284 0)
(0.952564690623 2.42045294622 0)
(0.949860196879 2.37163366081 0)
(0.949578075716 2.33366247222 0)
(0.950732540534 2.30438334066 0)
(0.957427497719 2.28086554908 0)
(-3.35027015187 -48.5606131784 0)
(1.56069827876 -5.76594946984 0)
(0.938744199541 -4.66541270333 0)
(1.12758469991 -4.69026345481 0)
(1.07103484805 -4.40552345379 0)
(1.06864854253 -4.23503808185 0)
(1.05713861456 -4.05540257431 0)
(1.04509458855 -3.89807838471 0)
(1.03288004094 -3.75510066747 0)
(1.01942765151 -3.62687867272 0)
(1.005340113 -3.51175488176 0)
(0.990976510655 -3.4078014608 0)
(0.976389216908 -3.31414877655 0)
(0.961648122245 -3.2314640259 0)
(0.946753342863 -3.16003276847 0)
(0.931490425533 -3.10017174305 0)
(0.915756839764 -3.05192984921 0)
(0.893736529377 -3.01589086469 0)
(4.27556735436 56.1316714686 0)
(0.597730355162 7.61627664094 0)
(1.38272939277 7.57117580901 0)
(1.12890328417 7.17270144674 0)
(1.19830937114 6.85594155586 0)
(1.16732398748 6.57397630485 0)
(1.16707968244 6.30331300095 0)
(1.15838968187 6.05611751584 0)
(1.15206068362 5.82488521123 0)
(1.14546018206 5.60956786154 0)
(1.13895448427 5.40767715305 0)
(1.13200421489 5.21728453129 0)
(1.12386915947 5.03706034024 0)
(1.11397742103 4.86520223414 0)
(1.10219732386 4.69934449566 0)
(1.08830638306 4.53762530865 0)
(1.070949626 4.38125691157 0)
(1.0554854726 4.23709829662 0)
(0.439312029548 -58.2055421855 0)
(0.892492366255 -10.2905518308 0)
(0.760694684144 -10.3030068825 0)
(0.795099720754 -9.65695794237 0)
(0.782991156706 -9.28180594923 0)
(0.784018649728 -8.87152414212 0)
(0.780036160673 -8.50588230857 0)
(0.777775733558 -8.16159498276 0)
(0.775156161395 -7.8396069232 0)
(0.77255207934 -7.53446912914 0)
(0.769643405649 -7.24208554001 0)
(0.766441402205 -6.95877623396 0)
(0.762690973274 -6.68229306809 0)
(0.757483448036 -6.41142097517 0)
(0.750094672805 -6.14654880314 0)
(0.741706101756 -5.88845295769 0)
(0.737663471382 -5.63199612489 0)
(0.739586747313 -5.3536254917 0)
(0.112658804984 -0.114964928869 -5.70597891532e-19)
(0.0635738167719 -0.156787028875 0)
(-0.0476738192727 -0.137071758533 0)
(-0.116669838166 -0.0400469264087 0)
(-0.146843614201 0.0521863522122 0)
(-0.184285084762 0.117780185755 3.49867631013e-19)
(-0.213584194404 0.124158356982 0)
(-0.23694298899 0.109325371083 0)
(-0.257364891862 0.0879396961624 -1.20315936421e-19)
(-0.272624072134 0.0678479078838 0)
(-0.281577220528 0.0530392781596 8.14094917539e-20)
(-0.284339054377 0.0448677604034 0)
(-0.281766291172 0.0432582413514 6.12395113483e-20)
(-0.275044438569 0.0472691227823 5.44685252912e-20)
(-0.265425049464 0.0556611947345 0)
(-0.254002648588 0.0670811754444 -4.46063803386e-20)
(-0.241730019161 0.0802853126817 -4.09078382044e-20)
(-0.229279625379 0.0941536120736 -3.77796231782e-20)
(-0.217177869279 0.107748137725 0)
(-0.205733381512 0.120295775727 0)
(-0.195165797784 0.131195858783 0)
(-0.185533667877 0.139977584624 0)
(-0.176867207477 0.146296137249 0)
(-0.169107400827 0.149920374535 0)
(-0.162168399364 0.150692729662 2.46909929705e-20)
(-0.155939418099 0.148533754333 2.35423220148e-20)
(-0.150300099083 0.143426917718 0)
(-0.145119259874 0.135407435529 -2.15501416391e-20)
(-0.140248190747 0.124542684514 -2.06805891616e-20)
(-0.135562334982 0.110930829835 -1.98811076413e-20)
(-0.130922463618 0.0946933625932 0)
(-0.12621822533 0.0759629907698 0)
(-0.121330223606 0.054880878994 1.78217013725e-20)
(-0.116184558505 0.031592775184 0)
(-0.110692595071 0.00625061626065 0)
(-0.10480340347 -0.0210161893424 1.61418307813e-20)
(-0.0984789265706 -0.0500607360419 0)
(-0.0916974400556 -0.0807627172144 0)
(-0.0844423285136 -0.113003309276 0)
(-0.0767184119943 -0.14669461833 0)
(-0.0685365807643 -0.181745025799 0)
(-0.0599175507934 -0.218099959195 -2.70393168596e-20)
(-0.050886998074 -0.255702384787 0)
(-0.0414757850719 -0.294534334256 0)
(-0.0317162575553 -0.334577287403 -2.49472066288e-20)
(-0.0216446617948 -0.37585284265 -2.43143639045e-20)
(-0.0112978412367 -0.418379878606 0)
(-0.000718431627023 -0.462216393965 0)
(0.0100568016107 -0.507412994397 -2.25988421822e-20)
(0.0209910709587 -0.554066423826 0)
(0.0320475681278 -0.602260299217 2.16000355293e-20)
(0.0431964474679 -0.652122370384 0)
(0.0544036467361 -0.703756029556 -2.07130079666e-20)
(0.0656492783677 -0.757295630352 0)
(0.0769145284131 -0.812847061663 -1.99334979388e-20)
(0.0882073353836 -0.870556109647 -1.95821544473e-20)
(0.0995147865944 -0.930547038527 0)
(0.110848130196 -0.992970358641 0)
(0.122191181851 -1.05796579416 0)
(0.133555433851 -1.12567380645 -1.84233529862e-20)
(0.144922057535 -1.19620226945 0)
(0.156230328146 -1.26955712444 0)
(0.167373893791 -1.34558279526 0)
(0.178019841764 -1.423625687 0)
(0.187920521875 -1.50148543139 0)
(0.197330633291 -1.57541883286 0)
(0.20636531368 -1.64432841209 0)
(0.215078968546 -1.70743485757 1.71871294474e-20)
(0.223540669539 -1.76428175891 0)
(0.231786217977 -1.81471441742 1.713101697e-20)
(0.239875728339 -1.85880932223 1.71486318848e-20)
(0.247862192508 -1.89687613985 0)
(0.255823099108 -1.92933571731 -1.72742463308e-20)
(0.263842815493 -1.95675631808 0)
(0.272005406164 -1.9797010825 1.75245148089e-20)
(0.280426479664 -1.99881038272 0)
(0.289206937155 -2.01465654962 -1.79120858539e-20)
(0.298489240268 -2.02783563333 1.8165474639e-20)
(0.308403699369 -2.03887530224 0)
(0.319117688459 -2.04832548851 0)
(0.330791394314 -2.05670980591 0)
(0.3436483598 -2.06460447304 0)
(0.357878897803 -2.07260565423 2.02945630318e-20)
(0.373750125196 -2.08135868772 -2.09666793657e-20)
(0.391529371384 -2.0915903531 4.35066283536e-20)
(0.411483526217 -2.1039976746 4.535204037e-20)
(0.433966086002 -2.11932539858 4.75095314278e-20)
(0.459069977282 -2.13817836161 0)
(0.48713909838 -2.16082443347 0)
(0.518241278317 -2.1873755218 0)
(0.552094914435 -2.21673771894 6.05798424129e-20)
(0.58880351561 -2.24781047745 0)
(0.62870418577 -2.27931667922 0)
(0.672052210721 -2.31040116807 7.75833188016e-20)
(0.718667082543 -2.33996890941 0)
(0.767776337461 -2.36633554554 -9.42874418021e-20)
(0.818623003095 -2.38618285365 0)
(0.871161925482 -2.39547592155 1.17964656209e-19)
(0.925790225997 -2.38849563128 0)
(0.98364000691 -2.36281431174 0)
(1.04332074235 -2.32517910732 0)
(1.10478571996 -2.27349030857 2.1106959933e-19)
(1.15957594179 -2.19258856861 0)
(1.19152059873 -2.07598797485 3.16030816477e-19)
(1.2445748501 -1.7933864896 4.08233873263e-19)
(1.3892316997 -1.36869211416 0)
(1.31639906896 -0.868462223901 0)
(1.00744092417 -0.109429326136 0)
(0.71671794972 0.513417305127 7.84488706421e-19)
(0.595597989602 0.727778058985 0)
(0.529699704344 0.914428775523 0)
(0.485250743969 1.07825489262 3.32177928431e-19)
(0.452836456883 1.22036917281 2.88092972623e-19)
(0.428157654995 1.34332056349 0)
(0.408677819672 1.44958003005 -2.34649123778e-19)
(0.392879552365 1.54100654471 -2.17422866775e-19)
(0.379884592999 1.61930779129 2.03988372054e-19)
(0.369044260248 1.68564160595 0)
(0.359873708811 1.74095892467 0)
(0.351951080225 1.7858410453 0)
(0.344895619962 1.82077909598 -1.72012856965e-19)
(0.338456727547 1.84623691847 0)
(0.332499569281 1.86287294179 -1.6347679565e-19)
(0.326941362149 1.87101733087 0)
(0.321687270983 1.87122554868 0)
(0.316602918342 1.86407955722 0)
(0.311563371426 1.85040945978 1.54380165832e-19)
(0.306513468038 1.83115137306 1.5326986184e-19)
(0.30151107452 1.80753872035 0)
(0.2967371386 1.78035056941 0)
(0.29221376666 1.75270855288 0)
(0.287976402818 1.72515287626 0)
(0.2840666022 1.69769056162 0)
(0.280591870263 1.66998636879 0)
(0.277625766075 1.64169986216 3.04390360441e-19)
(0.275261569588 1.61235757203 0)
(0.273584030929 1.58148761285 0)
(0.272664515362 1.54846988577 0)
(0.272533691791 1.51267108493 -3.1334578851e-19)
(0.273184292873 1.47337473064 -3.16626424363e-19)
(0.274572119551 1.43006034058 3.20292078986e-19)
(0.276599087446 1.38230290416 3.24315762101e-19)
(0.279172598806 1.33000466771 0)
(0.282193895354 1.27312600269 0)
(0.285580199364 1.2118732699 0)
(0.289251759717 1.14648186303 3.44186915125e-19)
(0.293115927758 1.07748423472 0)
(0.297045192493 1.00549043396 0)
(0.300935549388 0.931402876961 -3.63689147774e-19)
(0.30475010358 0.856086558417 0)
(0.308543679935 0.780677628398 -3.7932936302e-19)
(0.312415897204 0.706374629298 0)
(0.316422129562 0.634699843696 -3.97447405062e-19)
(0.32051962837 0.567172945877 0)
(0.324710366285 0.505599586375 0)
(0.329076126559 0.45168813894 0)
(0.333648744462 0.407098552463 0)
(0.338373230737 0.372839420214 0)
(0.343208912336 0.349501342141 0)
(0.34830509708 0.336871900483 0)
(0.354044213827 0.334641199159 0)
(0.360698701474 0.341955115463 -5.20677133074e-19)
(0.368110299675 0.357985534262 0)
(0.375850422591 0.381052262386 0)
(0.383512951112 0.410069667735 -5.79943512988e-19)
(0.390612326237 0.444463404545 0)
(0.396489017696 0.484481046741 0)
(0.40004679404 0.530689389922 -6.39589397488e-19)
(0.400254887302 0.58374461601 0)
(0.396455511807 0.64329882752 0)
(0.388825432002 0.708599369342 -6.67362426777e-19)
(0.378954854611 0.777214461076 6.6427119948e-19)
(0.369490281742 0.848928957587 -6.5618505022e-19)
(0.364743998366 0.920275207929 0)
(0.366996364041 0.986684498455 0)
(0.375954535487 1.03550128003 -1.26122033283e-18)
(0.386320929728 1.05081388222 0)
(0.389220283353 1.01218042461 1.22174909309e-18)
(0.372299174019 0.925937486124 1.19193691571e-18)
(0.345749819505 0.814441348654 0)
(-0.123467500441 0.00227615612893 1.77606368402e-18)
(-0.0767038820016 0.148037209981 0)
(-0.247582520767 0.198777087757 -5.91056532389e-19)
(-0.314591450961 0.133802115579 3.71927248778e-19)
(-0.290239883109 0.0645807568693 2.6704982607e-19)
(-0.228214723879 0.0109836927328 -1.07991921224e-19)
(-0.166018502301 -0.0287543535552 -1.74484329123e-19)
(-0.116728459211 -0.0595713480284 0)
(-0.0795502903059 -0.0828292664673 6.64802592717e-20)
(-0.051521018587 -0.0991911677586 -1.14051120798e-19)
(-0.0301388386289 -0.109517737873 -1.54663611089e-19)
(-0.0135995553098 -0.115112767026 9.24800014905e-20)
(-0.000631761628745 -0.117330288452 -1.27966627343e-19)
(0.00973435902896 -0.117503241976 -4.00544837191e-20)
(0.0182698724914 -0.116669656127 0)
(0.0256362522318 -0.115636589722 3.46462877705e-20)
(0.0323630283561 -0.114883518399 3.2468320455e-20)
(0.0389015430021 -0.114678421299 3.05546895061e-20)
(0.045571726484 -0.11506606483 -5.57110637906e-20)
(0.0526327433157 -0.115962034888 0)
(0.060222126105 -0.117171605476 -5.00521745695e-20)
(0.0684199667843 -0.118439359899 0)
(0.0772356922181 -0.119481784976 4.54437031614e-20)
(0.0866442689976 -0.12000293738 0)
(0.0965716891054 -0.119724925632 -6.33411520553e-20)
(0.106933845643 -0.118387271207 1.90572344532e-20)
(0.117637737885 -0.115767346805 3.83846708934e-20)
(0.128582544708 -0.111675475546 5.63277774785e-20)
(0.139684236669 -0.105965827048 1.87106877402e-20)
(0.15085813716 -0.0985360594237 1.80898336561e-20)
(0.16204758534 -0.0893183662272 0)
(0.173186324245 -0.0782924099525 3.21238578155e-20)
(0.184240094025 -0.0654569502091 -1.64576919207e-20)
(0.195175971523 -0.0508575793783 0)
(0.205974419915 -0.0345411736337 0)
(0.216614172888 -0.0165958736255 -1.50896049455e-20)
(0.227092015167 0.00290483098669 0)
(0.237402247217 0.0238568005861 0)
(0.247547471541 0.046182703695 0)
(0.25753515347 0.0697824300412 0)
(0.267373796483 0.0945934595657 0)
(0.277074435562 0.120536805225 -2.20360668632e-20)
(0.286648184373 0.147577175293 -4.65512110082e-20)
(0.296107698906 0.175665701038 0)
(0.305464999022 0.204800756099 -2.01983713612e-20)
(0.314731287855 0.23496690368 2.34415455209e-20)
(0.323915017501 0.266198252239 0)
(0.333021247711 0.298513715806 0)
(0.342051194602 0.331982850978 6.20236193689e-20)
(0.351003308235 0.366654449178 3.91537199387e-20)
(0.359875769424 0.402629120698 -2.11032398605e-20)
(0.368670307788 0.439980191665 -3.74898750648e-20)
(0.377388968042 0.478829463657 -1.63890875104e-20)
(0.386039601101 0.519275048871 0)
(0.394616645371 0.561457743829 5.50455622381e-20)
(0.403113096688 0.60548909945 1.93866958073e-20)
(0.411509281344 0.651505205525 0)
(0.419789214375 0.699621294224 -3.36716957688e-20)
(0.427920914777 0.749968206501 3.32046150456e-20)
(0.435863567733 0.802676512291 1.8437667928e-20)
(0.443585391386 0.857878400587 0)
(0.451094028502 0.915709196155 0)
(0.458509321295 0.976353926165 0)
(0.466240216616 1.03951681546 -3.15755847308e-20)
(0.474075193505 1.1002777317 0)
(0.481385739902 1.15537288638 3.09965811678e-20)
(0.487945174939 1.20432120876 0)
(0.493601750283 1.24681873119 1.30633088633e-20)
(0.498250594081 1.28277200937 0)
(0.501807024714 1.3122579811 1.2754770709e-20)
(0.504219463018 1.33554456037 1.26187334996e-20)
(0.505458512486 1.35296526685 0)
(0.505514156393 1.36495334598 1.75689341577e-20)
(0.504406067589 1.37188683442 0)
(0.50215984218 1.37415780218 -1.78301970375e-20)
(0.498822396039 1.37204115359 0)
(0.494444985229 1.36578752133 1.8220054177e-20)
(0.489097852768 1.35554966159 -1.84701683721e-20)